

read_data data.ice_289K_1atm_LG group ice
Reading data file ...
  orthogonal box = (-0.024949448 -0.024949448 -0.024949448) to (57.295459 57.295459 57.295459)
  1 by 2 by 3 MPI processor grid
  reading atoms ...
  5832 atoms
  reading velocities ...
  5832 velocities
  read_data CPU = 0.011 seconds
read_data data.water_289K_1atm_LG add append shift ${ICE_HI} ${ICE_LO} ${ICE_LO} group water
read_data data.water_289K_1atm_LG add append shift 57.2954594476322 ${ICE_LO} ${ICE_LO} group water
read_data data.water_289K_1atm_LG add append shift 57.2954594476322 -0.0249494476353291 ${ICE_LO} group water
read_data data.water_289K_1atm_LG add append shift 57.2954594476322 -0.0249494476353291 -0.0249494476353291 group water
Reading data file ...
  orthogonal box = (-0.024949448 -0.024949448 -0.024949448) to (113.75513 57.295459 57.295459)
  3 by 1 by 2 MPI processor grid
  reading atoms ...
  5832 atoms
  reading velocities ...
  5832 velocities
  read_data CPU = 0.010 seconds

write_data data.icewater_test
System init for write_data ...
WARNING: Communication cutoff is 0.0. No ghost atoms will be generated. Atoms may get lost. (../comm_brick.cpp:167)

# Define potential
#
pair_style sw
pair_coeff * * ML.sw mW
Reading sw potential file ML.sw with DATE: 2019-02-27

# Delete water and ice atoms that are overlapping
#
delete_atoms overlap 2.4 water ice
System init for delete_atoms ...
Neighbor list info ...
  update every 1 steps, delay 10 steps, check yes
  max neighbors/atom: 2000, page size: 100000
  master list distance cutoff = 6.0032907
  ghost atom cutoff = 6.0032907
  binsize = 3.0016454, bins = 38 20 20
  2 neighbor lists, perpetual/occasional/extra = 1 1 0
  (1) command delete_atoms, occasional, copy from (2)
      attributes: full, newton on
      pair build: copy
      stencil: none
      bin: none
  (2) pair sw, perpetual
      attributes: full, newton on
      pair build: full/bin/atomonly
      stencil: full/bin/3d
      bin: standard
Deleted 111 atoms, new total = 11553

# set timestep
#
timestep 10.0

# Define output
#
compute 1 all msd
thermo 50
thermo_style custom step temp press vol etotal ke pe c_1[4]

# Neighbor lists
#
neigh_modify delay 0 every 1 check yes

# Set fixes
#
fix 1 all momentum 10 linear 1 1 1 rescale
fix 2 all nph iso ${PRES} ${PRES} ${PCOUPL}
fix 2 all nph iso 1 ${PRES} ${PCOUPL}
fix 2 all nph iso 1 1 ${PCOUPL}
fix 2 all nph iso 1 1 10000.0
fix 3 all temp/csvr ${TEMP} ${TEMP} ${TCOUPL} 837492
fix 3 all temp/csvr 284 ${TEMP} ${TCOUPL} 837492
fix 3 all temp/csvr 284 284 ${TCOUPL} 837492
fix 3 all temp/csvr 284 284 5000.0 837492


# Fix ice atoms in place
#
velocity ice set 0.0 0.0 0.0
fix 4 ice setforce 0.0 0.0 0.0

# Run 1.0 ns equilibration of water
#
dump 1 all atom 1000 eq.all.${NAME}.dump
dump 1 all atom 1000 eq.all.icewater_284K_1atm_LG.dump
run 100000
Neighbor list info ...
  update every 1 steps, delay 0 steps, check yes
  max neighbors/atom: 2000, page size: 100000
  master list distance cutoff = 6.0032907
  ghost atom cutoff = 6.0032907
  binsize = 3.0016454, bins = 38 20 20
  1 neighbor lists, perpetual/occasional/extra = 1 0 0
  (1) pair sw, perpetual
      attributes: full, newton on
      pair build: full/bin/atomonly
      stencil: full/bin/3d
      bin: standard
Per MPI rank memory allocation (min/avg/max) = 4.633 | 4.636 | 4.638 Mbytes
Step Temp Press Volume TotEng KinEng PotEng c_1[4] 
       0    140.74014   -1351.5791    373839.17   -111756.16    4846.2907   -116602.45            0 
      50    181.54365   -568.82051    371655.71   -111423.83    6251.3317   -117675.16    1.0761586 
     100    188.58557    202.70938    367840.07   -111053.34    6493.8154   -117547.16    2.4109716 
     150    191.68137    384.18828    366119.55   -110683.66    6600.4173   -117284.08    3.7460442 
     200    200.29588    250.26783    366295.61   -110464.76     6897.052   -117361.81    4.9164132 
     250     203.2757    139.08517    367353.34   -110172.23    6999.6602   -117171.89    6.3135202 
     300    208.30135    -141.4992    368556.03   -109830.36    7172.7148   -117003.07    7.7230889 
     350    210.91214     39.50173    369095.88   -109623.04    7262.6158   -116885.66    9.2070796 
     400    209.96561   -48.562803    369144.66   -109398.17    7230.0225   -116628.19    10.710827 
     450    218.36893   -21.897519    368823.29   -109130.65     7519.385   -116650.03     12.47801 
     500    220.41929    19.815149     368624.6   -108936.45    7589.9878   -116526.44    14.403252 
     550    223.86103    83.126329    368622.36   -108748.08    7708.5017   -116456.58    16.224606 
     600     225.0407   -68.779881    368847.16   -108553.19    7749.1228   -116302.31    18.022684 
     650    228.16246    101.48365    369220.69   -108349.91    7856.6185   -116206.53    19.937652 
     700    228.13206   -111.50523     369858.1   -108150.77     7855.572   -116006.34    22.159081 
     750     233.1052    162.29437    370141.26   -107989.47    8026.8184   -116016.29    24.346449 
     800    231.89292   -8.7627199    370122.03   -107795.46    7985.0743   -115780.53    26.631831 
     850    233.75355    -62.70346    369784.94   -107599.73    8049.1441   -115648.87    28.943735 
     900    238.51453    238.24942    369550.18   -107426.22    8213.0852   -115639.31    31.237226 
     950    240.86059     50.26697     370048.6   -107263.39      8293.87   -115557.26    33.291707 
    1000    238.94183   -132.95546    370507.99   -107116.71     8227.799   -115344.51    35.499867 
    1050    242.54174   -222.12408    370602.99    -106998.3    8351.7593   -115350.06    37.731171 
    1100    244.32429    21.538182    370498.55   -106891.21    8413.1401   -115304.35    40.144124 
    1150    243.59021    61.144392    370527.76   -106764.77    8387.8628   -115152.63    42.313389 
    1200    246.57091    80.238955    370536.55   -106668.61     8490.501   -115159.11    44.651353 
    1250    250.31736   -32.763831    370962.09   -106568.16    8619.5075   -115187.67    46.962852 
    1300    249.45736   -2.3014787     371295.6   -106479.06    8589.8941   -115068.95     49.32561 
    1350    251.71488    50.216727    371353.29   -106388.27    8667.6303    -115055.9    51.676106 
    1400    248.12321   -103.76649    371360.22   -106254.74    8543.9533   -114798.69    54.362811 
    1450    256.19002    28.167414    371185.66   -106138.42    8821.7285   -114960.15    56.928167 
    1500    256.39854   -6.7598764    371234.27   -106065.57    8828.9087   -114894.48    59.428719 
    1550    254.22938    -8.367357    371544.46   -105977.61    8754.2154   -114731.83    62.054399 
    1600    255.63192    107.84504    371807.91   -105886.61    8802.5107   -114689.12    64.871832 
    1650    259.84585    44.412416    371917.55   -105823.72    8947.6144   -114771.34    67.467643 
    1700    261.44337    50.399605     372127.2   -105719.52     9002.624   -114722.14    69.758915 
    1750    261.37466   -159.24498    372240.12   -105655.59    9000.2582   -114655.85    72.143932 
    1800    259.34713    36.679852    371887.32   -105551.98    8930.4415   -114482.42    74.894509 
    1850    262.20761    32.320807    371693.37   -105455.88      9028.94   -114484.82    77.341921 
    1900    265.77459   -1.1161085    371831.45   -105362.27    9151.7668   -114514.03    80.002424 
    1950    263.67747    67.033716    372120.37   -105277.23    9079.5538   -114356.79     82.71996 
    2000    265.97064    -94.85581    372661.02   -105177.81    9158.5174   -114336.33    85.396217 
    2050    267.96546    11.205714    372536.49    -105161.8    9227.2079   -114389.01    87.834664 
    2100    269.95212    188.39297    372140.83   -105132.41    9295.6172   -114428.03    90.586964 
    2150    266.60092    46.660813    372209.34   -105065.92    9180.2209   -114246.14    93.330104 
    2200    268.02584   -8.0738314    372447.37   -104989.49    9229.2871   -114218.77    96.426167 
    2250     270.5022   -150.75779    372488.24   -104950.95    9314.5587   -114265.51    99.281416 
    2300    266.96965    222.88146    372447.28   -104846.21    9192.9179   -114039.13    101.85408 
    2350    275.38929   -117.00536    373079.67   -104747.15    9482.8423   -114229.99    104.77985 
    2400     269.4503   -166.24516    373275.82   -104716.65    9278.3373   -113994.98    107.48856 
    2450    274.36908   -157.35881    373121.42   -104664.43    9447.7122   -114112.14    109.81437 
    2500    277.45464    176.95989    372827.91   -104592.03    9553.9611      -114146    112.41147 
    2550    275.23491    116.91308    372935.14   -104560.83    9477.5262   -114038.36     115.3522 
    2600    276.22542   -271.36669    373219.82   -104536.64    9511.6338   -114048.28    118.26217 
    2650    277.94479   -138.39725    373134.11   -104444.58    9570.8393   -114015.42    120.87332 
    2700    278.08621   -22.224461    373040.76   -104410.81    9575.7088   -113986.52    123.71998 
    2750    278.63747   -48.547567    372993.12      -104433    9594.6913   -114027.69    126.84119 
    2800    274.64598     44.91802    372984.03   -104403.73     9457.247   -113860.98    129.27774 
    2850    277.09006    324.75985     373046.6   -104425.92    9541.4073   -113967.32    132.51772 
    2900    280.00946   -222.46782    373336.24   -104447.02    9641.9348   -114088.95    135.54234 
    2950    282.16985   -18.499422    373214.56   -104443.94    9716.3261   -114160.26    138.36527 
    3000    277.77157   -27.182254    372907.37   -104389.82    9564.8744   -113954.69    141.37873 
    3050    279.43565    84.146985    372894.11   -104394.04    9622.1758   -114016.21     144.5813 
    3100    279.82918   -209.17542    373495.24   -104384.46    9635.7269   -114020.19     148.3189 
    3150     278.5292    53.779763    373468.47   -104385.02    9590.9628   -113975.98     150.9879 
    3200     275.0038    54.942218    373127.34   -104338.16    9469.5681   -113807.72     153.6245 
    3250    280.38311    150.64589    372815.36   -104309.46    9654.8012   -113964.26     156.6747 
    3300    277.18593    157.21373    372708.45   -104259.84    9544.7085   -113804.55    159.79064 
    3350    284.64339    79.034243    373043.52   -104155.36    9801.5008   -113956.86    163.03239 
    3400     281.7309   -228.75525       373718   -104213.22    9701.2114   -113914.43    166.68572 
    3450     281.5468    -318.2487    373943.11   -104245.15    9694.8719   -113940.02    170.17754 
    3500     279.7865   -171.56134     373579.3   -104225.89    9634.2573   -113860.15    173.31205 
    3550    284.94219    94.197161    372845.94   -104179.52    9811.7898   -113991.31    175.75351 
    3600    283.76059    143.16882    372467.07   -104193.98    9771.1023   -113965.08    178.46386 
    3650     280.2167    214.50054    372891.22   -104205.75     9649.071   -113854.82    181.16237 
    3700    283.76703   -321.91103    373875.57    -104202.5     9771.324   -113973.82    184.46932 
    3750    279.19068   -153.09798    374280.33   -104222.11    9613.7405   -113835.85    187.52429 
    3800    280.60723    110.38539    373950.86   -104218.81    9662.5186   -113881.33    190.78039 
    3850    283.80917   -325.27271    373662.13   -104206.04    9772.7752   -113978.82    193.72021 
    3900    280.59957    -15.79144     372857.8   -104209.88    9662.2548   -113872.13    196.55277 
    3950    282.66571    246.72579    372296.33    -104158.2    9733.4008    -113891.6    199.64685 
    4000    287.82099    -124.6471    372718.79   -104164.99    9910.9195   -114075.91    202.69447 
    4050    283.18491   -117.28946    373480.48   -104150.47     9751.279   -113901.75    206.19755 
    4100    281.23307   -73.611802     373816.9   -104143.38    9684.0689   -113827.45    208.69863 
    4150    281.58055    68.608806    373814.71   -104093.31    9696.0342   -113789.34     211.5896 
    4200    280.96625   -8.1455542    373801.73   -104080.16    9674.8811   -113755.04     214.5974 
    4250    281.20251   -74.537123    373714.69   -104051.61    9683.0165   -113734.62    217.78007 
    4300    279.57187     301.3086    373284.16   -104068.97    9626.8667   -113695.84    220.74708 
    4350    283.05092   -199.87522    373101.89   -104091.32    9746.6652   -113837.99    223.75006 
    4400    283.76371    175.16504    373154.85   -104085.44    9771.2096   -113856.65    227.02146 
    4450    282.16236     67.25547    373517.47   -104008.56    9716.0685   -113724.63    230.15479 
    4500    285.82301   -114.36929    373919.67    -103955.7    9842.1202   -113797.82    233.11356 
    4550    286.11629    -134.3828    374125.66   -103903.09    9852.2193   -113755.31    235.34411 
    4600    287.19693    69.392843       373752   -103906.88    9889.4304   -113796.31    237.88893 
    4650     286.9947    63.163038     373493.7   -103833.22    9882.4667   -113715.69     240.5063 
    4700     285.5498    6.8063891    373245.67   -103821.15    9832.7126   -113653.86    243.42165 
    4750    286.39958   -102.73385     373466.9   -103850.15    9861.9742   -113712.13    246.89948 
    4800    285.05844    43.951684     373720.8   -103843.98    9815.7928   -113659.77    250.30512 
    4850    282.01719    2.0252858    374076.12   -103841.28    9711.0696   -113552.35    253.45647 
    4900    286.34796   -172.75512    374233.24   -103842.31    9860.1967    -113702.5    256.35799 
    4950    285.30196   0.60877152    374078.51   -103849.16    9824.1785   -113673.33    259.50228 
    5000     287.8158   -187.70985    373905.72   -103877.99    9910.7407   -113788.73    262.25083 
    5050    283.24721    33.193796    373547.28   -103891.35    9753.4243   -113644.77    265.26657 
    5100    285.40161    139.52635    373472.35   -103894.84    9827.6098   -113722.45    267.17474 
    5150    288.87672    79.019566    373704.19   -103926.46    9947.2729   -113873.73    269.77956 
    5200    280.56942   -83.155297    374206.36   -103928.28    9661.2164    -113589.5    272.40472 
    5250    285.40987   -331.54201    374271.73   -103916.66    9827.8941   -113744.56    275.13493 
    5300    287.94569    104.28426    373815.32   -103891.78    9915.2132   -113806.99    277.61841 
    5350    285.76866   -184.84916    373859.05   -103862.02    9840.2488   -113702.27    280.85113 
    5400      285.661    15.722749    374023.71    -103914.8    9836.5416   -113751.34    283.35849 
    5450    285.89873   -183.79067    373989.82   -103891.74    9844.7279   -113736.47     285.7834 
    5500    282.12044    14.852198    373538.76   -103884.94    9714.6249   -113599.57    288.50499 
    5550    284.94597    200.27306    372911.69   -103947.29    9811.9202   -113759.21    291.44575 
    5600    281.06314    102.67309    372872.57   -104009.37    9678.2175   -113687.59    294.23078 
    5650    281.62859  -0.29101558     373584.5    -104108.9    9697.6882   -113806.59    297.26519 
    5700    281.47253   -287.15803    374449.34   -104083.19    9692.3144    -113775.5    300.22887 
    5750    282.67084   -107.68842    374531.43   -104054.63    9733.5774   -113788.21    303.12103 
    5800    281.80443   -215.69511    374061.35   -104048.32    9703.7433   -113752.07    306.06137 
    5850    285.84755    126.66399    373113.42   -103973.58    9842.9654   -113816.54    307.78309 
    5900    284.36118   -21.709625    372554.66   -104010.63    9791.7832   -113802.41    310.06965 
    5950    284.73169    464.90408    372596.37   -104025.49    9804.5415   -113830.03     312.8314 
    6000    285.06543   -109.67144    373676.24   -104031.92    9816.0336   -113847.96    315.90048 
    6050    285.80685   -15.909148    374318.68   -103962.97     9841.564   -113804.53    319.29763 
    6100    283.84519   -319.25291    374265.28   -103972.23    9774.0154   -113746.25    321.92067 
    6150    286.82686    112.63425     373738.9    -103960.7    9876.6874   -113837.39     323.8201 
    6200    284.75609    44.527607    373613.56   -103976.83    9805.3815   -113782.21      326.389 
    6250    280.99963    165.66119    373561.53   -103954.74    9676.0304   -113630.77    328.95624 
    6300    284.38058    15.435416     373673.6   -103917.59    9792.4514   -113710.04    331.26009 
    6350    282.50104   -3.6799688    373809.63   -103875.65    9727.7307   -113603.38    334.23195 
    6400    279.71587   -138.81827     374079.3   -103943.61    9631.8251   -113575.43    336.64815 
    6450    284.13184   -143.25997    374137.69   -103954.93    9783.8862   -113738.82    339.34455 
    6500    280.33283     37.40884    373845.84    -103882.8    9653.0697   -113535.87    342.47168 
    6550    285.29636    289.12173    373284.31   -103866.08    9823.9856   -113690.06    344.61928 
    6600    284.73308   -91.496148    373202.41   -103885.51    9804.5892    -113690.1    347.71014 
    6650    282.09018    358.68648    373441.79   -103937.46    9713.5827   -113651.04     350.7906 
    6700    282.53934   -205.54276    374084.23   -103952.14    9729.0495   -113681.19    354.30326 
    6750    285.90524   -102.24287     374016.3    -103978.9    9844.9518   -113823.85    357.45812 
    6800    283.15805   -42.326885     373713.7   -103945.19    9750.3543   -113695.55     360.3311 
    6850    285.77537   -93.515077    373716.08   -103945.11      9840.48   -113785.59    362.91829 
    6900      286.946    10.884092    373809.27   -103908.81    9880.7898    -113789.6    365.65299 
    6950    285.06042   -116.46791    373745.26   -103897.28    9815.8611   -113713.14    367.95562 
    7000    283.08741    188.04988     373686.4   -103871.98    9747.9217    -113619.9    371.24497 
    7050    283.52805    135.41245    373877.15   -103860.62    9763.0948   -113623.72    374.16954 
    7100    285.84605    7.7570417    374360.98    -103869.9    9842.9138   -113712.81     377.4637 
    7150    283.55294   -138.81817    374558.98   -103933.99     9763.952   -113697.94    380.57847 
    7200    284.30871    -382.0038    374294.25    -103975.8    9789.9765   -113765.78     382.6962 
    7250    287.24805    42.466545    373468.35   -103922.49    9891.1908   -113813.68    384.90613 
    7300    287.24355     25.46498    373298.97   -103898.91    9891.0357   -113789.94    386.93475 
    7350    284.77004   -1.7557213    373536.97   -103882.22    9805.8621   -113688.08    390.40819 
    7400    288.51915   -110.29683    374088.54   -103838.25    9934.9601   -113773.21    394.14336 
    7450    288.76665   -99.409467       374355   -103807.06    9943.4827   -113750.55    397.20503 
    7500    287.59529   -353.29467       374285   -103879.57    9903.1477   -113782.72    399.01418 
    7550    283.04187   -31.525335    373388.05   -103915.79    9746.3536   -113662.14    401.03866 
    7600     286.5377    429.66298    372497.81   -103840.38    9866.7304   -113707.11    403.15814 
    7650    284.71944    343.40343    372777.45    -103870.4    9804.1196   -113674.52    405.20388 
    7700    289.15923   -204.87634    373966.84   -103843.19    9957.0008   -113800.19     409.6143 
    7750    287.16837   -436.88823    374772.35   -103809.85    9888.4468    -113698.3    412.66386 
    7800    283.60778   -104.70063    374561.36   -103848.32    9765.8403   -113614.16    415.33839 
    7850    287.63449    -69.25282    374105.43   -103818.94    9904.4975   -113723.43     417.3168 
    7900    284.39867   -26.328453    373462.75   -103866.59    9793.0741   -113659.67    418.66399 
    7950    285.39107    31.119494    373077.45   -103915.99    9827.2466   -113743.23    421.05798 
    8000    286.54347    294.49085     373361.9   -103900.12     9866.929   -113767.05    423.98432 
    8050    289.01921   -201.75054    373992.11   -103878.09    9952.1793   -113830.27    427.13113 
    8100    284.17211   -281.46415    374353.43   -103923.72    9785.2729      -113709    430.08851 
    8150    285.78592   -214.10679    374015.49    -103865.2    9840.8433   -113706.04    432.26729 
    8200    284.58169   -89.211673    373466.84    -103896.4    9799.3763   -113695.78    434.11189 
    8250    285.32686    107.75331    373092.81   -103907.49    9825.0358   -113732.52    436.17718 
    8300    288.88257     269.6028    373287.44   -103891.62    9947.4744   -113839.09    439.23018 
    8350    282.58445   -30.640479    373793.42   -103948.29    9730.6027   -113678.89    442.83595 
    8400    285.00582   -40.604831    373932.29   -103961.26    9813.9808   -113775.24    446.24225 
    8450    286.03874   -2.0025182    373828.29   -103974.86     9849.549   -113824.41    448.72867 
    8500    286.74143    76.515106    373700.23    -103944.6    9873.7456   -113818.35    451.91308 
    8550     279.4871    61.758174    373836.07   -103980.64    9623.9476   -113604.59    455.23582 
    8600     284.0667    -58.82268    374184.14   -103973.37    9781.6428   -113755.02    458.40945 
    8650    284.59681   -6.5561275    374217.75   -103967.81     9799.897    -113767.7    461.38632 
    8700    284.33802   -63.033616    374031.91   -103965.13    9790.9856   -113756.12    463.42691 
    8750    283.73787     2.861772    373507.14   -103905.86    9770.3201   -113676.18    465.83263 
    8800    280.57856    336.03148    373243.77   -103936.55    9661.5314   -113598.08    468.43157 
    8850    287.45639   -87.594813    373620.11   -103990.89    9898.3647   -113889.25    470.81682 
    8900    283.20705    207.50903    373788.96    -104016.4    9752.0414   -113768.44    473.22717 
    8950    285.92818   -275.42218    373938.03   -103989.89    9845.7419   -113835.64    476.11042 
    9000    283.36151   -119.18864    373808.95   -103980.95    9757.3603   -113738.31    477.86794 
    9050     282.8146   -38.514098    373578.66   -103969.42    9738.5277   -113707.95    479.19618 
    9100    285.49497   -97.205917    373480.89   -104044.82    9830.8245   -113875.65    481.28553 
    9150    284.26713    98.478762    373376.12    -103989.2    9788.5445   -113777.75    483.44498 
    9200    284.45099   -203.46652    373424.19   -104007.61    9794.8759   -113802.49    485.97626 
    9250    279.68914   -216.64382     373266.4   -104049.52    9630.9047   -113680.42    487.78411 
    9300    278.70605    160.27183    373308.74   -104096.41    9597.0526   -113693.47    490.29948 
    9350    281.65248    21.235589    373716.64   -104075.13    9698.5109   -113773.64    492.70273 
    9400    281.91002   -23.873496    374019.05   -104065.77    9707.3792   -113773.15    495.43157 
    9450    282.90301    23.152673    373861.45   -104019.36     9741.572   -113760.93    497.87351 
    9500     286.5508    299.95202    373621.12   -104045.17    9867.1815   -113912.35    500.61121 
    9550    280.50235    80.126344    373601.04   -104028.69    9658.9071    -113687.6    502.75737 
    9600    282.51146    22.616035    373866.35   -104000.12    9728.0894   -113728.21    504.80524 
    9650    285.75138   -50.942759    374138.17   -104018.93    9839.6538   -113858.58    507.65538 
    9700    281.82964   -100.74602    373693.72      -104022    9704.6115   -113726.61    509.78926 
    9750    285.66878    224.12913    373075.94    -104020.7    9836.8095   -113857.51    511.65111 
    9800    281.13352    182.72506    373271.84   -104024.94    9680.6408   -113705.58    514.93129 
    9850    284.54151    101.89165    373737.75   -104021.25    9797.9927   -113819.24    517.70176 
    9900    283.49909    -220.0325    374197.69   -104027.25    9762.0978   -113789.35    520.86518 
    9950    280.89945   -152.66793    373925.55    -103993.7    9672.5808   -113666.28    523.73144 
   10000    280.28617   -126.60791    373235.23   -103979.77    9651.4632   -113631.23    525.93456 
   10050    282.78604   -35.356452    372608.47   -103978.67    9737.5444   -113716.21    526.31522 
   10100     286.7133    129.11955    372627.82   -103953.59    9872.7769   -113826.37    529.03633 
   10150    285.25546    103.38688    373516.44   -103935.49    9822.5771   -113758.06    532.52928 
   10200    288.46592   -348.37334    374336.12   -103930.01    9933.1272   -113863.14    535.17588 
   10250    282.82588   -99.580437    374307.94    -103918.9    9738.9162   -113657.82    537.58394 
   10300    284.16792    39.405971    373784.02   -103898.78    9785.1285   -113683.91    539.66157 
   10350    283.56666    140.95471    373210.54   -103897.08    9764.4244   -113661.51    542.16265 
   10400    286.03712    202.04261    373242.73   -103991.34    9849.4931   -113840.84    545.24671 
   10450    282.87062   -145.34893    373921.02   -103955.61    9740.4567   -113696.07    548.57541 
   10500    284.23518   -41.640576    374244.26   -103952.03    9787.4445   -113739.48    551.28483 
   10550    282.99751   -62.175161    374259.19   -103932.95     9744.826   -113677.77    553.73626 
   10600     290.5106    94.149658    373453.17   -103933.47    10003.534      -113937    555.57597 
   10650    284.09899     135.2046    372973.46   -103910.78     9782.755   -113693.54     558.7314 
   10700    285.87506    -68.85672     373158.6   -103946.55    9843.9125   -113790.46     561.5374 
   10750    284.07982     22.58085    373704.47    -103925.2    9782.0947    -113707.3    564.10602 
   10800    283.72343   -307.81251    374248.94   -103936.99    9769.8228   -113706.81     567.7472 
   10850    286.49903   -90.935288    374324.31   -103876.68    9865.3988   -113742.08    570.27221 
   10900    282.25988    115.16232    374159.91   -103873.95    9719.4264   -113593.38    572.12585 
   10950    280.71683    184.36434    374034.49   -103881.17    9666.2924   -113547.46    575.60588 
   11000    288.98193     -245.316    373904.04   -103927.93    9950.8955   -113878.82    578.25457 
   11050    283.31297   -126.91238    373835.27   -103962.84    9755.6888   -113718.53    580.37997 
   11100    283.11519   -53.619307    373683.49   -103934.77    9748.8785   -113683.65    581.84933 
   11150    287.44571   -17.226125    373427.53    -103953.5    9897.9968    -113851.5    584.13767 
   11200     285.9521    1.1274107     373357.6   -103943.39    9846.5656   -113789.96    588.20577 
   11250    286.29618    29.249419    373505.75    -103977.5    9858.4135   -113835.91    592.52745 
   11300    285.78114    194.84583    373827.79   -103959.88    9840.6787   -113800.56    595.41269 
   11350     282.6507   -33.957081    374305.77   -103997.94    9732.8839   -113730.83    598.22533 
   11400     280.9817   -299.45815    374137.09   -103996.61     9675.413   -113672.02    601.84706 
   11450    281.28355    132.86457    373424.78   -104055.72    9685.8072   -113741.52    604.84709 
   11500    284.48819    208.29745    373064.77   -104049.51    9796.1566   -113845.67    607.26105 
   11550    282.42348   -152.29565    373150.73   -104083.81    9725.0597   -113808.87    609.72837 
   11600    286.19378    53.091879    373242.09   -104067.25    9854.8874   -113922.14    612.85782 
   11650    283.35182    260.52704       373355   -104058.22    9757.0265   -113815.25     614.5723 
   11700    282.37273   -1.6734379    373994.89   -104016.34    9723.3121   -113739.65    617.13167 
   11750    285.34422   -188.53422    374070.97   -104042.42    9825.6335   -113868.05    618.84014 
   11800    282.20781    56.990563    373692.47   -104062.02    9717.6334   -113779.65    621.41723 
   11850    283.60422    77.050155    373417.58   -103977.38    9765.7179    -113743.1    624.95038 
   11900    280.78449    237.50874    373258.82    -104066.5    9668.6224   -113735.12     627.6474 
   11950    281.82701    48.093967     373372.5   -104059.06    9704.5208   -113763.58    630.14376 
   12000    284.25674    155.58838    373608.59   -104067.89    9788.1868   -113856.08    632.23078 
   12050     282.6966   -270.61735    373764.94   -104060.37    9734.4646   -113794.83    634.91144 
   12100    284.51628    33.124308    373641.36   -104025.16    9797.1239   -113822.28    637.28755 
   12150    283.01903    27.766825    373330.01   -104010.05    9745.5673   -113755.61    639.61152 
   12200    282.19108    269.97232    373290.06   -104019.49    9717.0571   -113736.55    642.98293 
   12250    284.35979   -126.06805    373607.23   -103961.79    9791.7355   -113753.53    646.82657 
   12300    281.76119    3.1029833    373635.65   -103975.51    9702.2542   -113677.77    650.28305 
   12350    284.18885    -133.5553    373406.77   -104006.59     9785.849   -113792.44     651.7388 
   12400    283.76562   -35.276501    373323.17   -104051.16    9771.2755   -113822.44    654.33222 
   12450    285.85131   -63.631993    373591.12   -104021.42     9843.095   -113864.51    657.79036 
   12500    280.58829    106.41216    373863.24   -103971.18    9661.8664   -113633.04    660.67462 
   12550    287.15241    71.244681     373804.7   -104035.08    9887.8972   -113922.98    662.80021 
   12600    283.61347    20.784343    373817.12   -103978.32    9766.0365   -113744.36    665.53871 
   12650    287.66504   -85.925746    373508.27   -103986.85    9905.5494    -113892.4    667.54985 
   12700    281.97023    28.254802    372922.15   -103965.82    9709.4524   -113675.27    669.40854 
   12750    284.02533    61.833686    372790.54   -104021.07    9780.2185   -113801.29    671.85197 
   12800    277.52336    21.356114    373202.45   -104038.97    9556.3275    -113595.3    674.43221 
   12850    282.63557   -113.74875    373817.73    -104025.9    9732.3631   -113758.26    677.80953 
   12900    281.64206    9.5489313    374035.23   -104004.94    9698.1523   -113703.09    680.20568 
   12950     283.8767   -82.828018     374010.7   -104019.99    9775.1005   -113795.09    681.97679 
   13000    281.10665    121.47707    373770.53   -103995.39    9679.7158   -113675.11     684.5134 
   13050    280.55697    117.49216    373228.18   -103970.31    9660.7878    -113631.1    686.38256 
   13100    283.85205    64.068773    373118.69   -103945.14    9774.2516   -113719.39    689.15341 
   13150    284.53658    67.346222    373395.33    -103984.3     9797.823   -113782.13    691.51184 
   13200    282.29214    -128.8185    373903.01   -103988.03    9720.5372   -113708.57    695.09096 
   13250    286.72775   -211.48825    373956.08   -104062.28    9873.2743   -113935.55    698.14264 
   13300    285.43605    149.08922     373448.8    -104049.5    9828.7957   -113878.29    699.48145 
   13350    280.78274    133.43077    373258.05   -104017.36     9668.562   -113685.92    701.53722 
   13400    286.62043   -15.033261    373458.54   -104066.67     9869.579   -113936.25    704.61993 
   13450    279.98962    38.920901    373842.26   -104087.33    9641.2515   -113728.58     707.5609 
   13500     281.5431   -42.350634    374059.79   -104037.07    9694.7445   -113731.81    709.81325 
   13550    283.33627    -68.86253    373701.44   -104135.08    9756.4911   -113891.57    712.21145 
   13600    281.03349     40.40957    373092.32   -104138.59    9677.1964   -113815.79    713.80574 
   13650    277.10878    296.01721    372685.28   -104142.09    9542.0518   -113684.14     716.9538 
   13700    284.63802    87.306103    372789.43   -104139.02    9801.3159   -113940.34    718.17772 
   13750     282.4863     -66.5505       373366   -104124.08    9727.2228    -113851.3    722.25971 
   13800    282.05729   -42.507555    374068.51   -104180.26    9712.4504   -113892.71    726.26815 
   13850    280.30892   -234.78172    374259.48   -104160.36    9652.2463   -113812.61    729.30861 
   13900    278.28123    59.806319    373530.64   -104124.33    9582.4244   -113706.76    730.74564 
   13950    281.07986    262.74159    372608.75    -104154.4    9678.7932    -113833.2    731.43917 
   14000    281.51837    178.97477    372626.98   -104095.34     9693.893   -113789.23    733.76625 
   14050    284.21613    77.085008    373115.48   -104093.03    9786.7885   -113879.81    736.24801 
   14100    281.37373    58.786547    373649.24   -104079.46    9688.9123   -113768.37    739.24884 
   14150    280.44432   -200.24882    373973.16   -104068.36    9656.9087   -113725.26     742.1893 
   14200    282.44965    116.01727     373739.4   -104057.95    9725.9608   -113783.91    744.33841 
   14250      279.894    133.44475    373642.58   -103971.97    9637.9588   -113609.93    746.34649 
   14300    282.18641   -54.312653    373817.56   -103991.88    9716.8964   -113708.77    748.82637 
   14350    283.74871    66.571875    373900.64   -104002.53    9770.6934   -113773.23     751.7937 
   14400    282.87826   -293.04465    373764.03   -103963.71    9740.7197   -113704.43    753.79185 
   14450    281.69267    121.62073    372896.74   -104023.28    9699.8948   -113723.18    755.21642 
   14500    280.81173    32.533117    372485.59   -104037.78    9669.5603   -113707.34    757.64346 
   14550     282.2572    29.192281    372844.33   -104091.95    9719.3342   -113811.28     760.5155 
   14600    281.72748    -159.9764    373702.26   -104083.97    9701.0937   -113785.06    764.89349 
   14650    282.37025   -31.429403     374371.1   -104091.81    9723.2268   -113815.04    768.05655 
   14700    284.86732   -458.52958    374652.48   -104053.09    9809.2117    -113862.3    771.79984 
   14750    283.98358   -50.074287    373952.59   -104066.69    9778.7809   -113845.47    773.21912 
   14800    283.59497     63.05451    373361.02   -104123.84    9765.3994   -113889.24    775.34572 
   14850    279.44262    80.517503    373098.52      -104132     9622.416   -113754.42    778.66837 
   14900     280.9577    38.347962    372958.39   -104122.91    9674.5868    -113797.5    780.81757 
   14950    283.21878   -192.75754    373112.46   -104221.11    9752.4453   -113973.55    783.70716 
   15000    281.34718    61.828086    373111.25   -104211.38    9687.9982   -113899.38    786.61498 
   15050    277.42106   -32.180396    373297.04   -104204.59     9552.805    -113757.4    790.03133 
   15100    281.62777   -73.035458    373524.43   -104179.35    9697.6601   -113877.01    792.21457 
   15150    283.62116   -165.82299    373565.72   -104173.83    9766.3013   -113940.13    794.23027 
   15200    282.63762    161.23671    373257.48   -104186.67    9732.4337    -113919.1    795.32044 
   15250    277.53933    261.78201    373226.02   -104200.63    9556.8773   -113757.51    796.98227 
   15300    283.38719   -83.878615    373659.43   -104162.79    9758.2444   -113921.04    799.81526 
   15350    283.69594   -214.49601    373964.02   -104142.92    9768.8761   -113911.79    803.61828 
   15400    286.01132   -81.464639    373789.44   -104115.64    9848.6048   -113964.25    805.53706 
   15450     280.9345    20.057866    373260.47   -104128.37    9673.7877   -113802.16    807.22321 
   15500    282.42418    291.52298    372786.97   -104104.58    9725.0841   -113829.66     809.0531 
   15550    281.07658    103.70295    373147.57   -104127.51    9678.6801   -113806.19    812.69519 
   15600     281.6763   -69.831784    373899.52   -104117.39    9699.3311   -113816.72    815.70802 
   15650     284.0407   -131.89768    374276.92   -104123.44    9780.7477   -113904.19     819.9394 
   15700    281.22065    147.12133    374131.01   -104077.33    9683.6413   -113760.98    823.14812 
   15750    280.73657   -219.07465     373852.2   -104080.65    9666.9722   -113747.62     825.5779 
   15800    279.55981     124.9028    373149.97   -104056.79    9626.4514   -113683.25    827.30313 
   15850    282.65132    465.42702     372610.7   -104042.63    9732.9055   -113775.54    829.49952 
   15900    282.86043    448.73039    373052.68   -104062.58     9740.106   -113802.68    832.84444 
   15950     281.2489   -110.09196    374101.47   -104019.73     9684.614   -113704.35     836.5474 
   16000    284.25994   -280.47603    374500.14    -103985.4     9788.297    -113773.7    840.03661 
   16050    280.94765    107.71154    374112.54   -103943.63    9674.2407   -113617.87    842.41848 
   16100    280.98997    47.076658    373484.75   -103927.83    9675.6977   -113603.52     844.4591 
   16150    283.20934    326.34529    373014.56   -103929.92    9752.1204   -113682.04    845.62692 
   16200    285.25968   -42.594779    373073.75   -103887.91    9822.7223   -113710.63    848.30749 
   16250    288.49968    64.283924    373371.42   -103876.35    9934.2896   -113810.64    851.42468 
   16300       281.86   -96.689369    373840.68   -103881.39    9705.6569   -113587.05    855.19858 
   16350    283.18512    42.873019    373997.99   -103898.04    9751.2865   -113649.33    856.98009 
   16400    288.53486   -51.205914    373819.84   -103877.82    9935.5009   -113813.32    857.30179 
   16450    284.76816   -264.94507    373609.93   -103921.81    9805.7975   -113727.61    858.27995 
   16500    288.28852   -40.600144    373057.76   -103902.25    9927.0186   -113829.27    859.04696 
   16550     290.2997    49.187827    372895.81   -103866.56    9996.2721   -113862.84    861.09287 
   16600    286.99129   -7.0128626    373705.81   -103843.32    9882.3493   -113725.67    864.68781 
   16650    290.44405     -170.753     374633.5   -103794.72    10001.243   -113795.96     869.4071 
   16700     284.3553   -118.25547    374572.16   -103842.01    9791.5806   -113633.59     872.3227 
   16750    286.18589    205.66865    373759.58   -103853.03    9854.6159   -113707.64     872.7507 
   16800    284.68184    311.74124    373283.25   -103896.38    9802.8251    -113699.2    872.68024 
   16850    285.07202    2.5293902    373311.22    -103945.1    9816.2605   -113761.36    874.90517 
   16900    286.36644    48.830692       373569   -103933.81    9860.8328   -113794.64    877.86791 
   16950     284.2812   -23.222559    373607.02   -103900.76    9789.0291   -113689.78    880.59373 
   17000    283.62255   -34.368246    373422.89   -103930.87     9766.349   -113697.22    883.34914 
   17050    282.74229    22.706895    373336.34   -103877.06     9736.038    -113613.1    885.84707 
   17100    282.97706    125.41748    373931.66   -103904.54    9744.1219   -113648.66     889.4212 
   17150    289.36683   -177.05439    374399.78   -103830.57    9964.1495   -113794.72    893.39876 
   17200    284.46202    80.474902    374418.05   -103767.15    9795.2557   -113562.41    897.05471 
   17250     287.2003   -122.72731    374308.51    -103789.1    9889.5464   -113678.65    899.90886 
   17300    289.26523    136.05472    373975.96   -103731.19    9960.6508   -113691.84    902.04145 
   17350    287.01941   -12.389229     373687.9   -103776.46    9883.3174   -113659.77    904.25953 
   17400    286.40689   -25.293072    373967.72    -103805.8    9862.2257   -113668.03    907.37304 
   17450    286.29083    129.47922     374262.8   -103788.19    9858.2295   -113646.42    910.17224 
   17500    284.92438   -174.45369    374577.63   -103834.58    9811.1766   -113645.76     913.1565 
   17550    281.78882   -203.94513    374138.05   -103895.99    9703.2058   -113599.19    915.39768 
   17600    286.74613    165.87439    373188.55   -103857.47    9873.9073   -113731.38    916.73424 
   17650    287.51307    157.91606     372891.2   -103827.43    9900.3165   -113727.74    918.17611 
   17700    286.38852   -21.065089    373466.98   -103789.96    9861.5933   -113651.55    920.65055 
   17750    285.77017   -87.475255    374282.41   -103768.45    9840.3009   -113608.75    925.06759 
   17800    286.71611    -40.17546    374678.29   -103768.86    9872.8738   -113641.73    929.03426 
   17850    285.33307   -198.06095    374493.34   -103804.24    9825.2496   -113629.49    930.66334 
   17900    286.49821    102.51778    373933.88   -103834.39    9865.3704   -113699.76    931.95203 
   17950    285.23338   -144.60024    373804.91   -103864.42    9821.8169   -113686.24    933.98478 
   18000    285.15048    71.684506    373508.94   -103935.02    9818.9622   -113753.98    935.79529 
   18050     283.9269    102.32521    373440.15   -103964.88    9776.8292   -113741.71    939.43231 
   18100     283.9957      33.0239    373384.07   -104007.35     9779.198   -113786.55    941.55025 
   18150    285.50784    46.058951    373503.88   -104045.92    9831.2677   -113877.19    944.49532 
   18200    283.44987    239.44635    373919.35   -103978.89     9760.403   -113739.29    948.14652 
   18250    283.05707   -58.963064    374509.48   -103906.18    9746.8772   -113653.06    951.67458 
   18300    280.59521   -326.90582    374593.94   -103890.62    9662.1047   -113552.73    955.27315 
   18350    284.71068   -123.71003    373684.57   -103875.03    9803.8179   -113678.85     955.9372 
   18400    285.41538    229.43176     372988.1    -103877.9    9828.0838   -113705.99     956.4467 
   18450    288.35678    90.384526    373345.38   -103916.91    9929.3691   -113846.28    960.40928 
   18500    284.68832    142.14929    374349.21   -103890.92     9803.048   -113693.96    965.76961 
   18550    286.82791    -244.9211    374873.95   -103841.19    9876.7233   -113717.91    969.22703 
   18600    284.99101   -28.956857     374500.5   -103820.49     9813.471   -113633.96    970.82224 
   18650    284.59636   -142.42905    373666.69   -103836.85    9799.8813   -113636.73    972.19438 
   18700    288.35818    223.86553    373287.06   -103859.39    9929.4172   -113788.81    973.42535 
   18750    285.93234   -28.227623    373541.74   -103796.89    9845.8851   -113642.77    976.60715 
   18800    284.58894    120.69045     374038.5   -103777.77    9799.6261    -113577.4    978.36595 
   18850     286.5194   -257.11492    374594.77   -103827.53    9866.0999   -113693.63    981.71466 
   18900    285.67854    53.678984    374367.11   -103839.21    9837.1456   -113676.35    983.67313 
   18950    285.67913   -246.89628    373858.75   -103883.22     9837.166   -113720.39    985.22092 
   19000    282.35304    89.233506    373349.83    -103854.8    9722.6344   -113577.44    985.72518 
   19050     281.8878    19.202653    373287.24   -103820.44     9706.614   -113527.05    987.27599 
   19100    284.06247    251.38973     373435.8   -103838.65    9781.4974   -113620.14    990.18891 
   19150    287.35344   -72.364479    373953.06   -103838.47    9894.8197   -113733.29    994.60815 
   19200    286.22853   -63.888322    374269.43   -103860.62    9856.0841   -113716.71    999.68696 
   19250    284.09399    72.601319    373907.97   -103841.82    9782.5826   -113624.41    1002.5934 
   19300    281.58357    4.8382539    373449.94   -103858.31    9696.1379   -113554.45    1003.0854 
   19350    292.56073    315.23371    373169.45   -103909.63    10074.129   -113983.76    1004.6729 
   19400    285.64223   -282.84961     373749.2   -103911.62    9835.8954   -113747.52    1008.9049 
   19450    283.18252   -116.49119    374185.95   -103948.32    9751.1967   -113699.52    1014.2441 
   19500    282.76594    7.6661839     373837.3   -104005.39    9736.8523   -113742.24     1016.187 
   19550    280.67871   -17.590688    373396.95   -103931.74    9664.9798   -113596.72    1017.4541 
   19600    282.84432   -23.439538    373265.41   -103923.69    9739.5512   -113663.24    1019.0374 
   19650    286.25747    145.69263    373346.82   -103878.46    9857.0807   -113735.54    1022.0969 
   19700    282.09795     178.5819    373849.64   -103820.47    9713.8503   -113534.32    1026.4316 
   19750    282.10853   -154.25987    374581.83   -103839.43    9714.2148   -113553.65    1029.3355 
   19800    286.05182    -123.9713    374492.85   -103861.04    9849.9993   -113711.04    1031.4098 
   19850    285.47133    106.62285     373918.6   -103834.05    9830.0105   -113664.06    1033.0251 
   19900    286.31151     244.0675    373449.69   -103778.87    9858.9414   -113637.81     1035.884 
   19950    283.77741    95.093238    373543.43   -103776.73    9771.6815   -113548.41    1039.2018 
   20000    285.24585    32.974675    373776.05   -103745.02    9822.2463   -113567.26     1042.531 
   20050    283.44376    52.957333    373977.36   -103782.66    9760.1925   -113542.85    1045.6469 
   20100    284.37093    195.70153    374455.43   -103818.36    9792.1188   -113610.47    1047.5972 
   20150    285.99805   -142.64554    374732.96   -103845.16    9848.1475   -113693.31    1049.2952 
   20200     285.9401   0.32137949    374223.36   -103840.94    9846.1523   -113687.09     1050.654 
   20250    291.05052   -226.02551    373734.77    -103863.5    10022.126   -113885.63    1051.3775 
   20300    288.11955   -7.0996221    373346.42   -103844.36    9921.2001   -113765.56    1053.0948 
   20350    288.90218    46.541169    373225.37   -103838.41    9948.1494   -113786.56    1055.3726 
   20400    285.30514    18.901947     373651.6   -103783.84     9824.288   -113608.12    1058.3613 
   20450    287.34677   -146.92034    374420.27   -103727.23      9894.59   -113621.82    1062.1453 
   20500    285.84843    47.715313    374645.68   -103731.77    9842.9956   -113574.77    1064.6964 
   20550    288.52181    30.932487    374353.12   -103716.19    9935.0516   -113651.24    1065.9434 
   20600    284.74514    153.79344    373595.22   -103707.35    9805.0047   -113512.35    1067.1926 
   20650    287.56694    161.55116     373212.4   -103662.78    9902.1712   -113564.95    1068.7362 
   20700    286.23486     233.1823    373411.24   -103750.86    9856.3022   -113607.17    1071.2118 
   20750    289.08517   -81.723132    374168.22   -103750.27    9954.4504   -113704.72    1074.9513 
   20800    284.56982   -1.9775188    374827.14   -103727.66    9798.9676   -113526.62    1078.8735 
   20850     288.2414   -110.90358    374876.92   -103733.83    9925.3958   -113659.22    1081.9762 
   20900    288.44972   -174.61208    374311.89    -103638.2    9932.5693   -113570.77    1084.1821 
   20950    289.20324    90.717891     373309.2   -103707.27    9958.5163   -113665.79    1083.7839 
   21000    288.45943      182.558    372958.16    -103745.1    9932.9037   -113678.01    1084.2943 
   21050    286.56738    88.485741    373610.84   -103706.49    9867.7523   -113574.25    1088.3533 
   21100    287.10493   -394.02048    374786.58   -103683.19    9886.2623   -113569.46    1092.7874 
   21150    286.24339   -433.76701    375132.21   -103725.26    9856.5957   -113581.86    1096.4311 
   21200    288.30424   -193.22499     374272.2   -103755.63    9927.5597   -113683.19    1097.0367 
   21250    288.41681   -57.142753    372995.82   -103790.99     9931.436   -113722.43    1096.5036 
   21300    289.93981    75.964957    372492.18   -103791.05    9983.8794   -113774.93    1096.5948 
   21350    286.84248    277.28202    372797.69    -103878.1     9877.225   -113755.33    1098.9088 
   21400    284.97863   -112.57801    373740.44   -103870.46    9813.0448   -113683.51    1103.3869 
   21450    282.57622   -98.692638    374238.92   -103850.25    9730.3194   -113580.57    1107.0239 
   21500    287.21314   -181.68047    374227.22   -103821.76    9889.9887   -113711.75    1109.4627 
   21550     287.6555    86.605203    373819.56   -103825.35     9905.221   -113730.57    1110.0228 
   21600    288.33322    62.258103    373573.25   -103892.53    9928.5576   -113821.09    1110.7835 
   21650    288.55746   -91.576807    373666.45   -103898.89    9936.2792   -113835.17    1113.6186 
   21700    284.35303   -123.71407    373625.78   -103869.32    9791.5026   -113660.82    1116.6668 
   21750    282.14549    16.438434    373567.38   -103861.42    9715.4874   -113576.91    1119.9675 
   21800    289.18117    64.024486    373558.59   -103883.83    9957.7564   -113841.59    1123.1987 
   21850    289.15148    71.340009    373693.36   -103886.53    9956.7341   -113843.27    1126.1171 
   21900    286.05479    -123.8891    373940.53   -103869.88    9850.1014   -113719.98    1129.9775 
   21950     288.7351    -191.5595    374036.09   -103884.72    9942.3962   -113827.12    1133.0007 
   22000    286.81686    60.414382    373813.01   -103832.82    9876.3429   -113709.16    1134.3254 
   22050    285.85955     118.1478    373616.97   -103812.01    9843.3786   -113655.39    1136.7637 
   22100     288.3186   -10.020572     373954.3   -103802.63    9928.0543   -113730.68     1140.065 
   22150    285.37317   -228.70589     374393.6   -103795.09    9826.6304   -113621.72    1143.0379 
   22200    284.76024    137.60723    374036.81   -103769.15    9805.5244   -113574.67    1144.2049 
   22250    287.96845    190.09649    373562.12    -103801.8    9915.9972    -113717.8    1146.1278 
   22300    289.04822    46.347304    373695.23   -103834.41    9953.1783   -113787.59    1148.5806 
   22350    286.77821     42.09094    374346.77   -103845.91    9875.0121   -113720.92    1150.9458 
   22400    282.73498    -97.02965    374643.27   -103867.05    9735.7862   -113602.84    1154.3033 
   22450    286.64905   -297.83166    374379.75   -103841.08    9870.5643   -113711.64     1156.213 
   22500    286.64906     118.3778     373584.5   -103751.44    9870.5648      -113622    1157.2347 
   22550    285.77326    92.775053    373116.96   -103793.81    9840.4071   -113634.22    1158.1419 
   22600    286.59289    178.24961     373327.9   -103835.58    9868.6307   -113704.21    1161.3555 
   22650    284.72499   -273.65421    374052.69   -103795.44    9804.3108   -113599.75    1165.7913 
   22700    287.01327   -124.29065    374315.96   -103812.82    9883.1062   -113695.93    1168.3411 
   22750    286.99033        135.6    374121.47   -103787.24    9882.3161   -113669.55    1170.2758 
   22800    284.73272    287.37783    373898.03   -103805.31     9804.577   -113609.89    1172.0281 
   22850    288.27863   -57.115562    373732.63   -103799.77    9926.6778   -113726.45    1174.1148 
   22900    286.30956   -75.506327    373745.81   -103741.23    9858.8743    -113600.1    1176.7019 
   22950     288.0094    59.928373    373909.43   -103749.66    9917.4073   -113667.06    1179.8141 
   23000    284.93943    120.56339    373930.32   -103824.44    9811.6947   -113636.14    1181.7996 
   23050    284.46483    112.20445    373875.89   -103789.89    9795.3524   -113585.24    1183.9957 
   23100    287.46058   -30.895711    374038.89   -103850.55     9898.509   -113749.06    1186.3458 
   23150    286.24259   -157.82438    374279.02   -103856.74    9856.5684   -113713.31    1188.5997 
   23200    283.97131   -231.63002    374275.25   -103806.89    9778.3582   -113585.25    1192.2574 
   23250    285.02127    91.119384    373902.65   -103789.71    9814.5128   -113604.22    1194.9314 
   23300    288.14321   -37.877848    373767.54   -103817.69    9922.0149    -113739.7     1196.309 
   23350    284.89533    5.8300774    373833.35   -103826.47    9810.1762   -113636.64    1199.1927 
   23400    289.64081   -36.542827    374078.26   -103820.55    9973.5838   -113794.13    1203.7571 
   23450    291.26157    4.9225377    374018.16   -103851.65    10029.393   -113881.04    1204.9088 
   23500    282.91102   -131.71005    373775.76   -103874.01    9741.8481   -113615.85    1206.3579 
   23550    287.41069    116.47336    373266.79    -103893.6    9896.7911   -113790.39    1207.9312 
   23600    286.77843    309.35294    373230.42   -103889.02    9875.0197   -113764.04    1212.2488 
   23650    288.89745   -155.28968    374198.26    -103943.8    9947.9865   -113891.79    1218.0809 
   23700    280.59906   -101.46513    374925.29    -103957.3    9662.2373   -113619.53    1222.4646 
   23750    281.02259     -404.669    374880.07   -103938.83    9676.8211   -113615.65    1225.2138 
   23800    286.28812   -31.190774    373851.13   -103917.11    9858.1362   -113775.24     1225.869 
   23850    284.89157   -101.82155    372889.06   -103883.53    9810.0469   -113693.58    1226.8504 
   23900    286.56201    175.52741    372626.85   -103897.28    9867.5671   -113764.85    1229.4119 
   23950     282.5468    70.671248    373162.99      -103956    9729.3062    -113685.3    1233.5924 
   24000    285.06463   -91.619185    373957.87   -103936.57     9816.006   -113752.57    1237.1318 
   24050    284.21028   -12.859852    374251.64      -103918    9786.5871   -113704.59    1239.1086 
   24100    284.46469     -266.307    374037.37   -103925.21    9795.3475   -113720.56    1240.0719 
   24150     286.5935    328.37914     373467.2   -103895.37    9868.6518   -113764.02    1240.3812 
   24200    284.52375    129.80823       373553   -103912.25    9797.3813   -113709.63    1243.2429 
   24250    284.92974    25.986184    373956.85   -103840.18    9811.3613   -113651.54    1247.1228 
   24300    284.93842    -291.0633    374346.18   -103859.53      9811.66   -113671.19    1250.4097 
   24350    283.93863    171.81411    374119.45   -103899.64    9777.2331   -113676.87    1252.9328 
   24400    283.03311   -225.19104    373798.14   -103926.85    9746.0522    -113672.9     1253.574 
   24450    283.02846   -68.193153     373476.6    -103915.8     9745.892   -113661.69    1254.0329 
   24500    282.92366    87.807079    373401.08   -103930.14    9742.2833   -113672.43    1256.6025 
   24550    284.32777   -265.79732    373790.25   -103936.97    9790.6327    -113727.6    1260.2817 
   24600     284.0458   -8.9351564    374236.39   -103988.41    9780.9233   -113769.34    1262.3893 
   24650    281.77937    89.193364    374412.94   -103981.94    9702.8802   -113684.82    1265.3105 
   24700    283.37879    111.72517    374036.24   -103986.96    9757.9553   -113744.91    1267.7519 
   24750    282.62598    90.387487    373596.61   -103949.37    9732.0327    -113681.4    1268.9238 
   24800    287.19711   -21.922475    373374.07   -103997.92    9889.4367   -113887.35    1270.8355 
   24850    287.35627   -206.13087    373505.14   -103977.27    9894.9172   -113872.18    1274.8955 
   24900    283.22817    49.729071    373583.03   -104020.89    9752.7688   -113773.65    1277.1565 
   24950    283.55814   -116.52051    373680.08   -104018.21    9764.1309   -113782.34    1279.6013 
   25000    284.52688    177.47939    373728.91   -103993.88     9797.489   -113791.37    1282.2328 
   25050    287.03757   -164.33019    374142.12   -103991.84    9883.9428   -113875.79    1285.7742 
   25100    281.07494   -229.22116    374047.91   -103991.44    9678.6238   -113670.06    1287.5862 
   25150    283.67356    53.813232    373701.17    -103964.5    9768.1055   -113732.61    1291.4834 
   25200    284.72525   -174.03449    373596.07   -103918.14    9804.3197   -113722.46     1294.256 
   25250    281.55856    121.92419    373557.84   -103933.09    9695.2768   -113628.37    1295.4871 
   25300    285.17699    154.97769    373609.94   -103866.57    9819.8751   -113686.44    1297.9243 
   25350    282.40473   -44.833997    373678.19    -103908.7    9724.4142   -113633.11    1301.8287 
   25400    283.76981   -189.86921    373637.41   -103915.57    9771.4197   -113686.99    1303.5214 
   25450    281.47681    14.671028    373768.57   -103935.66    9692.4618   -113628.13    1305.8834 
   25500    283.50498   -87.051249    374265.01   -103967.18    9762.3006   -113729.48    1308.3347 
   25550    288.65473   -26.355299    374377.88    -103976.8    9939.6286   -113916.43     1309.479 
   25600    286.51353   -98.403399    374006.94   -103987.02    9865.8978   -113852.92    1311.1097 
   25650    286.48624   -6.5989953    373480.63   -103962.35    9864.9584    -113827.3    1313.6841 
   25700    282.44066   -19.086005    373168.43      -103941    9725.6514   -113666.65    1316.6025 
   25750    287.20135   -84.908919    373495.94    -103967.4    9889.5826   -113856.98    1320.6886 
   25800    282.20288    -160.6665    374008.32   -103948.56    9717.4636   -113666.03    1324.7486 
   25850    285.28405    -326.4331    374273.21   -103939.11    9823.5618   -113762.67    1327.4496 
   25900    287.04427   -39.839619     373775.3   -103974.49    9884.1735   -113858.67    1327.8886 
   25950    280.27441     63.54048    373500.52   -103992.39    9651.0582   -113643.45    1328.7019 
   26000    282.96495    76.067919    373478.67   -104027.69    9743.7048    -113771.4     1331.504 
   26050    285.10731   -191.38853    373480.82   -104030.69    9817.4756   -113848.16     1334.156 
   26100    284.37781    -156.8216    373572.35   -104035.76    9792.3559   -113828.11    1336.9579 
   26150    280.49239    80.219441    373836.33   -103981.81     9658.564   -113640.37    1340.7435 
   26200    283.09225     30.47237    373933.42   -103947.15    9748.0885   -113695.24    1343.4111 
   26250    287.58285   -116.54236    373646.44   -103939.85    9902.7193   -113842.57    1344.5686 
   26300    283.52981    127.90578    373317.69   -103922.22    9763.1557   -113685.38    1345.9487 
   26350    286.75628    177.64374    373208.04   -103870.06    9874.2567   -113744.31    1347.9659 
   26400    281.39628   -164.08267     373918.2   -103887.88    9689.6887   -113577.57    1350.6446 
   26450    286.97938   -336.94358    374401.98   -103923.23    9881.9392   -113805.17    1353.5057 
   26500    282.41656   -154.74291    374071.53   -103889.11    9724.8215   -113613.94    1354.5878 
   26550     280.7797   -86.202368    373332.98   -103940.18    9668.4575   -113608.63    1356.8512 
   26600      288.086    267.16278    372661.86   -103930.98    9920.0449   -113851.02    1357.8158 
   26650     285.1836    210.60476    372731.97    -103960.6    9820.1028    -113780.7    1360.8295 
   26700    286.27559    114.50147    373565.45   -104024.83    9857.7045   -113882.53    1365.3016 
   26750    284.92495   -244.32686    374304.88   -104058.89    9811.1964   -113870.09    1372.9086 
   26800    282.68624   -165.15928    374418.36   -104051.79    9734.1077    -113785.9    1377.2156 
   26850    279.87047    27.245009     373853.7   -104110.77    9637.1486   -113747.92    1377.7723 
   26900    282.44317    140.60857    373244.39   -104131.23    9725.7377   -113856.97    1378.6777 
   26950    285.37182    45.073186    373113.07   -104131.71    9826.5838    -113958.3    1381.0919 
   27000    283.87634   -121.82312    373404.72    -104136.1    9775.0882   -113911.18    1381.8748 
   27050    284.09717   -182.96566    373829.62   -104146.16    9782.6921   -113928.86    1385.5006 
   27100    281.81357   -62.947222    374217.45   -104178.18    9704.0579   -113882.23    1388.0944 
   27150    284.86409   -127.00793     374234.8   -104072.84    9809.1007   -113881.94    1391.6298 
   27200     286.7859   -217.31809    374044.27   -104057.86    9875.2767   -113933.14     1393.233 
   27250    284.23459   -12.677259     373575.7   -104071.37     9787.424   -113858.79    1394.4329 
   27300    281.94408    173.73255    373034.38   -104060.14    9708.5519    -113768.7    1396.1345 
   27350    282.56414    -43.27384    373059.83   -104048.69    9729.9033    -113778.6    1399.3046 
   27400    285.51745   -28.801809    373155.36   -104014.61    9831.5987   -113846.21    1401.6601 
   27450    286.62625    63.207966    373388.71   -103979.79    9869.7793   -113849.57    1404.3526 
   27500     281.4727   -246.97475    374016.33   -103935.18    9692.3203    -113627.5    1408.6046 
   27550    283.05177    2.2521862     374148.5   -103889.44    9746.6947   -113636.13    1411.3731 
   27600    284.28562   -131.79634    373964.08   -103866.45    9789.1812   -113655.63     1413.477 
   27650    286.38584    103.88796    373801.31   -103922.76     9861.501   -113784.26    1416.7029 
   27700    282.72797    14.159276     373753.1    -103919.1    9735.5446   -113654.65    1419.2053 
   27750    285.99879   -81.666566    374086.45   -103892.57    9848.1733   -113740.74    1421.9488 
   27800    286.14318   -26.617416    374063.77    -103937.6    9853.1451   -113790.75    1424.2693 
   27850    286.33393   -212.61134     373583.5   -103906.63    9859.7136   -113766.34    1424.8402 
   27900    286.35722    72.893161    373114.41   -103824.19    9860.5154   -113684.71    1427.0172 
   27950    287.83273    261.07952    373042.95   -103835.66    9911.3235   -113746.98    1429.2805 
   28000     284.8698     124.9687    373959.01   -103853.66    9809.2971   -113662.96     1433.907 
   28050    286.79021   -273.71765    374919.51   -103814.78    9875.4252    -113690.2    1439.4576 
   28100    288.59991   -324.61167    375026.34   -103831.12    9937.7411   -113768.86    1442.2748 
   28150    285.72732   -6.7850695    373848.79   -103862.43    9838.8254   -113701.26    1440.9446 
   28200    281.84282    252.82562    372867.46   -103885.27    9705.0652   -113590.33    1439.2368 
   28250    284.12431    317.87991    372471.79   -103836.46    9783.6266   -113620.08    1439.8982 
   28300    286.75474   -24.220477    372867.17   -103843.78    9874.2038   -113717.99    1443.3295 
   28350    283.60371   -59.199131    373893.36    -103884.4    9765.7002    -113650.1    1448.3687 
   28400    286.86185   -188.43528    374674.49   -103873.29     9877.892   -113751.18    1452.6267 
   28450    289.02894   -382.18053    374806.37   -103852.19    9952.5144    -113804.7    1456.0421 
   28500     287.9757    40.417373    374281.12    -103808.1    9916.2466   -113724.35    1455.8683 
   28550    289.42258   -63.128523    373643.81   -103757.72    9966.0691   -113723.79    1457.4112 
   28600    280.52646   -31.118503    373073.66    -103705.9    9659.7373   -113365.64    1460.3692 
   28650     291.9554    212.96383    373203.02   -103733.68    10053.285   -113786.96    1463.6919 
   28700    287.98847   -31.812473    374189.23   -103677.94    9916.6865   -113594.63    1468.5737 
   28750    286.08977   -21.881336    375096.85   -103725.05    9851.3062   -113576.36    1475.5018 
   28800    285.33486   -318.68811    375270.59   -103804.41    9825.3113   -113629.72    1478.3934 
   28850    286.39927    34.190882    374130.38   -103816.06    9861.9633   -113678.02    1475.9898 
   28900    287.93734   -18.550975    373135.14   -103824.02    9914.9259   -113738.95    1474.7638 
   28950    285.53225    310.34388     372910.3      -103833    9832.1083   -113665.11    1476.7541 
   29000    289.95077    70.427029    373480.54   -103891.67     9984.257   -113875.93    1481.2189 
   29050    287.94091   -290.23469    374199.63   -103888.41    9915.0488   -113803.46     1486.374 
   29100    284.01421   -120.05913    374322.46   -103871.04    9779.8354   -113650.88    1489.2878 
   29150    285.14052   -99.553704     374160.9   -103882.58    9818.6192    -113701.2    1493.0205 
   29200    284.93437    78.453501    373902.79   -103859.67    9811.5207   -113671.19    1494.8172 
   29250    285.40974   -9.5471143    373955.47   -103820.85    9827.8896   -113648.74    1496.2594 
   29300    281.25238   -267.63808    374194.36   -103869.74    9684.7339   -113554.47    1499.4736 
   29350    281.16698   -151.39504     373905.9   -103885.71     9681.793    -113567.5    1503.1194 
   29400    284.02792    102.10515    373564.83   -103924.89    9780.3077    -113705.2    1506.6395 
   29450    289.90332    67.527552    373463.43   -103911.79    9982.6232   -113894.41    1508.6692 
   29500    284.28605  -0.60266976    373541.17   -103923.53    9789.1961   -113712.73    1511.3441 
   29550    289.36397    86.757521    373504.23   -103894.09    9964.0508   -113858.14    1513.7578 
   29600    283.61771   -75.714044    373610.05    -103851.1    9766.1824   -113617.29    1516.9803 
   29650    287.81481    21.583466    373998.28    -103845.4    9910.7066   -113756.11    1520.5428 
   29700    282.85029   -101.52173    374274.66    -103864.9    9739.7568   -113604.66    1523.5428 
   29750    284.28932   -87.468288       374047   -103845.37    9789.3089   -113634.68    1525.1278 
   29800    288.21994   -34.828045    373270.02   -103830.02    9924.6571   -113754.67    1522.8949 
   29850    285.06625     69.85714    373084.28   -103810.67    9816.0619   -113626.73    1524.6936 
   29900     286.0108    22.836448    373757.11   -103780.76    9848.5869   -113629.35    1528.3819 
   29950    285.22592   -76.563215    374354.53   -103753.72    9821.5601   -113575.28    1532.2609 
   30000    284.86373    -138.0038    374345.08   -103813.81    9809.0881    -113622.9    1534.4739 
   30050    286.00001   -42.806992    373862.54   -103843.92    9848.2151   -113692.13    1535.6622 
   30100    285.13566    471.37748     373082.7   -103784.22    9818.4518   -113602.67    1535.3092 
   30150    290.66699   -24.322562    373299.85   -103797.14    10008.919   -113806.06    1538.7657 
   30200     285.6415   -294.86385    374031.21   -103791.26    9835.8703   -113627.13    1544.7534 
   30250    286.98515   -68.375018    374218.15   -103800.93    9882.1378   -113683.06    1548.7897 
   30300    288.22541   -144.00893    373949.96    -103775.7    9924.8455   -113700.55    1550.1564 
   30350    290.10372   -149.06017    373593.72   -103796.44    9989.5238   -113785.96    1553.3348 
   30400    287.59853    116.25461    373402.73   -103903.76    9903.2591   -113807.02    1555.4268 
   30450    282.75988   -98.735954    373437.77   -103924.52    9736.6434   -113661.16    1557.1788 
   30500    287.54775    109.58252    373346.56   -103878.92    9901.5105   -113780.43     1559.115 
   30550    288.66993    247.24639    373618.46   -103854.18    9940.1522   -113794.33    1561.9704 
   30600    284.84265   -75.233512    374272.07   -103899.73    9808.3624    -113708.1    1565.9313 
   30650    285.01267   -15.478418    374554.66   -103931.46    9814.2168   -113745.67    1570.5063 
   30700    283.47161   -71.255592    374310.93   -103933.24    9761.1514   -113694.39    1574.3373 
   30750    284.71508    -232.0351    373887.38   -103978.87    9803.9694   -113782.84    1575.8421 
   30800    284.51026    72.099376    373076.03   -104015.19    9796.9168   -113812.11    1575.0121 
   30850    285.82266    265.00966    372775.96   -104078.64    9842.1084   -113920.75    1574.2727 
   30900    281.35288    126.30164    373391.94   -104042.39    9688.1946   -113730.59    1576.8953 
   30950    278.83669   -67.911515    374201.85   -104051.48    9601.5512   -113653.03    1581.5095 
   31000    281.99591   -131.36694    374399.03    -104048.2    9710.3367   -113758.54     1584.097 
   31050    281.86281    85.892247    373788.36   -104052.22    9705.7535   -113757.98     1585.312 
   31100    288.02212    407.56546    372976.93   -104019.72     9917.845   -113937.56    1585.0408 
   31150     286.3433    443.16495    372874.16   -103994.67    9860.0361    -113854.7    1586.9115 
   31200    285.96747   -49.135441    373436.75   -103961.95    9847.0946   -113809.05    1589.7251 
   31250    284.84267   -143.11419    373886.49   -103942.65     9808.363   -113751.02    1592.2849 
   31300    285.91679    20.066302    374234.31   -103953.05    9845.3497    -113798.4    1595.6783 
   31350    280.31407   -316.93911    374449.37   -103979.27    9652.4236    -113631.7    1598.1726 
   31400    281.44606   -269.40369    374183.09   -104004.78     9691.403   -113696.18    1599.2783 
   31450    284.13805   -56.194605    373540.52   -103992.25    9784.0998   -113776.35     1601.963 
   31500    284.96849    24.374964    373135.18   -103981.88    9812.6956   -113794.57    1603.9216 
   31550    282.35648    -46.91726    373171.19   -103988.25    9722.7529      -113711      1606.85 
   31600    281.10334    226.68271    373139.75   -104002.79    9679.6016   -113682.39    1609.9783 
   31650     279.3679    152.32869    373534.91   -103956.91    9619.8431   -113576.75    1613.2764 
   31700    286.97253   -183.04767    373927.65   -103948.64    9881.7031   -113830.34    1615.5854 
   31750    285.90219   -91.728562    374107.44   -103937.04     9844.847   -113781.89    1618.9625 
   31800    284.34864    3.3918154    373968.83   -103961.63    9791.3513   -113752.98    1622.3706 
   31850    282.63277   -239.40728    373597.71   -104005.03    9732.2667    -113737.3    1623.7654 
   31900    285.80482    244.26424    373407.33   -104009.47    9841.4939   -113850.97    1624.8601 
   31950    284.62543    40.923069     373971.5      -103968    9800.8824   -113768.88     1627.923 
   32000    284.63186   -144.78556    374391.22   -103999.51    9801.1039   -113800.62    1630.1635 
   32050    280.33745   -98.806407    374174.75    -104001.5    9653.2287   -113654.73    1630.8263 
   32100     288.8466    5.3807711    373724.19   -104031.28    9946.2355   -113977.52    1629.4135 
   32150    281.52426    24.703862     373524.7   -104035.82    9694.0959   -113729.91    1629.8815 
   32200    282.21142   -152.70464    373522.61   -103994.73    9717.7575   -113712.49    1628.8959 
   32250    286.37365    7.6751494    373422.42   -103972.94    9861.0812   -113834.03    1630.6375 
   32300    284.50792    101.97363    373359.16   -104012.31     9796.836   -113809.14    1631.9555 
   32350    285.08355   -7.3763459    373557.16   -104011.89    9816.6576   -113828.55    1635.5263 
   32400    284.09031    157.97342    374090.54   -104008.19     9782.456   -113790.64     1639.234 
   32450    284.85089   -174.71871    374385.25   -104036.52    9808.6462   -113845.16    1643.1076 
   32500    282.62985   -217.72313    374004.28   -104007.41    9732.1659   -113739.58    1642.6887 
   32550    284.06503    69.389042    373132.22   -104016.87    9781.5856   -113798.45    1640.3856 
   32600    279.74112    320.33719    372719.37   -103950.66    9632.6945   -113583.35     1642.304 
   32650    288.71008     -24.7611    373152.07   -103946.94    9941.5346   -113888.48    1644.7661 
   32700    286.21299    27.915752    373992.98   -103977.01    9855.5489   -113832.56    1649.9745 
   32750    281.72338   -109.60222    374491.66   -103937.49    9700.9525   -113638.44    1653.9822 
   32800    284.35374   -45.896764    374020.79   -103965.07     9791.527   -113756.59    1655.1528 
   32850    285.30381    355.17449    373337.55   -103964.07     9824.242   -113788.31    1653.0894 
   32900    282.43976    175.85682     373288.9   -103979.96    9725.6205   -113705.58    1653.7627 
   32950    283.13814    51.118013    373527.86   -104027.71    9749.6685   -113777.38    1656.3687 
   33000    281.08746    27.165178    374170.27   -103959.83    9679.0548   -113638.89    1658.2306 
   33050    280.39179    173.91083    374488.08   -103954.04    9655.0999   -113609.14    1660.8364 
   33100    284.21235   -169.86883    374105.05   -103990.75    9786.6583   -113777.41    1661.2551 
   33150    283.61275    109.28294    373254.22   -104005.41    9766.0117   -113771.43    1661.9586 
   33200    288.75664       63.378    372948.26   -104031.31    9943.1377   -113974.45    1664.8299 
   33250    285.81538    21.618794    373338.37   -104037.05    9841.8576   -113878.91    1669.6408 
   33300    285.09578   -18.617996    373688.07   -104021.25    9817.0788   -113838.33    1672.9924 
   33350    282.83096   -120.14278    374057.04   -104060.77    9739.0912   -113799.87    1675.6949 
   33400    283.77897    90.369415    373883.47    -104025.1    9771.7352   -113796.83    1678.9141 
   33450    281.73571    11.389755    373534.87   -103986.94    9701.3769   -113688.31    1680.9381 
   33500    285.44953    126.27271    373272.59   -104021.92    9829.2599   -113851.18    1683.7382 
   33550    281.07782   -198.82862    373388.91   -103985.55    9678.7228   -113664.27    1687.2929 
   33600    285.16125   -30.553904    373497.28   -104013.25     9819.333   -113832.59    1690.4667 
   33650    283.21127    7.2055449    373498.11   -104018.34    9752.1869   -113770.52    1692.9099 
   33700    283.20397   -67.104976     373534.7   -103966.66    9751.9355   -113718.59    1695.0993 
   33750    285.59484   -98.819501    373735.81   -103943.04    9834.2635    -113777.3    1696.8775 
   33800      284.555   -15.143478    373916.12   -103943.37    9798.4574   -113741.83    1700.0467 
   33850    281.68396   -12.224369    373835.05   -103963.38    9699.5951   -113662.97    1703.5962 
   33900    283.31028   -15.860311    373697.19   -103995.61    9755.5961    -113751.2     1704.742 
   33950    286.32623   -145.04024    373560.55   -103994.49    9859.4485   -113853.94    1705.4199 
   34000    287.21544    240.92842    373530.64   -103949.49    9890.0678   -113839.56    1707.3292 
   34050    286.11224    49.607399    373959.31   -103985.96    9852.0799   -113838.03     1710.663 
   34100    284.95308    64.098073    374342.18   -103997.01     9812.165   -113809.17    1716.5798 
   34150    286.03237     33.30311    374092.05   -104014.76    9849.3295   -113864.09    1718.6852 
   34200    283.27071   -123.71144    373733.42   -104039.83    9754.2338   -113794.07    1718.5945 
   34250    286.03425    135.66675    373219.51   -104014.15    9849.3941   -113863.54    1718.2112 
   34300    285.28775   -59.235127    373079.74   -103967.09    9823.6889   -113790.78    1721.8749 
   34350    286.44176    202.50518    373269.85   -103994.13    9863.4267   -113857.56    1725.0375 
   34400    279.10315   -107.19907    373745.49   -104043.39    9610.7267   -113654.12    1727.5542 
   34450    281.80136   -4.4678698    373966.67      -103972    9703.6375   -113675.64    1730.3931 
   34500    284.19172   -46.899864    374024.97   -104036.37    9785.9479   -113822.31    1732.5605 
   34550    280.93232   -140.55957    373677.56   -104083.73    9673.7127   -113757.44     1733.395 
   34600     280.2078    147.06785    372921.14   -104106.64    9648.7645   -113755.41    1732.6756 
   34650    283.72035    202.53907    372843.57   -104081.73    9769.7167   -113851.45    1734.2452 
   34700    282.20245   -68.501229     373222.3    -104044.7    9717.4488   -113762.15    1737.0287 
   34750    284.36222    6.7874683     373347.9   -104078.34    9791.8191   -113870.16    1738.5203 
   34800    283.66646   -123.41341    373589.47   -104036.51    9767.8611   -113804.38    1743.1719 
   34850    281.96472    186.34317    373742.12   -104076.08    9709.2627   -113785.34    1747.3427 
   34900    279.89793   -119.69328    373554.29   -104066.83    9638.0943   -113704.92    1749.0122 
   34950    282.22393    190.74538    373044.44   -104015.02    9718.1883   -113733.21    1747.8093 
   35000    282.65744    118.02393    372948.86   -104014.63     9733.116   -113747.75    1750.4632 
   35050    283.13998   -124.58065     373328.3   -104004.23    9749.7319   -113753.96    1755.6231 
   35100    284.24229   -70.904144    373647.44   -104018.05    9787.6893   -113805.74    1758.9694 
   35150    281.25321   -269.35567    373843.71   -104012.45    9684.7622   -113697.21    1763.4317 
   35200    283.28656     73.66676    373464.69   -104013.66    9754.7792   -113768.44    1765.2966 
   35250    281.44405    321.22848    372914.02   -103972.09    9691.3338   -113663.43    1767.8859 
   35300    282.47299    125.78635    373101.06   -103941.14    9726.7648    -113667.9     1769.695 
   35350    285.65724     110.9999    373434.39   -103916.31     9836.412   -113752.72    1771.5885 
   35400    279.91836    59.904921    373884.37   -103963.93    9638.7976   -113602.73    1774.4826 
   35450    282.04005   -330.07314    374272.17   -103941.38    9711.8567   -113653.23    1779.7799 
   35500    283.98426    23.899127    373978.38   -103901.43    9778.8041   -113680.24    1781.9656 
   35550    280.60176    130.46927    373573.39   -103936.47    9662.3302    -113598.8    1781.0993 
   35600    281.84291    21.546241    373516.71   -103858.96    9705.0683   -113564.03    1782.5881 
   35650    290.77262   -5.9260231    373504.36    -103851.1    10012.557   -113863.66     1785.402 
   35700    287.32532    20.139434    373515.74   -103905.27    9893.8514   -113799.12    1787.7268 
   35750    281.92127   -51.714083    373636.71   -103923.93    9707.7666   -113631.69    1790.4102 
   35800    283.80488    -109.3844    374020.39    -103944.3    9772.6275   -113716.93     1793.323 
   35850    281.91673   -24.517008    374240.41   -103905.68    9707.6103   -113613.29    1796.9183 
   35900    285.41688    174.88866    374182.75   -103904.54    9828.1357   -113732.68    1798.8468 
   35950    285.47263   -187.64331    373951.48    -103921.5    9830.0552   -113751.56    1800.6669 
   36000    288.82098   -33.727353    373776.74    -103949.7    9945.3534   -113895.06    1802.3843 
   36050    283.81661   -207.28903    374038.71   -104005.23    9773.0314   -113778.26    1806.7901 
   36100    284.65953   -74.995538    374101.64    -103957.4    9802.0567   -113759.46    1809.3505 
   36150    288.30289   -136.44118    374003.34   -103954.25    9927.5134   -113881.77     1811.383 
   36200    286.56411    184.73338    373633.51    -103959.9    9867.6396   -113827.54    1812.5081 
   36250    279.79031    160.58462    373542.51   -103944.14    9634.3884   -113578.53    1815.7917 
   36300    286.26942    -92.87516    373409.44   -103997.77    9857.4921   -113855.26    1818.8237 
   36350    285.08389   -160.93568    373653.11   -103923.62    9816.6692   -113740.29    1821.6313 
   36400    285.25624   -158.73078    374006.58   -103980.14    9822.6039   -113802.75    1826.2977 
   36450    283.60108    5.5058978    373948.71   -103951.89    9765.6097    -113717.5    1829.2093 
   36500    283.80746    60.443185    373617.77   -103942.85    9772.7164   -113715.56    1830.0895 
   36550     283.7329    191.82352    373520.31   -103913.28    9770.1489   -113683.43     1831.476 
   36600    284.96158    48.370932    373782.16   -103893.05    9812.4576   -113705.51    1833.5104 
   36650    284.69965   -260.81624    374150.57   -103905.74    9803.4382   -113709.18    1838.5247 
   36700    283.81152    133.43881    374107.03   -103906.46     9772.856   -113679.31    1843.4816 
   36750    284.43196    16.214377    373795.92   -103942.63    9794.2206   -113736.85    1844.7021 
   36800    283.36435    15.851021    373494.52   -103894.15    9757.4579   -113651.61    1844.4841 
   36850    283.58999   -47.819142    373257.07   -103891.44     9765.228   -113656.67     1846.071 
   36900    283.87711    103.98328    373150.65   -103912.26    9775.1144   -113687.37    1848.9749 
   36950    286.54215    337.06947    373198.13   -103954.61    9866.8834   -113821.49    1851.2339 
   37000    281.43456    192.16013    373711.16   -103977.02     9691.007   -113668.03    1854.7523 
   37050    282.91397   -145.07878    374232.62   -103988.43    9741.9496   -113730.38    1857.9979 
   37100    284.56932    140.95365    373998.26   -103945.05    9798.9504      -113744    1858.4015 
   37150    281.02042   -35.778055    373624.72   -103953.76    9676.7463   -113630.51    1858.4767 
   37200    283.44988    174.95735    373330.73   -103971.62    9760.4032   -113732.02    1857.4721 
   37250    281.95716   -21.537944    373690.77   -103978.48    9709.0024   -113687.48    1861.5775 
   37300     281.7554   -78.569558    374193.37   -103994.85    9702.0549    -113696.9    1866.3162 
   37350    285.41853   -312.24156     374198.7   -103978.53    9828.1924   -113806.72    1868.4467 
   37400    283.90935   -26.507684    373726.95    -103972.8    9776.2246   -113749.02     1869.378 
   37450    283.09016    199.23977    373339.09   -103971.89    9748.0165    -113719.9    1869.5046 
   37500    286.02158    239.44372    373194.65   -103959.53    9848.9578   -113808.49    1871.4847 
   37550    284.79509    12.209308    373429.02   -103956.78    9806.7247    -113763.5    1875.5096 
   37600    280.82242   -29.685459    373804.46   -103967.53    9669.9285   -113637.46    1878.7176 
   37650    283.51306   -36.765101    374044.44   -103960.29    9762.5788   -113722.87    1881.5443 
   37700    284.75447   -196.90227    374311.11   -103949.88     9805.326   -113755.21     1885.283 
   37750    284.44176    103.20154    373858.37   -103985.25     9794.558    -113779.8     1887.851 
   37800    285.06721    83.968418    373321.97   -103995.93    9816.0948   -113812.02    1887.9923 
   37850    283.18585    64.819808     373279.2   -104011.52    9751.3115   -113762.83     1890.391 
[...]
   90850    285.82108   -9.3925627    374105.45   -103757.94     9842.054   -113599.99     4397.679 
   90900    282.67792   -137.82189    373976.72   -103771.37    9733.8213   -113505.19     4398.916 
   90950    286.84657   -45.994075    373507.31   -103799.53    9877.3659    -113676.9    4398.5484 
   91000      290.555   -249.54293    373325.55   -103790.94    10005.063   -113796.01    4397.4561 
   91050    290.90207    82.957728    373248.11   -103800.72    10017.014   -113817.73     4399.573 
   91100    283.87584    228.07724    373519.62   -103778.08    9775.0707   -113553.15    4400.8088 
   91150     287.6806    -325.0616    374370.56   -103757.89    9906.0852   -113663.97    4411.9456 
   91200    287.29632   -394.83404    374873.38   -103807.63    9892.8529   -113700.48    4418.3517 
   91250    285.24144   -36.303074    374575.97   -103807.17    9822.0944   -113629.26    4419.8314 
   91300    287.16543    217.23639     373900.4   -103818.45    9888.3457    -113706.8    4419.0805 
   91350    285.56556    343.73251    373497.45   -103829.81    9833.2551   -113663.07    4417.0319 
   91400    285.75589    148.29232    373642.79   -103887.31    9839.8091   -113727.12    4418.9416 
   91450    284.60883   -198.24489    374320.49   -103873.16    9800.3108   -113673.47    4425.0811 
   91500    285.51846    112.72784    374440.83   -103892.15    9831.6333   -113723.79    4425.7654 
   91550    282.89454    79.879888    374415.14   -103900.77    9741.2806   -113642.05    4425.0371 
   91600    283.35767    56.854586    373942.12   -103900.84    9757.2279   -113658.07    4425.4857 
   91650    280.35242    98.370339    373646.56   -103962.88    9653.7441   -113616.63    4430.3867 
   91700      283.337   -1.3685308    373482.53   -104003.24    9756.5161   -113759.75     4432.945 
   91750      281.125     288.1651    373351.46    -103982.3    9680.3475   -113662.65    4439.6795 
   91800    279.29879    103.74292    373493.15   -103965.49    9617.4634   -113582.96    4442.8618 
   91850    283.19158   -247.96314    373804.33   -103965.29    9751.5087   -113716.79    4447.4391 
   91900    282.93999     76.88172    373865.78   -103997.99    9742.8455   -113740.84    4449.5951 
   91950    278.77074   -24.118282    373729.36   -104012.87    9599.2801   -113612.15    4451.0477 
   92000    278.45595   -145.60202    373449.86   -104007.69    9588.4406   -113596.13    4452.1811 
   92050    280.88594   -4.8541698    373080.63   -104032.42    9672.1156   -113704.54    4452.2765 
   92100    286.25805    193.07645    373031.82   -103993.28    9857.1006   -113850.38    4453.7032 
   92150     281.5273    133.46807    373567.66   -103949.38    9694.2006   -113643.58    4461.7755 
   92200    286.80645    124.89841     374102.8   -103952.18    9875.9845   -113828.16    4468.6095 
   92250    283.99886   -114.13512    374483.69      -103921    9779.3069   -113700.31    4474.7768 
   92300    286.51234   -175.69897    374153.89   -103949.24    9865.8568   -113815.09    4474.6805 
   92350     284.0309    104.84392    373354.08   -103943.91    9780.4103   -113724.33    4474.2397 
   92400     287.8489    231.58266    372773.88   -103976.33    9911.8805   -113888.21    4475.1344 
   92450    285.20535    47.441346    373434.69   -103937.86    9820.8516   -113758.71    4481.1687 
   92500    281.08113    22.591613    374648.65   -103976.59     9678.837   -113655.43     4494.591 
   92550    280.43802   -360.60391    374935.46   -103954.51    9656.6919    -113611.2    4498.9747 
   92600    283.01218   -309.07722    374025.67   -103985.04    9745.3312   -113730.37    4492.8776 
   92650    284.82261    77.075103    372971.16   -104016.56    9807.6721   -113824.23    4486.9019 
   92700    286.37558    369.25742    372468.59   -103976.57    9861.1476   -113837.72    4485.4922 
   92750    281.02129    98.013467    372929.72   -104047.99    9676.7764   -113724.76    4492.3489 
   92800    277.76844    67.429501    374003.62   -104055.95    9564.7667   -113620.71    4502.9066 
   92850    282.31219   -30.957836    374718.36   -104018.02    9721.2278   -113739.25    4511.8526 
   92900    283.23156   -249.15305    374410.62   -104054.34    9752.8855   -113807.22    4513.3904 
   92950    283.39299   -230.68425    373499.79   -104009.32    9758.4444   -113767.76    4509.2534 
   93000    281.83125    24.080282    372903.73   -103954.59    9704.6668   -113659.25    4505.4336 
   93050    283.85257    1.0627763    373271.07   -103971.96    9774.2697   -113746.23    4510.7922 
   93100    281.29912    73.989652    373867.52   -103909.76    9686.3432    -113596.1    4519.5783 
   93150    281.45857   -157.83879    374504.74   -103934.77    9691.8338    -113626.6    4524.8159 
   93200     279.6223   -198.26015    374355.02   -103923.76    9628.6033   -113552.36    4526.1564 
   93250    286.19565   -175.26418    373543.64   -103891.48     9854.952   -113746.43     4524.514 
   93300    287.42787   -8.3076466     372953.7   -103911.62    9897.3824      -113809    4521.1118 
   93350    281.73262    312.12638    373002.66   -103933.88    9701.2704   -113635.15    4519.8166 
   93400    278.45286    156.31212    373674.85      -103959    9588.3342   -113547.33    4522.1994 
   93450     283.7577   -206.94472    374386.27   -103919.33    9771.0027   -113690.33    4530.3247 
   93500    279.26975   -163.83074    374329.59   -103940.31    9616.4635   -113556.78    4530.2865 
   93550    285.26843   -54.949098    373549.92   -103904.15    9823.0239   -113727.17    4525.7428 
   93600     284.3603    448.11741    372858.11   -103856.38    9791.7528   -113648.13    4522.9476 
   93650    289.68116   -79.065036    372977.08   -103904.67    9974.9732   -113879.64    4522.8953 
   93700    283.31683    56.219573     373533.3   -103880.67    9755.8217   -113636.49    4529.2418 
   93750    286.68936   -313.05078    374166.05   -103890.12    9871.9524   -113762.07    4535.5729 
   93800    286.84329   -96.387461     374179.2   -103845.85    9877.2531    -113723.1    4536.5851 
   93850    284.32035    -90.71316    373578.99   -103862.56    9790.3772   -113652.93    4533.4841 
   93900    291.63045    259.67659    373151.07   -103854.06    10042.096   -113896.15    4533.9853 
   93950    287.29614    -182.9868    373566.29   -103876.82    9892.8464   -113769.67    4543.2496 
   94000    288.02102    55.047095    373821.32    -103836.6    9917.8074    -113754.4    4546.3034 
   94050    285.11241    188.12987    373850.36   -103804.39    9817.6513   -113622.04    4552.4546 
   94100    289.63122    144.15262    373901.19   -103814.89    9973.2536   -113788.14     4556.828 
   94150    286.14811   -167.28207    374020.67   -103800.62    9853.3148   -113653.94    4560.6503 
   94200    286.49341   -164.32031    374162.58   -103796.98     9865.205   -113662.19    4565.8537 
   94250    286.84311   -34.377746    374067.78   -103771.09    9877.2468   -113648.34    4567.4163 
   94300    286.14579   -122.77794    373585.74   -103751.38     9853.235   -113604.62    4566.9289 
   94350    290.86352   -68.931994    373149.16   -103761.77    10015.687   -113777.46    4566.2087 
   94400    284.96096    27.344268    373182.91    -103779.4    9812.4363   -113591.83    4569.8301 
   94450    287.56608   -54.494462    373703.99   -103776.63    9902.1418   -113678.77    4575.6318 
   94500    287.08676    166.02906    374129.89   -103777.25    9885.6368   -113662.89    4582.7223 
   94550    287.30445   -70.831119    374254.72   -103782.65    9893.1328   -113675.78    4585.7133 
   94600    285.61513    105.89792     373943.1    -103810.5    9834.9623   -113645.46    4586.7728 
   94650    284.91571    125.60014    373626.75   -103769.05    9810.8782   -113579.93     4586.387 
   94700    287.85863    88.335743    373919.38   -103733.29    9912.2156    -113645.5    4592.6842 
   94750    288.18315   -401.02084    374533.68    -103767.1    9923.3901   -113690.49    4596.4091 
   94800    287.74968   -172.12108     374426.5    -103771.9     9908.464   -113680.36     4599.852 
   94850    283.12911    214.59114    373968.98   -103793.37    9749.3576   -113542.72    4600.7714 
   94900    286.96554   -90.515791    373782.79   -103782.73    9881.4626    -113664.2    4601.5358 
   94950    291.83294    70.147985    373217.49   -103830.56    10049.068   -113879.63    4600.1192 
   95000    289.30469    113.86672    373202.97   -103871.88    9962.0095   -113833.89     4602.311 
   95050    285.55962     217.6556    373881.92   -103856.65    9833.0506    -113689.7    4609.8308 
   95100    281.54724    89.054737    374531.76   -103833.77     9694.887   -113528.66     4618.959 
   95150    284.88171     125.1556    374727.52    -103859.1    9809.7072   -113668.81    4623.3971 
   95200     285.1276   -304.99977    374577.42   -103893.67    9818.1744   -113711.84    4622.9248 
   95250    289.20944     237.1479    373834.92    -103885.3    9958.7297   -113844.03     4620.796 
   95300     285.9465    124.66152    373277.63    -103891.8    9846.3728   -113738.18    4618.8225 
   95350    285.68742     155.1009    373223.18    -103931.6    9837.4513   -113769.05    4622.8997 
   95400    285.55668      140.748    373544.26   -103884.57    9832.9494   -113717.52    4628.0384 
   95450    284.17092   -118.21173    373936.37   -103920.65    9785.2316   -113705.88    4633.4155 
   95500    282.44744    96.134629    374100.45   -103894.06    9725.8849   -113619.94    4636.3536 
   95550    282.96228   -104.58898    373950.88      -103933    9743.6132   -113676.61    4635.9675 
   95600    285.49827   -42.283157    373666.71   -103955.08    9830.9383   -113786.02     4634.525 
   95650    283.17175    202.78443     373776.5   -103928.07    9750.8258    -113678.9    4635.1249 
   95700    283.04424   -107.66992    373867.89   -103909.87    9746.4354    -113656.3     4638.711 
   95750    284.81197    19.169572    373734.33   -103915.29    9807.3058   -113722.59    4639.5317 
   95800    285.89468    258.67167    373745.72   -103901.67    9844.5883   -113746.25     4642.043 
   95850    286.24949    -123.9208    373920.73   -103951.38    9856.8059   -113808.19    4645.8369 
   95900    284.33011   -109.32548     373964.1   -103940.41    9790.7133   -113731.12    4651.6605 
   95950    284.31736   -205.56591    373984.76   -103910.63    9790.2744   -113700.91    4655.4831 
   96000    285.81079   -22.769984    373685.84   -103918.34    9841.6996   -113760.04    4653.0732 
   96050    288.50836    75.000043    373433.96   -103886.55    9934.5886   -113821.14    4653.6411 
   96100    291.03596   -116.74314    373518.32   -103865.16    10021.625   -113886.79     4654.318 
   96150    284.07029    48.813845    373988.14   -103858.56    9781.7666   -113640.32    4662.0296 
   96200    283.94525    82.724784    374285.33   -103802.47    9777.4608   -113579.93    4668.2233 
   96250    291.90985   -471.48318    374344.27   -103801.05    10051.717   -113852.77    4672.3958 
   96300    284.15656    28.626744    373800.18   -103810.77    9784.7374   -113595.51     4671.791 
   96350    288.86506    38.885772    373458.82   -103834.66    9946.8711   -113781.53    4675.2703 
   96400    283.37189    349.14956    373630.38   -103864.02    9757.7178   -113621.74    4678.7673 
   96450    287.65575   -119.68205    374082.38   -103832.41    9905.2294   -113737.64    4684.2958 
   96500    284.26042   -134.57904    374153.97   -103805.84    9788.3135   -113594.15    4686.6211 
   96550    289.19589    101.75295    373880.06   -103828.67    9958.2632   -113786.93    4687.9998 
   96600    287.00987    117.25742    373833.68   -103798.79    9882.9891   -113681.78    4691.9924 
   96650    283.59626   -122.82832    374158.84   -103823.74    9765.4436   -113589.18    4696.3156 
   96700    285.99429   -176.15542    374000.54   -103841.35    9848.0183   -113689.37    4698.7383 
   96750    288.17806    89.961981    373446.84    -103843.6    9923.2147   -113766.81    4697.0213 
   96800    287.00035    47.846908    373334.69   -103861.46    9882.6613   -113744.12     4696.942 
   96850    286.77388    7.5481939    373165.29   -103884.96    9874.8628   -113759.82    4697.9888 
   96900    284.60891    370.22669    373255.72   -103848.94    9800.3136   -113649.25    4699.8112 
   96950    289.88946    133.47371    374023.58   -103844.93    9982.1457   -113827.08    4710.1771 
   97000    286.94614   -179.91903    374609.97   -103856.86    9880.7947   -113737.66    4718.5683 
   97050    285.06503   -111.41872    374485.18   -103849.51    9816.0199   -113665.53    4722.6285 
   97100     283.5299    -124.2337    373871.07    -103877.1    9763.1586   -113640.26    4722.9466 
   97150     284.5522    62.552027    373347.27   -103930.18    9798.3609   -113728.54    4722.8632 
   97200    284.92991    216.65335    373291.07   -103883.08    9811.3669   -113694.45    4725.4493 
   97250     282.5315    117.47529    373670.68   -103930.93    9728.7794   -113659.71    4733.5266 
   97300    281.53038   -223.44822    374164.06   -103915.04    9694.3064   -113609.35    4741.9288 
   97350    286.39808   -34.995022     374129.4   -103951.92    9861.9224   -113813.85     4744.731 
   97400    285.40867   -70.300362    373750.14   -103953.22    9827.8529   -113781.07    4745.4723 
   97450    285.69456     62.75153    373277.04   -104016.72    9837.6972   -113854.42    4746.7826 
   97500    282.52041    113.67941    373092.97   -104004.31    9728.3975   -113732.71    4749.3731 
   97550    284.41559    165.63172    373335.61   -103957.49    9793.6567   -113751.15    4756.3146 
   97600    282.66539   -65.131297    373968.39   -103939.44    9733.3897   -113672.83     4767.747 
   97650    285.39658   -157.92892    374427.24   -103911.13    9827.4365   -113738.56    4777.2301 
   97700    284.63181   -222.26529    374443.33   -103901.51    9801.1023   -113702.61    4783.7389 
   97750    285.77649    44.632215    374000.96   -103895.52    9840.5184   -113736.04    4783.2561 
   97800    283.13791    256.73497    373733.14   -103945.89    9749.6608   -113695.56    4783.0385 
   97850    285.28246   -37.006849    373618.52    -103984.1     9823.507   -113807.61     4786.745 
   97900    281.05056    117.00711    373476.56    -104025.7    9677.7843   -113703.48    4789.2649 
   97950    283.43176    57.911519    373155.95   -103998.54    9759.7794   -113758.32    4788.0971 
   98000    282.09886    85.569334    372830.27   -103987.94    9713.8816   -113701.82    4787.1314 
   98050    282.71022    307.94226    372826.87   -104008.54    9734.9334   -113743.47    4786.2214 
   98100      280.739   -104.50044    373616.84    -104012.4     9667.056   -113679.46    4796.1105 
   98150    285.87005   -41.748443    374138.46   -104030.13    9843.7402   -113873.87    4804.9327 
   98200    282.82503   -442.91146    374251.82   -104022.73    9738.8871   -113761.62    4808.0945 
   98250    283.60014    164.48361    373557.61   -104060.92    9765.5775    -113826.5    4805.5899 
   98300    285.27283    112.83252    372982.18    -104063.1    9823.1752   -113886.28    4802.3515 
   98350    282.95824    166.40623    372747.88   -104092.45    9743.4738   -113835.92     4804.898 
   98400    283.63535   -164.35169    373128.78   -104039.92    9766.7897   -113806.71     4808.708 
   98450    283.27992   -82.854308    373748.27   -103991.27    9754.5509   -113745.82    4815.6785 
   98500    282.24055   -41.369361    373940.19    -104038.7    9718.7608   -113757.47    4819.1378 
   98550    282.00861    21.631521    373562.13   -104036.81    9710.7742   -113747.59    4816.1361 
   98600    282.97183    -3.054552     372956.3   -104087.89    9743.9418   -113831.83    4813.2575 
   98650    283.74837    405.12415    372677.48   -104076.05    9770.6814   -113846.73    4815.4791 
   98700    284.33157   -39.700042    373451.74   -104091.97    9790.7638   -113882.74    4829.4683 
   98750    282.64698   -64.430104     374108.8   -104041.74    9732.7558   -113774.49    4839.9367 
   98800    282.36131   -113.94095    374174.35   -104048.13    9722.9189   -113771.05    4844.4823 
   98850    284.87803   -81.143111    373738.46   -104016.78    9809.5805   -113826.36    4844.3388 
   98900    280.87761    170.89478    373193.81   -104010.36    9671.8289   -113682.19    4840.6362 
   98950     283.0674    226.63867    372842.21    -103991.5    9747.2326   -113738.73    4840.5962 
   99000    281.55621    86.843641    373248.35   -104002.31    9695.1959    -113697.5    4847.4329 
   99050    281.80133    -224.6292    374144.99   -103988.51    9703.6364   -113692.15    4857.5134 
   99100    285.80318   -262.91863    374446.14   -103997.12    9841.4376   -113838.56     4861.232 
   99150    282.93986    95.375332    373960.59   -104009.31     9742.841   -113752.15    4858.1695 
   99200    283.76552   -30.375174    373444.15   -104022.33     9771.272    -113793.6    4856.9008 
   99250    286.13766   -144.70125     373152.4   -104043.66    9852.9552   -113896.61    4857.0981 
   99300    284.19791   -35.167217    373257.96   -104080.91    9786.1611   -113867.07     4862.679 
   99350    282.43154    67.653807    373553.24   -104104.56    9725.3374   -113829.89    4869.6342 
   99400    282.67454   -67.917224    373722.87    -104085.5    9733.7048   -113819.21    4873.6664 
   99450    281.97524    81.212572    373689.68   -104064.81     9709.625   -113774.43    4874.3686 
   99500    283.92962    26.834234    373544.56   -104117.11    9776.9226   -113894.03    4875.6824 
   99550     277.4748   -144.12133     373595.6   -104078.66    9554.6554   -113633.32    4875.2033 
   99600    284.78359    101.45333    373390.62   -104031.67    9806.3286      -113838    4878.5952 
   99650    281.91286    200.87214    373232.54   -104070.52    9707.4771   -113777.99    4879.6325 
   99700    281.73219    10.786302     373370.3   -104047.42    9701.2557   -113748.68    4885.1636 
   99750    282.82501    146.93226    373575.29   -104062.72    9738.8862   -113801.61    4891.9601 
   99800    282.53765   -101.09003     373925.3    -104061.3    9728.9912   -113790.29    4898.3187 
   99850    281.65236    11.350351    374023.23   -104027.95    9698.5068   -113726.45    4903.8218 
   99900    278.22875   -351.67365    373908.97   -104064.15     9580.617   -113644.77    4904.7307 
   99950    288.78215   -104.63438    373255.59   -104030.36    9944.0163   -113974.37    4902.9088 
  100000    285.51888    255.38344    372756.61   -104011.64    9831.6478   -113843.28    4903.5121 
Loop time of 331.295 on 6 procs for 100000 steps with 11553 atoms

Performance: 260.795 ns/day, 0.092 hours/ns, 301.846 timesteps/s
99.5% CPU use with 6 MPI tasks x no OpenMP threads

MPI task timing breakdown:
Section |  min time  |  avg time  |  max time  |%varavg| %total
---------------------------------------------------------------
Pair    | 100.73     | 178.57     | 254.69     | 465.0 | 53.90
Neigh   | 41.289     | 49.031     | 56.664     |  81.9 | 14.80
Comm    | 12.503     | 94.832     | 180.47     | 694.2 | 28.62
Output  | 0.20057    | 0.2037     | 0.21701    |   1.3 |  0.06
Modify  | 6.9008     | 6.9641     | 7.0558     |   2.0 |  2.10
Other   |            | 1.692      |            |       |  0.51

Nlocal:        1925.50 ave        1944 max        1906 min
Histogram: 1 0 2 0 0 0 1 0 1 1
Nghost:        2401.67 ave        2429 max        2360 min
Histogram: 1 0 0 1 1 0 0 0 1 2
Neighs:        0.00000 ave           0 max           0 min
Histogram: 6 0 0 0 0 0 0 0 0 0
FullNghs:      53402.0 ave       54796 max       51608 min
Histogram: 2 0 0 0 0 0 1 1 0 2

Total # of neighbors = 320412
Ave neighs/atom = 27.734095
Neighbor list builds = 20277
Dangerous builds = 0

# Create data file for import to other simulations
#
write_data data.icewater_1atm_LG
System init for write_data ...

Total wall time: 0:05:31
