
# Set production fixes - Nose/Hoover
#
fix                 2 all nph iso ${PRES} ${PRES} ${PCOUPL}
fix                 2 all nph iso 1 ${PRES} ${PCOUPL}
fix                 2 all nph iso 1 1 ${PCOUPL}
fix                 2 all nph iso 1 1 10000.0
fix                 3 all temp/csvr ${TEMP} ${TEMP} ${TCOUPL} 837492
fix                 3 all temp/csvr 287 ${TEMP} ${TCOUPL} 837492
fix                 3 all temp/csvr 287 287 ${TCOUPL} 837492
fix                 3 all temp/csvr 287 287 5000.0 837492

# Define Order parameter
#
compute             2 all orientorder/atom nnn NULL cutoff 3.5
thermo              200
thermo_style        custom step temp press vol etotal ke pe c_1[4]

# Run 1ns simulation
dump		    1 all custom 400 prod.${NAME}.dump id type x y z vx vy vz c_2[*]
dump		    1 all custom 400 prod.longice_284K_1atm_ML.dump id type x y z vx vy vz c_2[*]
run                 200000
Neighbor list info ...
  update every 1 steps, delay 0 steps, check yes
  max neighbors/atom: 2000, page size: 100000
  master list distance cutoff = 6.0032907
  ghost atom cutoff = 6.0032907
  binsize = 3.0016454, bins = 3 9 9
  2 neighbor lists, perpetual/occasional/extra = 1 1 0
  (1) pair sw, perpetual
      attributes: full, newton on
      pair build: full/bin/atomonly
      stencil: full/bin/3d
      bin: standard
  (2) compute orientorder/atom, occasional, copy from (1)
      attributes: full, newton on
      pair build: copy
      stencil: none
      bin: none
Per MPI rank memory allocation (min/avg/max) = 5.700 | 5.700 | 5.700 Mbytes
Step Temp Press Volume TotEng KinEng PotEng c_1[4] 
       0    293.40437   -68.352983    4131.1972   -1325.9657      111.072   -1437.0377   0.10887317 
     200    283.32899   -154.49311    4129.7377   -1328.4802    107.25784    -1435.738   0.12590927 
     400    287.46071    193.18419    4128.5432   -1330.4511    108.82195   -1439.2731   0.09981891 
     600    277.76656    33.691794    4133.1264   -1332.8496    105.15211   -1438.0017   0.12252996 
     800    278.35007   -168.01508    4135.4948   -1332.3355      105.373   -1437.7085   0.12610393 
    1000    293.34786    13.445938    4130.7265    -1333.823    111.05061   -1444.8736   0.11638487 
    1200    264.03259    123.73236    4129.6661    -1340.171    99.952936    -1440.124   0.11102433 
    1400    259.74076   -96.281144    4132.5129   -1339.3663    98.328209   -1437.6945   0.11181853 
    1600    273.01509   -177.37854    4128.3304   -1338.1514    103.35338   -1441.5047   0.11458573 
    1800    290.35221   -88.250909    4125.7472   -1340.6328    109.91657   -1450.5494   0.10227775 
    2000    252.24114   -137.77074    4132.0263   -1330.9662    95.489132   -1426.4553   0.13475937 
    2200    306.98299   -73.631117    4137.7059   -1328.3655    116.21236   -1444.5779  0.092160561 
    2400    305.27352    173.47368    4132.2509   -1327.1241    115.56522   -1442.6893   0.11633739 
    2600    301.62173    174.49819    4128.3406   -1328.1321    114.18279   -1442.3149   0.11922142 
    2800    263.99075   -216.37595    4139.2778    -1323.692    99.937096   -1423.6291   0.11751615 
    3000    279.18766   -301.30046    4141.4686   -1329.0361    105.69008   -1434.7261   0.13493245 
    3200    309.08414    36.044446    4128.2651   -1321.5582    117.00778    -1438.566   0.12146393 
    3400    272.51942   -208.45051    4127.3784   -1331.9213    103.16574    -1435.087   0.12092314 
    3600    262.30438   -298.34715    4134.8359   -1339.5544    99.298701   -1438.8531   0.13058011 
    3800     284.1861   -72.521781    4127.5245   -1326.9734    107.58231   -1434.5557   0.13616223 
    4000      287.743   -122.32691    4118.8248   -1325.0689    108.92882   -1433.9977   0.15313541 
    4200    279.52778   -25.716268    4122.5858   -1332.4749    105.81884   -1438.2937   0.14217644 
    4400    289.08378   -167.78167    4125.6507   -1331.8517    109.43639   -1441.2881   0.12944598 
    4600     287.2815     16.72658    4122.3926   -1330.8449    108.75411    -1439.599   0.12965059 
    4800    290.80049    455.62884    4119.8267    -1325.551    110.08627   -1435.6373   0.12095679 
    5000    321.32031    -121.9289    4129.7591   -1324.8582    121.63994   -1446.4981   0.11104991 
    5200    289.26908   -239.48972    4130.4855   -1325.1167    109.50653   -1434.6233   0.13876892 
    5400    305.15684    312.02207    4118.3285   -1319.6251    115.52105   -1435.1462   0.12382043 
    5600    281.02794   -32.146753    4121.4694   -1320.8326    106.38675   -1427.2194   0.15499817 
    5800    312.79819   -486.82685    4141.0987   -1319.7656    118.41378   -1438.1794    0.1421045 
    6000    325.79899   -249.80675    4139.7698   -1315.2631     123.3354   -1438.5985   0.13080529 
    6200    274.79616    239.50831    4117.0241   -1318.1605    104.02762   -1422.1881   0.15120123 
    6400    305.17069    523.02398    4114.2507   -1313.4805     115.5263   -1429.0068   0.12614853 
    6600    323.28824   -48.424925    4141.0112   -1304.7957    122.38493   -1427.1806   0.13785024 
    6800    287.09615   -360.92085    4145.7989   -1314.7173    108.68394   -1423.4012   0.15274309 
    7000    299.29609    566.59197    4117.7936    -1316.266    113.30239   -1429.5683   0.12978328 
    7200     319.4821     244.0819    4117.0338    -1314.525    120.94406   -1435.4691   0.14274622 
    7400    321.98272   -554.66677     4149.641   -1309.8374     121.8907   -1431.7281    0.1373151 
    7600    286.13247   -537.91076    4147.0453   -1313.5305    108.31913   -1421.8497    0.1420531 
    7800    298.32874    465.23276    4104.9328   -1312.7482    112.93618   -1425.6844    0.1529842 
    8000    285.69478    256.84453    4111.9596    -1318.158    108.15344   -1426.3115   0.15257051 
    8200     291.3921   -989.13509    4157.1956   -1321.1759    110.31023   -1431.4862   0.15623814 
    8400    298.22568   -244.85835    4137.2568    -1315.406    112.89717   -1428.3032   0.15028527 
    8600    326.81078    1228.2686    4094.0266   -1313.5901    123.71843   -1437.3085   0.12951433 
    8800    326.29629    344.62829    4121.6512   -1308.7666    123.52366   -1432.2903    0.1343784 
    9000     332.3346   -835.15658    4166.5766   -1306.5608    125.80954   -1432.3703   0.12484906 
    9200    328.40156   -145.90055     4124.936   -1311.6781    124.32064   -1435.9988   0.16036251 
    9400    307.07543    1411.4403    4072.8798   -1307.4612    116.24736   -1423.7085   0.18502436 
    9600    307.98417   -83.857412    4126.9891   -1306.1191    116.59137   -1422.7105   0.16209586 
    9800    300.88781   -1563.2616    4176.2755   -1304.7523    113.90495   -1418.6572   0.17689541 
   10000    256.59334    156.33532    4116.2203   -1305.3011    97.136712   -1402.4378   0.16167387 
   10200    306.36454    1043.4187    4079.5398   -1308.5012    115.97824   -1424.4795   0.16928089 
   10400    331.69329   -245.54079    4144.6827   -1306.6815    125.56677   -1432.2483   0.17747215 
   10600    311.97283   -1181.6321    4178.1783   -1305.2834    118.10133   -1423.3848   0.16082832 
   10800    270.10892    378.17312    4105.9471   -1315.3697    102.25321   -1417.6229   0.16933307 
   11000     314.0077    1218.2342    4078.8431   -1316.3932    118.87166   -1435.2648   0.12989007 
   11200    304.34775   -930.72678    4159.1511   -1319.9103    115.21476   -1435.1251   0.14006644 
   11400    298.53547   -1498.5701    4173.9658   -1319.7699    113.01445   -1432.7843   0.16961601 
   11600    312.40574    1199.8043    4088.5687   -1317.7937    118.26522   -1436.0589   0.13577422 
   11800    279.79291    1054.8234    4092.0185     -1323.66    105.91921   -1429.5792   0.16876693 
   12000    285.33086   -1335.6148    4174.2277   -1321.2065    108.01567   -1429.2222   0.16347879 
   12200    308.72845    -501.0739    4151.6458   -1312.5903    116.87313   -1429.4634   0.13303982 
   12400    285.93938    1806.7406    4069.4823   -1312.0916    108.24604   -1420.3377   0.17055355 
   12600    305.15764    465.77739    4110.4266   -1314.7719    115.52136   -1430.2932   0.13976088 
   12800    304.77392   -1649.4254    4187.6835   -1314.5512    115.37609   -1429.9273   0.17211279 
   13000    260.19788   -280.12518    4134.3168   -1311.8585    98.501259   -1410.3598   0.20051867 
   13200    322.14752    1653.9056    4069.2029   -1315.7782    121.95309   -1437.7313   0.15585452 
   13400    308.16237   -328.49354    4134.2584   -1320.6077    116.65883   -1437.2665   0.17067022 
   13600    299.71233   -1847.5771    4195.3377   -1315.5432    113.45996   -1429.0032    0.1489917 
   13800    312.36509    621.03563     4118.809   -1311.0198    118.24983   -1429.2697   0.12276862 
   14000     305.8888    1689.1526    4068.5605   -1309.1789    115.79814    -1424.977   0.18218875 
   14200    299.46704   -676.19487    4152.4048   -1305.8673     113.3671   -1419.2344   0.16040553 
   14400     330.0299   -1754.7338     4191.495   -1314.9904    124.93707   -1439.9274    0.1516428 
   14600    270.56959    1133.7483      4096.14   -1316.3798     102.4276   -1418.8074   0.15728895 
   14800    301.73733    1492.6998    4075.1428   -1316.2497    114.22655   -1430.4763   0.14420617 
   15000    306.05343   -1074.1018    4173.0648   -1315.4398    115.86047   -1431.3003   0.15542712 
   15200    271.57804   -1182.4685    4177.6675   -1324.6604    102.80936   -1427.4698   0.14117642 
   15400    305.72487    1451.2978     4075.921   -1322.6199    115.73609    -1438.356   0.12719718 
   15600    304.62612    1290.1493    4085.1409   -1325.9839    115.32014    -1441.304   0.12936332 
   15800    280.89814   -1500.5295    4182.0141   -1322.4981    106.33761   -1428.8357   0.14249561 
   16000    278.54694   -952.37876    4157.7157    -1319.036    105.44753   -1424.4836   0.15947413 
   16200    289.05148    1406.8308    4069.2951   -1315.9277    109.42416   -1425.3518   0.15281362 
   16400    288.49502    298.32726    4099.5788   -1314.1077    109.21351   -1423.3212   0.16808693 
   16600    303.04869   -1374.5198    4177.2533   -1321.9512    114.72298   -1436.6742   0.13159083 
   16800    316.00673   -79.815481    4136.7986   -1318.2003    119.62842   -1437.8288   0.11590652 
   17000    276.46164    1020.9116    4081.6003   -1325.1906    104.65811   -1429.8487   0.14934271 
   17200    271.86516    38.711143    4126.5051   -1326.7745    102.91806   -1429.6925   0.12808972 
   17400    276.55411   -1297.8038     4164.959   -1337.1266    104.69312   -1441.8197   0.14414049 
   17600    250.63685    51.942472    4114.0984   -1341.4568    94.881808   -1436.3386   0.13795384 
   17800    267.48928    1007.8651    4088.5695   -1339.1423    101.26151   -1440.4038   0.11570112 
   18000    310.78465   -242.63179    4140.2884   -1336.8297    117.65153   -1454.4812   0.10450609 
   18200    286.18595   -560.58787    4156.5332   -1336.2745    108.33938   -1444.6139  0.084865006 
   18400     238.3669    516.15871    4108.2972    -1337.068    90.236861   -1427.3049   0.11692506 
   18600    286.57987     621.9081    4099.7625   -1330.3934     108.4885   -1438.8819   0.12985481 
   18800    285.70955   -436.84244     4143.731   -1317.1452    108.15903   -1425.3042   0.14695349 
   19000      277.173   -669.12367    4145.5397   -1312.8199    104.92741   -1417.7473   0.18855314 
   19200    318.62184    531.76616    4106.2333   -1312.1727     120.6184   -1432.7911   0.13102708 
   19400     322.1772    499.33768    4112.4637   -1312.3227    121.96433    -1434.287   0.12229036 
   19600     303.1829   -365.82421    4153.0408   -1312.7357    114.77379   -1427.5095   0.13068802 
   19800    303.57994   -435.77511    4140.0808   -1315.0308     114.9241   -1429.9549   0.13514632 
   20000     305.1108    548.13114    4100.1044   -1313.1815    115.50362   -1428.6852   0.18179702 
   20200     269.4752    156.78248    4115.4691   -1322.4046    102.01331    -1424.418   0.16190703 
   20400    296.88388   -594.06273    4151.8116   -1319.3092    112.38921   -1431.6984   0.13110029 
   20600    308.14301    -194.6446    4134.4099   -1311.5542    116.65151   -1428.2057   0.14503929 
   20800    282.66758    486.05095    4102.9714   -1312.4624    107.00745   -1419.4699   0.13593799 
   21000    300.98411   -175.38801    4125.1538   -1317.0333    113.94141   -1430.9747   0.14787575 
   21200    280.30098   -714.91854    4150.9744   -1316.2935    106.11155    -1422.405   0.17693773 
   21400    288.76945    435.51497    4118.9306   -1315.2729    109.31739   -1424.5903   0.14818415 
   21600    272.43865    674.04592    4104.5237   -1309.5532    103.13516   -1412.6883   0.18678448 
   21800    305.66348   -564.63539    4143.2401   -1311.1683    115.71285   -1426.8811   0.14564831 
   22000    356.81536   -616.41355    4148.9511   -1310.5186    135.07705   -1445.5957   0.12815401 
   22200     295.0112    352.07681    4106.4646   -1307.2681    111.68029   -1418.9484    0.1817974 
   22400    308.31993    598.20579    4105.3401   -1302.1438    116.71848   -1418.8622    0.1641501 
   22600    300.35208   -481.36999    4148.8662   -1313.3789    113.70215   -1427.0811   0.17546258 
   22800      301.269   -396.48163    4137.7687   -1319.2166    114.04926   -1433.2659   0.14356847 
   23000    278.73471    959.39828      4090.13    -1322.845    105.51862   -1428.3636   0.13875588 
   23200    261.56353    384.02746    4113.8246   -1324.1353    99.018243   -1423.1536   0.15436591 
   23400    280.97504   -1045.5622    4160.8121    -1322.715    106.36672   -1429.0817   0.13339946 
   23600    262.96278    39.502428    4128.1298   -1326.0369    99.547946   -1425.5848   0.14485324 
   23800    300.30477    1171.2072    4081.4763   -1325.1612    113.68424   -1438.8454   0.14115826 
   24000     277.3766    118.05625    4122.4993   -1324.5675    105.00448    -1429.572   0.13070079 
   24200    298.21563    -1173.794    4169.8965   -1322.7068    112.89336   -1435.6002   0.15673565 
   24400    290.64965    398.11492    4113.6437   -1330.1155    110.02917   -1440.1447   0.11330079 
   24600    277.00323    1638.5063    4068.3629   -1332.2035    104.86314   -1437.0667   0.13472615 
   24800     277.8778   -709.00431    4151.4761   -1322.2271    105.19422   -1427.4213   0.14668328 
   25000    254.76026   -1768.0869    4198.3382   -1319.1513    96.442779   -1415.5941   0.15407848 
   25200    266.27649     1019.899    4089.7677   -1321.7239    100.80239   -1422.5263   0.17716863 
   25400       278.36    2165.1795    4048.4127   -1330.3125    105.37676   -1435.6892    0.1420612 
   25600    306.90971   -1224.0162    4174.8187   -1332.8007    116.18462   -1448.9853   0.11817554 
   25800     270.4901    -2053.378     4198.954   -1336.2677    102.39751   -1438.6652   0.13001208 
   26000    260.84755     1808.106    4053.4019   -1333.4334    98.747198   -1432.1806   0.12393393 
   26200    252.14107    1926.5243    4052.7971   -1340.4922    95.451247   -1435.9435   0.14127665 
   26400    277.76489   -2066.5454    4202.7843    -1337.317    105.15148   -1442.4685   0.13496519 
   26600    248.50564   -1604.5607    4176.3253   -1341.8011     94.07501   -1435.8761   0.13624735 
   26800    276.87149    2530.9806    4030.6559   -1339.8154    104.81327   -1444.6287   0.15451852 
   27000    260.11391    1190.1218    4074.6922   -1343.4451    98.469472   -1441.9146   0.12289257 
   27200    282.49816   -2341.7214    4208.1725   -1342.6657    106.94332    -1449.609   0.11872812 
   27400    264.30089   -757.13567    4149.7801   -1337.9752    100.05451   -1438.0297   0.13051767 
   27600    287.59274     2384.697    4044.2299   -1334.1989    108.87194   -1443.0709   0.11588184 
   27800    266.71395      264.007    4111.2512   -1332.1178      100.968   -1433.0858   0.13958698 
   28000      255.834   -2094.0006    4195.5642   -1327.5984    96.849256   -1424.4476   0.15838328 
   28200    272.72012    -118.7957    4122.3081   -1329.1598    103.24171   -1432.4015   0.13982715 
   28400    294.07128    1857.4618    4058.9453   -1324.9883    111.32447   -1436.3128   0.13989679 
   28600     286.7415   -248.19477    4136.9676   -1326.1952    108.54969   -1434.7449   0.12123575 
   28800    283.51153   -1349.9503    4183.2376   -1324.9902    107.32694   -1432.3171   0.14135078 
   29000    281.94715    477.02621    4103.6798   -1326.0804    106.73472   -1432.8151   0.15458849 
   29200    296.58883    1320.0679    4070.6797   -1331.9484    112.27752   -1444.2259   0.13033823 
   29400    284.39008   -799.15641    4146.5364   -1333.5363    107.65953   -1441.1958   0.13838519 
   29600    311.03491   -1247.8374    4167.2173   -1331.2938    117.74627   -1449.0401   0.11996362 
   29800    298.07449    903.28575    4088.0208    -1328.275    112.83994    -1441.115   0.12222451 
   30000    288.57265    1264.6364     4082.119   -1322.7988    109.24289   -1432.0417   0.14025497 
   30200    306.29644   -774.99218    4163.5457   -1316.0494    115.95246   -1432.0019   0.12757642 
   30400    271.47629   -1009.9304    4162.5243   -1323.5075    102.77085   -1426.2784    0.1524484 
   30600    259.94244    1260.1644    4083.4514     -1324.22    98.404558   -1422.6246   0.15177837 
   30800    319.28535    603.99609    4097.8107   -1315.0436    120.86958   -1435.9132   0.14001253 
   31000    293.40579   -1397.9345     4176.479   -1316.3047    111.07254   -1427.3773   0.14900037 
   31200    294.48616   -494.12022    4149.1311   -1310.2212    111.48153   -1421.7027   0.14395374 
   31400    311.81525    1533.1661    4075.1758   -1313.2339    118.04168   -1431.2756   0.14427633 
   31600    300.65207    296.26543    4115.4648   -1315.3371    113.81571   -1429.1528   0.14946407 
   31800    262.76456   -1527.2703       4178.9   -1309.8742    99.472909   -1409.3471   0.17312432 
   32000    266.94722    -175.5675    4128.3049   -1314.8383    101.05631   -1415.8946   0.16251623 
   32200    305.75942    1517.1789    4074.9291   -1319.8421    115.74917   -1435.5912   0.13491041 
   32400    313.55724   -211.49178    4134.4025    -1315.796    118.70113   -1434.4971   0.13313603 
   32600     307.0658   -1275.9976    4179.9562   -1309.4957    116.24371   -1425.7394   0.14685534 
   32800    289.45935    267.66083    4113.5189   -1316.4058    109.57856   -1425.9843   0.13873558 
   33000    333.42347    1664.4394     4071.921   -1312.9767    126.22175   -1439.1984   0.13695628 
   33200    279.99365   -512.21453    4147.3344   -1322.2962     105.9952   -1428.2914   0.13435866 
   33400    315.14088   -1255.9949     4174.586   -1322.5146    119.30064   -1441.8152   0.12976136 
   33600    299.91258    756.04549    4094.9196   -1317.0692    113.53577   -1430.6049   0.14859871 
   33800    316.15704    1004.4396    4087.2966   -1309.3496    119.68532   -1429.0349   0.14621692 
   34000    289.66554   -1212.2738     4170.735   -1318.9518    109.65662   -1428.6084   0.13823211 
   34200     284.5605   -1018.1309    4164.3332   -1324.1883    107.72404   -1431.9123   0.13765002 
   34400    263.62951    1363.3464    4079.5789   -1334.9982    99.800346   -1434.7985   0.11720226 
   34600    255.95548    898.86726    4095.3565   -1341.8664    96.895242   -1438.7617   0.11525224 
   34800    260.71439   -1293.8412     4171.994   -1337.9243    98.696789    -1436.621   0.12511674 
   35000    273.11198   -625.49232     4142.416   -1344.7718    103.39006   -1448.1619   0.10710607 
   35200    258.90542    1305.4185    4072.6517   -1345.8707     98.01198   -1443.8827   0.12774677 
   35400    272.84303    331.45096    4108.3182   -1343.3543    103.28824   -1446.6425   0.12433399 
   35600     257.9186   -1218.8345    4165.7194   -1347.7538    97.638406   -1445.3922    0.1182403 
   35800    293.43402   -225.13525    4125.5721   -1340.3511    111.08323   -1451.4343   0.12488177 
   36000    269.28205    934.06839    4085.0352   -1341.3891    101.94019   -1443.3293   0.14070936 
   36200    277.28145   -90.802465    4126.4165   -1339.4142    104.96846   -1444.3827   0.11252573 
   36400    235.74676   -1072.8413    4156.1363   -1344.5445    89.244972   -1433.7895   0.14898912 
   36600    289.55718    322.54011    4115.5875   -1330.6492     109.6156   -1440.2648   0.12499655 
   36800     275.9389    803.68529    4100.7036   -1336.4819    104.46022   -1440.9421   0.11231721 
   37000     278.0543   -169.15301    4135.0911   -1327.1035    105.26104   -1432.3645   0.13760063 
   37200    320.07943   -524.12897    4146.7118    -1324.635    121.17019   -1445.8052   0.12887863 
   37400    289.24171     190.2061    4117.4375   -1330.0834    109.49618   -1439.5796   0.13402225 
   37600    268.34039    445.25677    4110.6576   -1327.8904    101.58371   -1429.4741   0.14992921 
   37800    275.61337   -443.14812    4135.3671    -1330.243    104.33699   -1434.5799   0.13857158 
   38000    281.64654   -366.36064    4133.9483   -1328.0594    106.62092   -1434.6803   0.14290149 
   38200    306.50163    433.51154    4113.8012   -1330.3521    116.03014   -1446.3822   0.13514809 
   38400    284.54198    120.22156    4123.8666   -1335.2596    107.71703   -1442.9766   0.11409564 
   38600    265.08823   -576.74448    4138.6768    -1323.352    100.35256   -1423.7046   0.18265609 
   38800    270.26842   -34.942018    4130.0947   -1322.2011    102.31359   -1424.5147   0.14688941 
   39000     275.0986    75.282734    4113.2821    -1329.216    104.14212   -1433.3582   0.15731487 
   39200    281.78365   -40.695352    4119.8998   -1329.5415    106.67283   -1436.2143   0.15367342 
   39400    313.04129   -336.71893    4140.7806   -1326.6606    118.50581   -1445.1665   0.11952343 
   39600    295.21754   -229.88764    4132.2315   -1335.6763     111.7584   -1447.4347   0.13940722 
   39800    290.61355    467.60468    4108.5764   -1341.1217     110.0155   -1451.1372   0.12289932 
   40000    275.03038    309.98957    4117.8097   -1337.4823    104.11629   -1441.5986   0.13646504 
   40200    263.67217   -405.64059    4139.6093   -1332.3943    99.816494   -1432.2108   0.16344455 
   40400     273.1491    -401.4897    4129.2499   -1320.6154    103.40411   -1424.0195   0.16476737 
   40600    308.17339    604.94843    4111.5048    -1319.035    116.66301    -1435.698   0.13718711 
   40800    307.25765    49.126987    4125.6617   -1315.1948    116.31634   -1431.5111   0.16921749 
   41000    293.02884   -450.71204     4139.556   -1325.7023    110.92984   -1436.6321   0.13452766 
   41200    280.03881   -313.54296    4126.0289   -1329.2288     106.0123   -1435.2411   0.15520463 
   41400    318.47279    725.84305    4103.2131   -1329.1548    120.56198   -1449.7167   0.14405628 
   41600    282.80664    115.98556    4119.0903    -1327.263     107.0601   -1434.3231   0.13565437 
   41800    273.47788   -800.58518    4148.4459   -1325.6981    103.52857   -1429.2267   0.16524161 
   42000    315.19121   -54.871315    4129.1681   -1322.8474    119.31969   -1442.1671    0.1393184 
   42200    342.14741    815.64782    4101.0042   -1323.9578    129.52431   -1453.4821   0.11871594 
   42400    284.08436    46.338914    4126.1946   -1322.4545    107.54379   -1429.9983    0.1507923 
   42600    278.26099   -862.30706    4159.9059   -1328.9937    105.33928   -1434.3329   0.12442802 
   42800    253.11546   -179.59688    4129.2768   -1333.9984    95.820116   -1429.8186   0.14689448 
   43000    269.94323    1228.9422    4086.7105   -1337.9682    102.19049   -1440.1587   0.13019608 
   43200    279.26154    -12.34382    4124.3331   -1341.3738    105.71805   -1447.0918   0.12209035 
   43400    267.65283   -1176.6255    4165.4477   -1338.4113    101.32343   -1439.7347    0.1623775 
   43600    256.33488    239.81998    4109.1061   -1338.0603     97.03887   -1435.0992   0.15566222 
   43800    276.57662    1313.7392    4070.1935   -1335.1317    104.70164   -1439.8333   0.14452404 
   44000     269.6286   -868.33533    4147.2842   -1335.8087    102.07138     -1437.88   0.16775005 
   44200    254.41481   -1273.4794    4176.3965   -1339.0572    96.312001   -1435.3692   0.12249348 
   44400    258.96625    1229.4943      4083.62   -1344.7808    98.035009   -1442.8158   0.13339779 
   44600    283.99733    1422.2128    4069.3701   -1343.7898    107.51085   -1451.3006   0.13391613 
   44800    282.75725   -1581.1978    4175.2009   -1341.3345     107.0414   -1448.3759   0.12171771 
   45000    254.44904   -1248.0839    4171.4181   -1334.6168    96.324959   -1430.9418   0.15818316 
   45200    278.53197    1678.3156    4061.1126   -1338.7332    105.44187    -1444.175   0.15417008 
   45400    236.69415    1015.3224    4080.7501   -1340.2915    89.603617   -1429.8951   0.14880381 
   45600    268.86428   -1770.3891    4187.7498   -1340.4695    101.78203   -1442.2515   0.13484107 
   45800    280.80825   -956.00786     4154.419   -1342.8548    106.30358   -1449.1583   0.13013182 
   46000     279.2753    1810.8616    4051.1154   -1344.1576    105.72326   -1449.8808   0.13042657 
   46200    275.77233    673.34367    4092.6773   -1340.6867    104.39717   -1445.0839   0.14891388 
   46400    263.85211   -1685.0665    4178.0593   -1347.6591    99.884612   -1447.5437    0.1563814 
   46600    264.94266    -195.4619    4117.9064   -1350.2307    100.29745   -1450.5281   0.14377775 
   46800    273.69747    1870.1436    4043.6497   -1348.0915     103.6117   -1451.7032   0.16895798 
   47000    267.69575   -243.57424    4112.6129   -1338.5114    101.33967    -1439.851     0.162203 
   47200    284.35442   -1868.8335    4181.2971   -1337.0733    107.64603   -1444.7193   0.13978123 
   47400    302.93488    390.69415     4109.923   -1332.3127     114.6799   -1446.9926    0.1496922 
   47600    273.48539     1845.301    4059.0744    -1331.158    103.53142   -1434.6894   0.13276954 
   47800    294.44612   -487.36358    4136.7787   -1325.1827    111.46637    -1436.649   0.18089148 
   48000    272.99389   -1533.1686    4175.4664   -1318.2252    103.34535   -1421.5706    0.1847836 
   48200      295.285    722.30277    4100.7288   -1318.6555    111.78394   -1430.4394   0.16553919 
   48400    315.46432    1156.5483    4078.5437   -1314.9136    119.42308   -1434.3367   0.18462404 
   48600     297.4291   -705.77385    4147.5925   -1311.5044    112.59562      -1424.1   0.16771249 
   48800    304.70113   -953.86194    4159.3365    -1317.915    115.34854   -1433.2635   0.16214595 
   49000    319.75746     727.7589     4092.389   -1308.2865     121.0483   -1429.3348   0.19927079 
   49200    290.99506    517.01608    4089.4024    -1315.153    110.15993   -1425.3129   0.19128989 
   49400    270.47815   -811.32427    4145.0096   -1313.6899    102.39299   -1416.0829   0.20822766 
   49600    288.80182   -642.50222    4143.7801   -1315.2527    109.32965   -1424.5824   0.16872045 
   49800    297.78078    602.50651    4091.3449   -1323.6431    112.72875   -1436.3718   0.15801343 
   50000    283.77154    367.67471    4096.7204   -1321.2195    107.42537   -1428.6449   0.16727613 
   50200    293.70835   -730.22412    4149.5273   -1313.2952    111.18708   -1424.4823    0.1791761 
   50400    271.59174   -753.40792    4141.9212   -1318.0602    102.81455   -1420.8747   0.20362323 
   50600     276.7521    875.51059    4091.5983   -1320.1279    104.76807   -1424.8959   0.17377662 
   50800    283.60851    326.27664    4108.3432   -1327.7668    107.36365   -1435.1304   0.15448513 
   51000    297.24702   -1018.7486    4156.1803   -1324.1481    112.52669   -1436.6748   0.14980818 
   51200    309.59439   -63.994033     4133.374   -1311.5872    117.20094   -1428.7882   0.14031009 
   51400    319.85203    735.44305    4100.1287   -1310.1306    121.08411   -1431.2147   0.18434412 
   51600     302.1729    -30.99845    4129.0704   -1313.5891    114.39144   -1427.9806   0.16173555 
   51800    278.45111   -586.89248    4150.0642   -1314.8753    105.41125   -1420.2866   0.16446117 
   52000    263.83098     379.0439    4117.8983   -1320.3374    99.876615    -1420.214   0.16518038 
   52200    293.30969    299.54119    4108.6456   -1314.4479    111.03616   -1425.4841   0.16481991 
   52400    298.20212   -525.20225    4138.4088   -1319.9378    112.88825   -1432.8261   0.17304278 
   52600    299.60566   -266.89015    4138.6326   -1315.2933    113.41958   -1428.7129   0.17428565 
   52800    295.81209   -13.178355    4117.2879   -1323.4043    111.98348   -1435.3878   0.16795371 
   53000    287.31114    164.45527    4114.7318   -1321.6543    108.76533   -1430.4196   0.18247419 
   53200    273.65559    -272.7131    4133.3243   -1324.4153    103.59585   -1428.0112   0.16739693 
   53400    312.49953   -334.85785    4130.6764   -1324.9797    118.30072   -1443.2804   0.16157839 
   53600    276.25915    278.36365    4111.8887   -1332.0669    104.58146   -1436.6483    0.1616112 
   53800    271.38838    264.34892      4115.77   -1334.0819    102.73757   -1436.8194    0.1468943 
   54000    292.52404   -187.25586    4132.2919   -1333.4971    110.73874   -1444.2358   0.14872524 
   54200    277.49714   -42.661543    4127.4433   -1333.7718    105.05012   -1438.8219   0.15186559 
   54400    266.32975     354.3785    4113.4096   -1329.7051    100.82256   -1430.5276   0.14763648 
   54600    303.40586    68.066939    4123.3255   -1333.2023     114.8582   -1448.0605   0.13920917 
   54800    286.11219   -129.61994    4133.5959   -1328.3766    108.31145   -1436.6881   0.15497738 
   55000    283.80824    204.75584    4119.6778   -1332.7245    107.43926   -1440.1638   0.13584492 
   55200    285.10812    137.85256    4112.0743   -1339.8688    107.93135   -1447.8002   0.14813878 
   55400    281.31664   -67.237564    4128.3704   -1338.4138    106.49604   -1444.9099   0.14762966 
   55600    273.26572   -298.10339    4133.5787    -1338.527    103.44826   -1441.9753   0.13261116 
   55800    243.62982    151.42139    4118.0426   -1340.4422    92.229206   -1432.6714    0.1591009 
   56000    262.01402    311.84274    4120.2696   -1337.9261    99.188782   -1437.1149   0.13273332 
   56200    282.86594    -221.1453    4137.3106   -1329.3462    107.08254   -1436.4288   0.14118514 
   56400    296.99692   -135.60016    4134.5789   -1332.3045    112.43201   -1444.7365   0.13877199 
   56600    320.30678     188.5343    4118.0255   -1330.0942    121.25626   -1451.3505   0.12251719 
   56800    284.68195    276.32235    4123.5358   -1327.7764    107.77002   -1435.5464   0.13330557 
   57000    293.44721   -386.58109     4142.793    -1317.777    111.08822   -1428.8652   0.18326433 
   57200     276.0825   -275.42322    4137.9623   -1322.3564    104.51459    -1426.871   0.16062927 
   57400    284.10202    120.31225    4114.6776   -1326.0852    107.55048   -1433.6357    0.1789676 
   57600     285.9222    225.07269    4118.8929   -1327.0095    108.23953    -1435.249    0.1572323 
   57800    272.50558   -486.60631     4144.962   -1332.1795     103.1605     -1435.34   0.13260559 
   58000    256.24117   -365.34449     4130.558   -1339.3679    97.003393   -1436.3712   0.15441655 
   58200    264.62128    694.23078    4101.8226    -1335.088    100.17579   -1435.2638   0.14665171 
   58400    278.81042    30.758262    4125.8892   -1339.0597    105.54727   -1444.6069   0.12801132 
   58600     279.6516   -1027.6271    4157.1525   -1335.9639    105.86571   -1441.8296   0.16918151 
   58800    271.19431    67.573657    4119.4367   -1338.8133     102.6641   -1441.4774   0.14286186 
   59000    280.50431    1197.5787    4083.3308   -1337.4619    106.18852   -1443.6504   0.13495022 
   59200    269.92382   -509.34213     4139.758   -1348.3938    102.18314    -1450.577   0.13424914 
   59400    279.69525    -1208.627    4170.9301    -1344.304    105.88224   -1450.1862   0.11751024 
   59600    260.43531    1016.1881    4092.5143   -1341.7839    98.591141    -1440.375   0.12065584 
   59800     270.4655    1410.1053    4076.3168   -1338.9949     102.3882   -1441.3831   0.12869838 
   60000    290.17641   -1257.3516    4175.4411   -1332.1675    109.85002   -1442.0175   0.12426002 
   60200    296.01823   -1362.1921    4177.0371   -1324.7691    112.06151   -1436.8306   0.14922851 
   60400    279.32957    1542.7857     4068.026   -1320.5613    105.74381   -1426.3051   0.16438828 
   60600    284.22442    1103.6051    4084.1375   -1317.6072    107.59681    -1425.204   0.18296031 
   60800    304.28778   -1948.1877    4195.6429   -1322.0184    115.19206   -1437.2105   0.16679044 
   61000    309.08548   -473.75775    4153.3191    -1316.494    117.00829   -1433.5023   0.15397345 
   61200    291.70436    1981.6779    4050.0051   -1318.4993    110.42844   -1428.9277   0.16702159 
   61400    303.08718    372.90218     4106.618   -1321.7482    114.73756   -1436.4857   0.15851937 
   61600    295.50172   -2386.8925    4198.9258   -1319.7527    111.86598   -1431.6187   0.16295238 
   61800    301.92456     258.0485    4127.3073   -1317.8561    114.29743   -1432.1536   0.15909839 
   62000    286.57231    1723.2606    4054.6594   -1319.2429    108.48564   -1427.7285   0.19088174 
   62200    297.59892   -171.43359    4136.6758   -1321.9197     112.6599   -1434.5797   0.13720475 
   62400    266.28032   -1677.2663    4196.8794   -1317.2117    100.80384   -1418.0155   0.15920324 
   62600    290.56597    456.42636    4109.2029   -1321.8682    109.99749   -1431.8657     0.153666 
   62800    308.30291    1841.9798    4064.5654   -1325.8755    116.71204   -1442.5876   0.13038881 
   63000    289.15537   -745.91232    4152.4421   -1323.7952    109.46349   -1433.2587   0.15708683 
   63200     309.5673   -1624.6631    4182.2094   -1316.4943    117.19069   -1433.6849   0.16506879 
   63400    278.75901    809.79887    4092.9801   -1320.3897    105.52781   -1425.9175   0.16602276 
   63600     307.1275    1230.5098    4076.3179   -1318.0173    116.26707   -1434.2844   0.17563925 
   63800    301.96409   -1003.6014    4164.3844   -1309.9317     114.3124   -1424.2441   0.15778803 
   64000    275.38351   -1480.1383    4168.0389   -1320.3829    104.24997   -1424.6329    0.1889813 
   64200    305.47044    1088.3972    4080.1837    -1318.306    115.63977   -1433.9458   0.17708741 
   64400     315.2047    999.84411    4086.2165   -1320.2254     119.3248   -1439.5502    0.1511577 
   64600    248.89312   -1238.3645    4154.1315   -1317.4302    94.221696   -1411.6519   0.23127286 
   64800    254.51817   -665.97359    4142.7875   -1324.3399    96.351131    -1420.691    0.1710554 
   65000    270.81912    644.78563    4090.0656   -1325.2956    102.52207   -1427.8176   0.18228593 
   65200    280.39448    58.166869    4106.9223    -1325.338    106.14694   -1431.4849   0.18018566 
   65400    294.91751   -773.73657    4154.4077   -1326.6375    111.64482   -1438.2823   0.13488995 
   65600    281.40071   -492.53572    4131.8478   -1330.0203    106.52786   -1436.5482   0.18285032 
   65800    256.11954    642.50079    4088.4263   -1332.6349    96.957349   -1429.5922   0.16796327 
   66000    265.96966    192.65675    4111.6792    -1329.406    100.68624   -1430.0923    0.1713929 
   66200    281.90472   -1059.4837    4155.6647   -1325.2958    106.71866   -1432.0145   0.20387064 
   66400    299.27732   -421.41008    4130.5882   -1330.0308    113.29528   -1443.3261    0.1343679 
   66600    286.60377    777.58144    4093.6998   -1328.3752    108.49755   -1436.8727    0.1677834 
   66800    276.05225    38.231544    4125.5102   -1332.7069    104.50313     -1437.21   0.13591127 
   67000    277.83403     -497.324    4152.5192   -1327.2737    105.17765   -1432.4513   0.12345209 
   67200    307.90668    279.09606     4119.099    -1321.983    116.56204    -1438.545   0.16861204 
   67400    273.81288    699.80173    4101.4094   -1322.4303    103.65539   -1426.0857   0.14422099 
   67600     265.5023   -243.94413    4136.5215   -1326.4523    100.50932   -1426.9616    0.1438919 
   67800    304.18222   -559.59619     4146.265   -1325.5031     115.1521   -1440.6552   0.17639385 
   68000    305.19376    456.09526    4111.6397   -1326.2324    115.53503   -1441.7675   0.12217079 
   68200    289.16352    271.73382    4112.4192   -1314.9463    109.46657   -1424.4129   0.18245154 
   68400    293.89262   -654.98461    4149.7533   -1317.6262    111.25684   -1428.8831   0.14962258 
   68600    303.41414   -135.55801    4143.0407   -1321.1537    114.86133   -1436.0151     0.119075 
   68800    321.15556    624.62922    4111.5843    -1321.058    121.57757   -1442.6356    0.1627557 
   69000    314.20161    437.01792    4122.9165    -1314.154    118.94506   -1433.0991   0.13526713 
   69200    293.13164   -699.54532    4152.2712   -1320.1484    110.96876   -1431.1171   0.16376383 
   69400    284.47947   -157.16316    4134.0399   -1318.3812    107.69337   -1426.0745   0.18303581 
   69600    297.67216    683.63134    4107.9094   -1323.6039    112.68763   -1436.2915   0.12826749 
   69800     276.2058   -280.21846    4127.3443   -1326.6565    104.56126   -1431.2178   0.18853566 
   70000    293.60676   -334.71181    4147.2324    -1322.658    111.14862   -1433.8066   0.12306569 
   70200    298.18695    94.108968    4131.1586   -1324.1482    112.88251   -1437.0307   0.12045666 
   70400    253.72981    294.08615    4115.5159   -1322.9878    96.052688   -1419.0405   0.17655933 
   70600    259.80103   -9.3759068    4135.9973    -1323.307    98.351026   -1421.6581    0.1257119 
   70800    269.92322    -470.7456    4146.8948   -1319.2243    102.18291   -1421.4072   0.15898679 
   71000    308.34628    74.142757    4126.9075   -1318.4194    116.72845   -1435.1478   0.14622116 
   71200    297.26434    518.72512     4116.416   -1324.5642    112.53324   -1437.0975    0.1205305 
   71400    294.10196   -248.93917    4131.0665   -1328.4786    111.33608   -1439.8147   0.17865177 
   71600    289.85148   -207.13714    4134.9291   -1326.9919    109.72701   -1436.7189   0.12486909 
   71800    305.28952   -87.052748    4124.8179    -1322.097    115.57128   -1437.6683   0.16517232 
   72000    275.58557   -58.783521    4118.1483   -1333.6787    104.32647   -1438.0052   0.16594248 
   72200    262.20606    58.660236    4122.0855   -1333.2809     99.26148   -1432.5424   0.11495797 
   72400    272.60192   -316.84128    4128.2492   -1340.4147    103.19697   -1443.6116   0.14330629 
   72600    300.74797    128.72869    4121.3589   -1333.7797    113.85202   -1447.6317   0.12093311 
   72800    257.48925    271.61998     4117.388   -1335.2417     97.47587   -1432.7176   0.12418031 
   73000     255.3131   -159.29343    4130.3717   -1337.3218     96.65206   -1433.9738   0.16423942 
   73200    268.83386   -118.54334    4130.0847   -1333.2711    101.77052   -1435.0416   0.12566449 
   73400    254.64437    252.30314    4113.0921   -1335.5115    96.398906   -1431.9104   0.16637384 
   73600    239.84513   -78.211281    4116.5648   -1339.6552    90.796464   -1430.4516   0.16384291 
   73800    279.84405   -50.582354    4127.1297   -1331.3831    105.93857   -1437.3217   0.11950131 
   74000    313.34917    59.502714    4124.8184   -1327.1081    118.62236   -1445.7305   0.14790232 
   74200    267.87017   -127.71151    4122.7431   -1334.6405     101.4057   -1436.0462   0.12743255 
   74400    286.11594   -58.915744    4123.2349   -1335.0524    108.31287   -1443.3653   0.13793105 
   74600    294.09496   -18.393907    4121.0937   -1325.5245    111.33343    -1436.858   0.17802615 
   74800    286.18862   -81.741243    4120.6994   -1331.1949    108.34039   -1439.5352   0.14792091 
   75000    288.63411   -98.730603    4124.2401   -1328.3769    109.26616    -1437.643   0.15630822 
   75200    323.78051   -150.84777    4127.8944   -1326.8268    122.57128   -1449.3981    0.1468085 
   75400    317.36649   -90.580338    4128.1791   -1320.0579    120.14317   -1440.2011   0.13476881 
   75600    289.51087    125.66742    4123.0861   -1326.0508    109.59807   -1435.6489   0.15395557 
   75800    315.28543    278.17974    4118.6191   -1325.7262    119.35536   -1445.0816   0.14051397 
   76000    296.58226    92.455241     4120.285   -1327.8161    112.27503   -1440.0911   0.12459951 
   76200    314.11521   -219.47822    4125.9312   -1324.0929    118.91236   -1443.0053   0.16524945 
   76400    311.22563     36.10066    4123.1661   -1324.3316    117.81847     -1442.15   0.13253876 
   76600    305.17183    105.41849    4117.9091   -1326.2174    115.52673   -1441.7441   0.14328212 
   76800    281.10762   -168.96692    4122.8047   -1332.0784    106.41691   -1438.4953   0.17174261 
   77000    274.92096   -41.737661    4124.4766   -1332.6137    104.07487   -1436.6886   0.13820077 
   77200    259.25865    309.75263    4113.6675   -1324.4648      98.1457   -1422.6105   0.17571301 
   77400    285.96324    12.845873    4114.9146   -1328.8387    108.25507   -1437.0937   0.15798809 
   77600    277.85501   -233.45883     4119.485   -1339.6562    105.18559   -1444.8418   0.12688283 
   77800    291.59245    164.85682     4116.766   -1336.7823    110.38608   -1447.1684   0.16587137 
   78000     289.8968    25.387439    4121.7514   -1331.7044    109.74417   -1441.4485   0.13632021 
   78200    310.80711   -159.77154    4126.9869   -1329.6213    117.66003   -1447.2813   0.14673873 
   78400     288.0935    38.903438      4116.15   -1328.1142     109.0615   -1437.1757    0.1848272 
   78600     311.3901    198.50508    4110.9893   -1329.8217    117.88073   -1447.7025    0.1285246 
   78800    312.16099    -79.88646     4122.673     -1323.34    118.17256   -1441.5126   0.18013136 
   79000    314.57174   -104.19468    4124.7712   -1322.8727    119.08518   -1441.9579   0.14969412 
   79200    303.05659    20.452087    4113.3203   -1323.2355    114.72598   -1437.9615   0.15853852 
   79400    280.12619   -144.51939    4107.9799    -1315.515    106.04538   -1421.5604   0.23870683 
   79600    319.64109    169.83499    4116.1405   -1319.7264    121.00425   -1440.7307    0.1440737 
   79800    305.00822   -224.50725    4125.9829   -1316.0551    115.46479   -1431.5199   0.21024385 
   80000    280.95877   -260.11176    4122.9338   -1317.6498    106.36056   -1424.0104   0.18967701 
   80200    309.33843     176.9132    4121.2554   -1314.1511    117.10404   -1431.2551   0.14311069 
   80400    307.62545   -56.657325    4125.7545   -1308.2629    116.45558   -1424.7185   0.19336821 
   80600    299.51328     -186.918    4128.2607   -1307.5288    113.38461   -1420.9135   0.15517994 
   80800    299.39717    118.22576     4119.085   -1309.5115    113.34066   -1422.8522   0.18486989 
   81000    309.49833     556.4174    4112.3102   -1308.6307    117.16458   -1425.7953   0.16845217 
   81200     312.5986    185.59123    4121.0989   -1307.7233    118.33823   -1426.0615   0.15998058 
   81400    302.78272   -174.13281    4128.9942   -1305.9161     114.6223   -1420.5384   0.21196632 
   81600    303.30134    65.966405    4122.0155   -1309.6344    114.81863    -1424.453   0.16367582 
   81800    308.22692    455.93912    4115.2234   -1304.0609    116.68327   -1420.7442   0.18525188 
   82000    285.55202    82.195047     4130.255   -1309.5643    108.09939   -1417.6637   0.20469729 
   82200    310.69552   -880.30936     4148.641   -1306.6606    117.61779   -1424.2784   0.18749547 
   82400    302.94375    6.7232204    4128.7112   -1307.2547    114.68326    -1421.938    0.1857879 
   82600    297.80629    611.21209    4107.9426   -1311.5325    112.73841   -1424.2709   0.17930137 
   82800    298.55808    44.574714    4128.9837   -1309.1182      113.023   -1422.1412   0.18497357 
   83000    289.26856   -273.87495    4145.0442   -1312.7179    109.50634   -1422.2242   0.18130258 
   83200    330.04205    510.16425    4113.8572   -1312.7717    124.94167   -1437.7133    0.1567041 
   83400    316.48586    473.95966    4101.6274   -1309.4938     119.8098   -1429.3036    0.1991678 
   83600    288.59737   -301.47932     4134.049   -1315.8584    109.25225   -1425.1107    0.1690094 
   83800     291.9565   -662.91828    4138.9614   -1322.8424    110.52389   -1433.3663   0.19443988 
   84000    295.23784    819.50369    4095.6018   -1321.6017    111.76609   -1433.3678   0.16772427 
   84200    291.03733    505.08857    4097.7571   -1319.6264    110.17593   -1429.8023    0.1837683 
   84400    284.05962   -795.81707    4148.2821   -1317.5961    107.53443   -1425.1305   0.18278562 
   84600    308.21058   -526.77026    4137.8532   -1322.4561    116.67708   -1439.1332   0.15406686 
   84800     273.6416    743.30949    4083.6124   -1325.6905    103.59055   -1429.2811   0.20988692 
   85000    289.10915     685.9291    4099.2841   -1324.0486    109.44599   -1433.4946   0.15494494 
   85200    294.95298    -772.1651    4158.2383   -1317.1708    111.65825   -1428.8291   0.16222605 
   85400    314.28683   -338.73621    4135.8992   -1312.8417    118.97733    -1431.819   0.17764388 
   85600    323.14465    1313.1454    4081.5546    -1313.932    122.33057   -1436.2626   0.14299792 
   85800    310.05718    283.14985    4115.0283   -1321.4238    117.37614   -1438.7999   0.16705695 
   86000    293.02553   -1415.0821    4172.7588   -1329.4049    110.92859   -1440.3335   0.15601544 
   86200    308.91532    79.081569    4128.0398    -1322.207    116.94387   -1439.1509   0.12362886 
   86400    306.82037    1506.5479    4078.0892    -1317.202     116.1508   -1433.3528   0.17844752 
   86600    310.32549   -199.34454     4144.463   -1318.4658    117.47771   -1435.9435   0.12577231 
   86800    304.15277   -1458.3029    4193.1966   -1316.1066    115.14095   -1431.2476   0.13985458 
   87000    279.08699    486.98969    4113.8249   -1320.0502    105.65197   -1425.7022   0.15040622 
   87200    303.66349     1441.357    4078.4402   -1322.7595    114.95572   -1437.7152   0.12345684 
   87400    283.84736    -1240.362    4165.2134   -1324.9363    107.45407   -1432.3903   0.15866358 
   87600    275.85542    -1314.781    4186.1362    -1321.097    104.42862   -1425.5256   0.13834645 
   87800     299.0723    1147.1549    4094.3854   -1319.2815    113.21767   -1432.4991   0.13635042 
   88000    292.39687    1196.8583    4084.9385   -1320.0507     110.6906   -1430.7413   0.17163202 
   88200    287.49922   -1183.0076    4176.9941   -1319.1753    108.83653   -1428.0118   0.14121972 
   88400    307.31461   -911.78718    4168.5429    -1315.715     116.3379   -1432.0529   0.16614584 
   88600    303.66302    1563.4368    4076.4611   -1317.8609    114.95554   -1432.8165   0.15292304 
   88800    310.87349     881.9247    4097.4654   -1317.9894    117.68516   -1435.6745   0.14858924 
   89000    289.53043   -1620.8405    4188.3852   -1316.8094    109.60547   -1426.4149   0.17345965 
   89200    318.79737   -449.46852    4151.4925    -1321.939    120.68485   -1442.6238   0.12926893 
   89400    315.35741    1640.7594    4065.9814   -1318.0518    119.38261   -1437.4344   0.16489785 
   89600    318.84038    383.37078     4111.963   -1313.4268    120.70113   -1434.1279   0.16241979 
   89800    297.61544    -1889.886    4186.5935    -1318.696    112.66616   -1431.3622   0.14977676 
   90000    268.52315   -77.690591    4123.4957   -1322.5504     101.6529   -1424.2032   0.18633881 
   90200     281.9534     1802.628    4056.7026   -1318.7501    106.73709   -1425.4871   0.16519037 
   90400    270.68099   -678.68177    4131.5864   -1323.8297    102.46977   -1426.2995   0.19191526 
   90600     266.9848   -1735.0724    4182.1824   -1321.7921    101.07053   -1422.8626   0.18573691 
   90800    270.75571    646.76365    4102.7536   -1322.1644    102.49806   -1424.6625   0.14788753 
   91000      261.727    1156.6875    4074.8791   -1320.5688    99.080126   -1419.6489   0.19737486 
   91200    288.46363   -729.43893    4151.4452   -1324.8497    109.20162   -1434.0513   0.14851773 
   91400    304.73542    -1014.868    4164.7666   -1319.7396    115.36152   -1435.1012   0.15257176 
   91600    304.91558    857.88513    4099.6339   -1318.6423    115.42972    -1434.072    0.1629394 
   91800    312.78657    1071.8152    4098.6737   -1318.8268    118.40938   -1437.2361   0.13413966 
   92000    284.54261   -837.18256    4158.9511    -1316.224    107.71727   -1423.9412   0.18569808 
   92200    314.02811   -577.78261    4150.7021   -1317.9942    118.87939   -1436.8736   0.14728653 
   92400    321.51949    837.07145    4098.3819   -1319.2844    121.71534   -1440.9997   0.16656582 
   92600    269.82911     493.4059    4104.3706   -1313.3265    102.14728   -1415.4738   0.20094411 
   92800    274.95759   -734.88231    4149.0597   -1318.2094    104.08874   -1422.2982   0.15930308 
   93000    294.74056   -299.74454    4139.4279   -1313.0048    111.57783   -1424.5827   0.20264316 
   93200    297.00845    357.08218    4107.3929   -1304.0978    112.43637   -1416.5341   0.17957768 
   93400    301.75154    34.288693    4120.5705   -1304.3621    114.23193   -1418.5941   0.19446149 
   93600    287.66416   -617.32737    4146.1126   -1303.5427    108.89897   -1412.4417   0.22038866 
   93800    325.37776   -97.710566    4133.6459   -1301.6862    123.17594   -1424.8621    0.1531892 
   94000    313.61581    666.92468    4108.4568   -1302.0771     118.7233   -1420.8004   0.24349202 
   94200    322.90935     297.1875    4124.0414   -1305.3067    122.24149   -1427.5482   0.16013468 
   94400    290.73977    -732.8338    4144.9148   -1316.5868    110.06328   -1426.6501   0.20248443 
   94600    276.92526   -88.774171     4121.967   -1316.6958    104.83362   -1421.5295   0.22351706 
   94800    301.92927    670.07123    4102.9313   -1320.3349    114.29921   -1434.6341   0.14956932 
   95000    295.84442   -206.76152    4131.1839   -1325.4441    111.99571   -1437.4398   0.21057232 
   95200     298.7324   -517.53633    4141.0682   -1331.0077      113.089   -1444.0967   0.15661351 
   95400    296.00929     526.4271    4107.7124   -1331.2254    112.05813   -1443.2835   0.14373427 
   95600    305.82526    560.62698    4102.6737   -1331.3028    115.77409   -1447.0768   0.19271656 
   95800    271.91266   -241.77732    4136.4487   -1333.7389    102.93604   -1436.6749     0.126355 
   96000    258.18442   -732.67104    4136.1237   -1336.6506    97.739036   -1434.3897   0.20269624 
   96200    270.00706    726.00031    4097.0041    -1333.924    102.21465   -1436.1387   0.16978496 
   96400    275.49859    567.33746    4108.1494   -1333.5823    104.29354   -1437.8758   0.14887046 
   96600    287.07758   -1003.8882    4150.6131   -1335.1243    108.67691   -1443.8012   0.20084883 
   96800    278.04392     -169.684    4125.7782   -1334.5908    105.25711   -1439.8479   0.14952249 
   97000    279.24367    1024.5625    4085.7619   -1342.8171    105.71129   -1448.5284    0.1422968 
   97200    257.11626   -23.815163    4118.5342   -1348.0323    97.334672    -1445.367   0.17714012 
   97400    296.40669   -788.40061    4154.6326   -1345.3544    112.20857   -1457.5629   0.11074075 
   97600    288.81325    288.76865    4112.6525   -1334.2237    109.33397   -1443.5576   0.17884393 
   97800    274.94775    1038.5677    4086.3223   -1322.6072    104.08501   -1426.6923   0.19907376 
   98000    296.65838   -608.03459    4149.4735   -1323.0379    112.30385   -1435.3418    0.1435114 
   98200     279.6734   -1402.1786    4165.2286   -1319.0501    105.87397    -1424.924   0.23209179 
   98400    306.14206    1052.6781     4086.871   -1321.1567    115.89402   -1437.0507   0.14201834 
   98600     297.8924    1015.8026     4079.074   -1312.2678      112.771   -1425.0388   0.20497333 
   98800    267.00938   -1415.7732    4169.8358   -1322.2062    101.07984    -1423.286   0.22792977 
   99000     309.2677   -1092.7768    4165.1523   -1313.7955    117.07727   -1430.8728   0.16901962 
   99200    308.18029    1442.4086    4061.2302   -1316.0256    116.66562   -1432.6912   0.23876404 
   99400    267.29879    836.66802    4086.0903   -1325.8297     101.1894   -1427.0191   0.17558234 
   99600    268.15799   -2204.2894    4200.1199   -1338.1991    101.51466   -1439.7137   0.18421538 
   99800      295.681   -621.00676    4147.1686   -1335.9633    111.93385   -1447.8972   0.17109912 
  100000     285.1874    2767.2336    4031.5183   -1330.8492    107.96136   -1438.8105   0.14217192 
  100200    263.30437    557.66714    4111.3389   -1334.6502    99.677258   -1434.3274   0.16728557 
  100400    276.04959   -2615.0027    4230.9546   -1324.0115    104.50212   -1428.5136   0.16451275 
  100600    288.64442    199.88445    4126.7622   -1326.0935    109.27006   -1435.3636   0.14940006 
  100800    301.76257    3097.0149    4025.6552   -1319.6142    114.23611   -1433.8503   0.19727268 
  101000      301.361   -644.05979    4150.7915   -1331.3953    114.08409   -1445.4794    0.1275354 
  101200     273.4889   -2743.5932    4228.2628   -1326.6069    103.53274   -1430.1397   0.18671678 
  101400    243.90434    789.72443    4089.2932    -1326.508     92.33313   -1418.8412   0.21969549 
  101600    324.94818    2617.2613    4032.8185   -1327.7235    123.01332   -1450.7368   0.13690381 
  101800    284.27914   -1315.5708    4164.2051   -1330.9198    107.61753   -1438.5373    0.1978935 
  102000    299.47218   -2035.8648    4194.9541   -1332.7068    113.36905   -1446.0759   0.15107553 
  102200    315.05506    1620.2234    4075.0985   -1329.0342    119.26815   -1448.3024   0.12256471 
  102400    258.68209    1489.1598    4067.3763   -1330.5133    97.927437   -1428.4407   0.19611345 
  102600    302.74106   -1191.0877    4171.7732   -1323.6076    114.60653   -1438.2142   0.13159683 
  102800    275.17673   -1023.9149    4163.0006   -1326.1356     104.1717   -1430.3073   0.15838029 
  103000    253.13913    1140.6586    4076.7149   -1331.2652    95.829078   -1427.0943   0.21599225 
  103200    284.81243    984.56594    4093.7719   -1329.9296    107.81941    -1437.749   0.12014141 
  103400    280.12575   -1383.3421    4170.3824   -1324.5612    106.04521   -1430.6064    0.1843611 
  103600    311.92198   -685.03869    4144.1106   -1330.8736    118.08208   -1448.9557    0.1701173 
  103800    309.06497    1247.0444    4078.6242   -1330.7229    117.00053   -1447.7234   0.12022454 
  104000    261.57374    83.324053    4109.6159   -1329.6902    99.022108   -1428.7123    0.2250944 
  104200    258.28965   -1019.3546    4159.3443   -1331.3505    97.778872   -1429.1293   0.15808907 
  104400    266.17293    157.61905    4122.8065   -1336.8793    100.76319   -1437.6425   0.14413978 
  104600    271.96262    1114.1824    4080.6958   -1337.9782    102.95495   -1440.9332   0.19147541 
  104800    303.17851    17.273195    4124.3525   -1334.4516    114.77213   -1449.2237   0.11124916 
  105000     297.1289   -769.15013     4158.748   -1325.1384    112.48197   -1437.6204   0.17573582 
  105200    318.42155    204.27931    4119.9546   -1324.0691    120.54258   -1444.6117   0.15933011 
  105400    298.29028    989.40942    4097.5233   -1323.8356    112.92162   -1436.7572   0.11292876 
  105600    277.05706   -686.95238     4145.107   -1321.6837    104.88352   -1426.5672   0.20425037 
  105800    293.87519   -650.65939    4159.7921   -1320.7478    111.25024    -1431.998   0.14939269 
  106000    273.96136    529.88209    4109.9064    -1317.215     103.7116   -1420.9266   0.16071135 
  106200    290.74008     562.3116    4103.4281   -1311.7872     110.0634   -1421.8506   0.21839101 
  106400    338.08845   -538.39116    4157.6878   -1312.5083    127.98774    -1440.496   0.12563751 
  106600    304.26408   -723.34468    4153.9234   -1316.2523    115.18308   -1431.4354   0.17474811 
  106800    293.50481    1006.7399    4089.5217   -1319.0506    111.11003   -1430.1606   0.17098016 
  107000    310.56917    600.89662    4105.2033   -1317.8084    117.56996   -1435.3784   0.14314585 
  107200    278.29421   -1244.7181    4168.6832   -1307.2651    105.35186    -1412.617   0.22907838 
  107400    291.79243   -452.71006     4145.144   -1311.0191    110.46178   -1421.4809   0.15549568 
  107600    302.73303    760.22412    4086.0857   -1313.2261    114.60349   -1427.8295   0.19618639 
  107800    322.45531    404.35552    4115.0052   -1309.4309    122.06961   -1431.5005   0.20020539 
  108000     328.8331   -1054.7529    4174.3453   -1314.2318      124.484   -1438.7158   0.13821342 
  108200    305.10166   -406.86151    4132.2087   -1313.6839    115.50016   -1429.1841   0.20709421 
  108400     293.6385    1245.9073    4073.7555   -1319.5439    111.16063   -1430.7045   0.17528808 
  108600    262.12863   -286.62404    4129.3474    -1319.743     99.23217   -1418.9752   0.18097794 
  108800    313.46836   -1630.7438    4185.7971   -1313.4443    118.66748   -1432.1118    0.2042434 
  109000    305.37363    416.52016    4116.2965   -1320.2463    115.60312   -1435.8494   0.14019702 
  109200    267.41477     1537.248    4065.8883   -1328.4346     101.2333   -1429.6679   0.18838149 
  109400    287.91034   -512.65164    4139.6851    -1326.615    108.99216   -1435.6072   0.16365563 
  109600    324.08565   -1245.3162    4174.1476   -1327.5483     122.6868   -1450.2351   0.15327163 
  109800    302.32402    954.04883     4089.097   -1319.8993    114.44865    -1434.348   0.20178126 
  110000    303.91651    1388.5034    4075.2354   -1324.4371    115.05151   -1439.4886   0.16092098 
  110200    275.93271   -1222.2511    4176.8134   -1316.9233    104.45788   -1421.3812   0.17461761 
  110400    325.55634   -1247.0808    4180.5003   -1313.0303    123.24355   -1436.2738   0.15616553 
  110600    279.19704    1740.2828    4074.2954   -1323.5926    105.69363   -1429.2863    0.1407119 
  110800    271.53151    1177.9409    4082.1429   -1324.8852    102.79175    -1427.677   0.18720638 
  111000    307.54353   -1604.4976    4188.9436   -1326.1537    116.42456   -1442.5783   0.14976205 
  111200    286.96204   -838.60274    4160.4039   -1325.6111    108.63317   -1434.2443   0.17391251 
  111400    274.66095    2066.2179    4048.7229     -1325.29    103.97644   -1429.2664   0.20242134 
  111600    251.80698    767.97064    4099.7485   -1335.3914    95.324776   -1430.7162   0.14174016 
  111800    273.59202   -2420.4537    4210.7898   -1336.4162    103.57178    -1439.988   0.17606609 
  112000    303.86977   -41.095643    4126.7943   -1337.2719    115.03381   -1452.3057   0.12121765 
  112200    265.36981    2745.0834    4018.2741   -1337.9641    100.45916   -1438.4233   0.16549574 
  112400    295.81958   -292.97457     4123.328    -1333.659    111.98631   -1445.6453   0.18894748 
  112600    291.68641   -2516.1563    4224.5743   -1330.6719    110.42165   -1441.0935   0.14019904 
  112800    294.26305    198.87578    4103.8882   -1326.4398    111.39707   -1437.8369   0.20570491 
  113000    294.60632    2932.5589    4018.7221   -1329.2417    111.52701   -1440.7687   0.14494579 
  113200    278.49984   -899.00168    4151.5339   -1331.6809     105.4297   -1437.1106   0.13753784 
  113400    272.49468   -2647.7746    4212.8331   -1341.9831    103.15637   -1445.1395   0.17460849 
  113600    289.69295    1364.4033    4068.8142   -1335.3112      109.667   -1444.9782   0.13271164 
  113800    261.71972    2248.8276    4038.8655   -1331.3775    99.077371   -1430.4549   0.17166604 
  114000    271.29625   -1580.5841    4176.6632   -1335.2948    102.70269   -1437.9975   0.17959907 
  114200    304.84115   -1557.6187    4183.6622   -1331.5914    115.40154   -1446.9929   0.12724414 
  114400     266.0903    1382.8029    4070.1876   -1331.4275    100.73191   -1432.1594   0.16932052 
  114600    280.64014     1272.815    4085.1304   -1324.7845    106.23994   -1431.0244   0.16261332 
  114800    324.60982   -1104.1864     4174.129   -1318.4527    122.88523   -1441.3379    0.1135199 
  115000    303.50515   -779.54232    4154.7849    -1313.816    114.89578   -1428.7118   0.18005998 
  115200    290.68123    1029.8617    4086.3819   -1322.0289    110.04112     -1432.07   0.14439569 
  115400    276.64513    584.03303    4104.0115   -1327.4706    104.72758   -1432.1982   0.16488895 
  115600    240.09128   -1101.9412      4152.12   -1332.0363    90.889644   -1422.9259   0.20211247 
  115800    287.38632    -232.9542    4123.6695   -1331.2448    108.79379   -1440.0386   0.13416009 
  116000    303.57625    1064.2072    4084.0417   -1329.0714     114.9227   -1443.9941   0.16754785 
  116200    293.26485   -158.30126    4123.8119   -1325.4252    111.01919   -1436.4444   0.16904217 
  116400    282.97784   -886.98321    4155.7781   -1334.5984     107.1249   -1441.7233   0.12811492 
  116600    274.99893    281.01291    4107.6287   -1341.5874    104.10439   -1445.6918   0.17025763 
  116800    234.66787    1249.4184    4078.5713   -1344.4498    88.836543   -1433.2864   0.14029775 
  117000     272.6881   -389.94989     4131.042    -1335.858    103.22959   -1439.0876   0.13521344 
  117200    270.66703    -999.9459    4157.0608    -1334.367    102.46449   -1436.8315   0.15586086 
  117400    304.35198    699.88012    4104.1689   -1328.6945    115.21636   -1443.9108   0.13494219 
  117600    273.50582    818.99788    4089.8136   -1325.6359    103.53915    -1429.175   0.17111669 
  117800    321.31221   -555.64353    4143.0088   -1321.3084    121.63688   -1442.9453   0.15852111 
  118000    320.82105   -577.58887    4145.2267   -1319.0749    121.45094   -1440.5259   0.14729665 
  118200    304.60734    874.92925    4095.8357   -1312.5843    115.31303   -1427.8973    0.1624149 
  118400    321.69878     584.4769    4111.5434     -1317.29    121.78321   -1439.0732   0.13683001 
  118600    296.77559   -1012.1445    4161.5238   -1317.0413    112.34822   -1429.3895   0.15010539 
  118800    264.43601   -295.61753    4133.9295     -1324.57    100.10566   -1424.6757   0.18122406 
  119000    277.64597    1245.1368    4085.1003   -1329.5733    105.10646   -1434.6798   0.15501908 
  119200    282.41071    29.949562    4118.4144    -1328.777    106.91021   -1435.6872   0.16026817 
  119400    267.45678   -1157.4513    4157.0537    -1327.579    101.24921   -1428.8282   0.18375944 
  119600    279.10747    230.75732    4111.5586   -1333.1215    105.65973   -1438.7813   0.13727294 
  119800    294.02413     883.9504    4086.1941    -1330.582    111.30662   -1441.8886   0.13809359 
  120000    291.12188   -388.99222    4140.4415   -1325.9731    110.20794    -1436.181   0.15837034 
  120200    278.33229   -1006.1799    4165.3285   -1326.1796    105.36627   -1431.5459   0.13755833 
  120400    281.68646    513.53641    4108.8105   -1321.0511    106.63604   -1427.6872   0.18249986 
  120600     275.9814    940.14867    4094.5813   -1323.1631    104.47631   -1427.6394   0.16855892 
  120800    298.56156    -927.8209    4159.5695   -1320.1482    113.02432   -1433.1725    0.1445927 
  121000    307.39762   -1058.8958     4162.406   -1315.1386    116.36933   -1431.5079   0.17852551 
  121200    335.24612    1409.7949    4090.0212    -1315.051    126.91174   -1441.9628   0.12582609 
  121400    307.24567    706.28213    4106.2803   -1322.8946     116.3118   -1439.2064   0.13952563 
  121600    283.11736   -1408.9448    4187.6571   -1319.8035    107.17772   -1426.9812   0.18057007 
  121800    278.07966   -569.60278    4157.6495   -1321.1727    105.27063   -1426.4433   0.14601383 
  122000    272.76505    1865.7703    4066.2438   -1321.2551    103.25872   -1424.5138   0.18285001 
  122200    276.86767    361.28025     4112.768   -1321.2216    104.81182   -1426.0334   0.17609289 
  122400    292.94177    -2263.786    4213.2495   -1314.2813    110.89688   -1425.1782   0.17376837 
  122600    345.98286   -324.71324    4143.9009    -1311.115    130.97627   -1442.0912   0.16820618 
  122800     326.2794    2842.1067    4047.1793   -1296.3954    123.51727   -1419.9127   0.16975718 
  123000    286.46646   -237.07177    4144.1821   -1299.3974    108.44557    -1407.843   0.18501687 
  123200    301.05643   -2331.5003    4238.2609   -1296.3491    113.96879   -1410.3179   0.20422755 
  123400    304.63621    269.45247    4130.2462   -1312.2741    115.32396    -1427.598   0.14494086 
  123600    296.92219     2697.633    4038.8013   -1314.2355    112.40372   -1426.6392   0.16921369 
  123800    303.16094   -578.10768    4158.1763    -1316.718    114.76548   -1431.4835   0.15761418 
  124000    303.70959   -2515.4915    4230.2654   -1317.1246    114.97318   -1432.0978   0.13386576 
  124200       297.27     1200.159    4097.0969   -1313.2917    112.53539   -1425.8271   0.16867506 
  124400    285.80048     2473.909    4050.4222   -1318.8286    108.19345    -1427.022    0.1407349 
  124600    293.18871   -1316.9069    4177.7035   -1323.7037    110.99036    -1434.694   0.15496671 
  124800    282.97928   -1876.4884    4196.4503   -1328.3395    107.12545    -1435.465   0.17001647 
  125000    312.28234    1530.8961    4075.7681   -1326.7533     118.2185   -1444.9718    0.1333826 
  125200    259.51426    1566.5211    4079.9904   -1325.3151    98.242466   -1423.5576   0.16388624 
  125400    287.69017   -1469.1464    4190.7845   -1320.4654    108.90882   -1429.3742   0.15275501 
  125600    291.47581   -1132.7668    4168.9082   -1331.4923    110.34192   -1441.8342   0.14081193 
  125800    265.35969    1583.5376    4072.7461   -1338.3078    100.45533   -1438.7631    0.1465992 
  126000    286.53011     629.9975    4106.6654     -1339.43    108.46966   -1447.8997   0.11630796 
  126200    270.48463   -1443.9835    4184.7336   -1332.5558    102.39544   -1434.9512   0.14798555 
  126400    297.02387   -498.87082     4144.109   -1335.8189    112.44221   -1448.2611   0.13196654 
  126600    264.01156    1401.2346    4081.8173   -1336.3471    99.944974   -1436.2921   0.14344181 
  126800    255.75204     202.9046    4118.9485   -1336.2054    96.818228   -1433.0237   0.15754072 
  127000     278.5431   -1019.1399    4162.9013   -1333.6431    105.44608   -1439.0892   0.16411552 
  127200    253.07822    169.09808    4123.6958   -1334.9214    95.806019   -1430.7274   0.13533651 
  127400    272.23984    730.04599    4092.2863   -1330.4995     103.0599   -1433.5594    0.1621322 
  127600    301.08974   -312.93812    4134.6748   -1331.7768     113.9814   -1445.7582   0.14053613 
  127800    271.79548   -787.31828    4156.8721   -1334.7584    102.89168   -1437.6501   0.12212953 
  128000    252.57389    216.16025    4112.6515   -1333.9357    95.615098   -1429.5507   0.17941471 
  128200    291.40412    851.41067    4098.1289   -1337.0665    110.31478   -1447.3813   0.13151511 
  128400    253.16444    -578.0601    4146.7001   -1338.1533    95.838659    -1433.992   0.14062965 
  128600    272.78653   -588.61282    4151.9985   -1336.6197    103.26685   -1439.8866   0.14305085 
  128800    242.27719     732.7872    4100.3381   -1339.6552    91.717148   -1431.3723   0.12345923 
  129000     266.8785    589.54786    4102.0659   -1343.1313    101.03029   -1444.1616   0.12793285 
  129200    267.96726   -689.71747    4155.4612   -1344.5368    101.44246   -1445.9792   0.12585511 
  129400    266.76884   -440.23025    4143.4408   -1341.3369    100.98878   -1442.3257   0.11248617 
  129600    269.44512    993.55596    4089.1644   -1342.3932    102.00192   -1444.3951   0.11798293 
  129800    256.72388    254.81126    4108.6372   -1342.7676     97.18613   -1439.9538   0.14099378 
  130000    275.65525   -984.42787    4158.3941   -1342.8493    104.35284   -1447.2021    0.1143862 
  130200    270.80807   -72.021346    4125.2695    -1347.231    102.51788   -1449.7489   0.13311076 
  130400    269.74935    1284.2919    4076.2866   -1349.7809    102.11709    -1451.898   0.11759773 
  130600    244.97228   -110.81423    4119.0136   -1342.5942     92.73741   -1435.3316   0.15229323 
  130800    277.65864   -1267.1074    4167.1326   -1329.8767    105.11125   -1434.9879   0.14496222 
  131000    297.97986    269.02103    4119.6637   -1323.5696    112.80411   -1436.3738   0.12685206 
  131200    276.13301    1386.7367    4084.8919   -1320.3784     104.5337   -1424.9121   0.14311185 
  131400    268.21568   -490.62304    4146.9931    -1324.235     101.5365   -1425.7715   0.14339165 
  131600    273.82943    -1281.692    4170.6555   -1328.6086    103.66166   -1432.2702   0.15917671 
  131800    270.60512    758.49287    4097.0738     -1327.31    102.44105   -1429.7511   0.15719308 
  132000    281.89068    1105.0097    4085.7767   -1332.8068    106.71335   -1439.5202   0.14874177 
  132200    286.48991   -1058.0801    4167.5889   -1330.2454    108.45444   -1438.6999   0.12949169 
  132400    258.47299   -1144.8843    4168.0369   -1334.9317    97.848279     -1432.78   0.14982427 
  132600    294.26155    1358.4632    4075.4189   -1338.9549     111.3965   -1450.3514     0.110024 
  132800    290.73329    1216.5681    4084.0794    -1333.017    110.06083   -1443.0778   0.13238898 
  133000     290.2912   -1628.3047    4185.1137   -1331.9802    109.89347   -1441.8737   0.14565514 
  133200    282.59145   -855.18089    4164.7097   -1322.3066    106.97863   -1429.2852   0.13287306 
  133400    272.21577     1595.527    4068.6594   -1325.2335    103.05078   -1428.2843   0.17101252 
  133600    293.84781    667.78968    4105.6409   -1326.8232    111.23987   -1438.0631   0.13673689 
  133800    272.55039   -2209.0762    4200.4853   -1316.8505    103.17746   -1420.0279    0.1733851 
  134000    315.46482   -338.66981    4142.0637   -1322.6925    119.42327   -1442.1157   0.14378726 
  134200    307.51329    2435.1898    4049.5389   -1321.9409    116.41312    -1438.354   0.11860431 
  134400    286.73539   -46.522039    4120.2051   -1323.1179    108.54738   -1431.6653   0.17016956 
  134600    282.90399   -2523.4176    4213.6263    -1323.677    107.09695    -1430.774   0.16070218 
  134800    262.39495    123.60564    4125.9863   -1326.8831    99.332987   -1426.2161   0.15420325 
  135000    302.80023     2464.999    4043.3431   -1327.2211    114.62893     -1441.85   0.15553985 
  135200    288.62669   -446.75589    4144.9866   -1326.2295    109.26335   -1435.4929   0.15112412 
  135400    263.52749    -2170.692    4214.3398   -1329.3759    99.761723   -1429.1376   0.12584055 
  135600    303.98018    1103.4078     4097.263   -1331.7473    115.07561   -1446.8229   0.12321175 
  135800    279.72869    2306.4696    4050.3959   -1331.3519     105.8949   -1437.2468   0.13395859 
  136000    255.15763   -1226.0708    4174.8193   -1338.0858    96.593206    -1434.679   0.12464067 
  136200    227.82632   -1899.3708     4197.362    -1346.808    86.246586   -1433.0546   0.16326044 
  136400    256.19154    1342.7614    4071.3643   -1347.4766    96.984607   -1444.4612   0.11823492 
  136600    244.11989    1340.6661    4067.4738    -1347.135    92.414728   -1439.5498   0.16226903 
  136800    288.82706   -1295.0559     4174.883   -1339.8325     109.3392   -1449.1717   0.13620566 
  137000    252.61538   -1140.4769    4161.3344   -1331.7596    95.630806   -1427.3904    0.1476588 
  137200    292.20424     1493.813    4075.9833   -1329.8243    110.61768    -1440.442    0.1401281 
  137400    302.25152    743.06057    4100.7708   -1334.2297     114.4212   -1448.6509   0.12402462 
  137600    286.07071   -950.11931    4164.4664   -1329.8416    108.29575   -1438.1374   0.11913902 
  137800    292.02741   -353.37739    4141.8276   -1328.5107    110.55074   -1439.0614   0.14073731 
  138000    283.22085    707.82474    4098.9197   -1330.1679     107.2169   -1437.3848   0.15423327 
  138200    316.62886    185.62186     4123.499   -1326.1351    119.86393    -1445.999   0.12354669 
  138400     293.9897   -888.25848    4159.4436   -1325.5041    111.29358   -1436.7977   0.17509355 
  138600    294.62631   -134.06551    4128.3124   -1331.6242    111.53458   -1443.1588    0.1288264 
  138800    297.98915     887.6592    4094.0258   -1328.8316    112.80763   -1441.6393   0.13210245 
  139000    289.19994    -41.99817     4128.215   -1320.4385    109.48036   -1429.9189   0.15798675 
  139200    290.20998   -885.22419    4159.6871   -1327.0308    109.86273   -1436.8936   0.12207279 
  139400    298.78505    419.47479    4119.8763   -1325.0083    113.10893   -1438.1172   0.14748115 
  139600    297.66454    670.71935    4096.2423   -1327.4192    112.68475   -1440.1039   0.13268186 
  139800    278.17539   -257.32358    4138.7409   -1325.1125    105.30688   -1430.4194   0.13557856 
  140000    277.07143   -713.72585    4157.4644   -1325.6459    104.88896   -1430.5349   0.13110785 
  140200    280.32407    262.26317    4112.1642   -1327.6934    106.12028   -1433.8137   0.13440795 
  140400    261.73347    892.17958    4095.3781   -1328.6523    99.082574   -1427.7349   0.12475316 
  140600    289.10977   -259.41525    4140.3911   -1330.8079    109.44623   -1440.2541   0.12665618 
  140800     260.6084   -1011.7238    4152.2325    -1340.304    98.656667   -1438.9607   0.12384621 
  141000    280.48488    543.18594    4104.3539   -1341.3004    106.18116   -1447.4815   0.11568276 
  141200    269.50624    573.71618     4102.382   -1343.4341    102.02506   -1445.4591   0.14162383 
  141400    285.62968   -640.21878    4151.4999   -1347.1281    108.12879   -1455.2569  0.090197267 
  141600     260.7779   -674.07038    4145.5808   -1338.2062     98.72083    -1436.927   0.14313732 
  141800    284.27502    823.56079    4095.6353   -1341.8625    107.61597   -1449.4785   0.11954097 
  142000    270.10604    282.06045    4111.9637   -1339.8301    102.25212   -1442.0822   0.10429781 
  142200    256.53175   -933.19207    4160.2097   -1346.0197    97.113398   -1443.1331   0.11700935 
  142400    258.93335    -104.4732    4132.4966    -1343.835    98.022552   -1441.8576    0.1048362 
  142600    263.94249    1017.3186    4088.5224   -1347.2302    99.918827    -1447.149  0.095134209 
  142800    289.63077    132.17655    4127.0035   -1341.0489    109.64346   -1450.6924   0.12247249 
  143000    272.31456   -1148.7026      4170.03    -1339.479    103.08818   -1442.5671   0.12216814 
  143200    277.24036    207.50641    4120.3491   -1346.5976    104.95291   -1451.5505  0.099615674 
  143400    262.04113    1129.1496    4077.5256   -1348.6364    99.199042   -1447.8355   0.14036803 
  143600    253.62519   -301.14486    4137.6988   -1351.2525    96.013081   -1447.2656   0.10490242 
  143800     291.1404   -1314.1011    4176.5336    -1347.217    110.21495   -1457.4319  0.090204518 
  144000    278.28091    739.46094    4100.4134   -1338.1679    105.34682   -1443.5147    0.1194076 
  144200    269.43013    1624.1729    4069.0685   -1343.9531    101.99625   -1445.9494    0.1056454 
  144400    266.82303   -1112.3026     4165.514   -1340.1956    101.00929   -1441.2049   0.12527854 
  144600    281.50204   -1821.1854    4189.9729   -1335.0655    106.56622   -1441.6317   0.14574267 
  144800    299.11741    1915.0721    4067.9515   -1329.4451    113.23475   -1442.6799   0.12056591 
  145000    286.11149    1684.8501    4066.2685   -1327.4713    108.31119   -1435.7824   0.14807059 
  145200    289.79179   -2307.3699    4215.2127   -1327.6593    109.70441   -1437.3637   0.13806788 
  145400    269.61333   -1379.9127    4187.5838   -1335.0418     102.0656   -1437.1074    0.1030921 
  145600    301.59119    2848.6563    4024.0928   -1330.2913    114.17123   -1444.4625   0.15308161 
  145800    271.76373    1333.9349    4083.6499   -1336.0964    102.87966    -1438.976    0.1121604 
  146000    284.41515   -2743.4654    4240.4899   -1330.9969    107.66902   -1438.6659   0.12149378 
  146200    280.85623   -835.98999    4157.5258   -1335.1012    106.32174   -1441.4229   0.14856869 
  146400    308.17167    2966.7951    4021.9508   -1327.3939    116.66235   -1444.0563   0.13719253 
  146600    257.78002   -40.669549    4119.4942   -1333.9685    97.585945   -1431.5544   0.17014869 
  146800    278.65643   -2416.5819    4222.9657   -1329.4469    105.48898   -1434.9359   0.15751067 
  147000    261.03357     328.9445    4119.8362   -1321.3881    98.817618   -1420.2058   0.13971938 
  147200    297.88431    2292.0041    4047.2476   -1307.5475    112.76794   -1420.3154   0.17899623 
  147400    303.92305   -303.72576    4151.5766   -1313.3066    115.05398   -1428.3606   0.13665211 
  147600    311.36775   -1772.1271     4202.009   -1311.8627    117.87227    -1429.735   0.15815465 
  147800    295.01492    802.22253    4102.2398   -1311.4145     111.6817   -1423.0962   0.18425536 
  148000    301.70684    1598.3099    4073.6739   -1316.7965    114.21501   -1431.0115   0.14749555 
  148200    269.34724   -1289.0416    4166.2515   -1326.3127    101.96487   -1428.2776   0.16544207 
  148400    283.60869   -983.86285    4173.4501   -1325.3043    107.36372    -1432.668   0.13222881 
  148600    296.21303    1106.7217    4089.9646   -1324.9016    112.13526   -1437.0369   0.12674517 
  148800    268.79006    1053.1034    4094.9759   -1326.2655    101.75394   -1428.0194   0.14377383 
  149000    274.82814   -1029.5485    4167.0227   -1325.5301    104.03973   -1429.5698   0.14102244 
  149200    269.41031   -270.58593     4149.673   -1325.8683    101.98874   -1427.8571   0.14360209 
  149400    277.79402    1016.2239    4091.6238   -1326.4571     105.1625   -1431.6196   0.16455555 
  149600    281.28894    307.17227    4118.6528    -1327.361    106.48555   -1433.8466   0.13417467 
  149800    272.22052   -1025.4161    4168.3608   -1328.0009    103.05258   -1431.0534   0.13510374 
  150000    269.78259    -177.7261    4137.5404   -1329.2557    102.12967   -1431.3853   0.13463423 
  150200     270.8583    725.48791    4092.3728   -1332.7722     102.5369   -1435.3091   0.13813267 
  150400    277.91641   -80.829226    4118.2309   -1334.1271    105.20883    -1439.336   0.15056314 
  150600    268.67673   -881.06878    4159.2097   -1323.5673    101.71103   -1425.2783   0.16228673 
  150800    269.45266   -330.80825    4134.3053   -1328.6957    102.00477   -1430.7005   0.15408454 
  151000    288.53561    911.27204    4095.3827   -1333.8819    109.22887   -1443.1107   0.13696503 
  151200    286.44045    237.12095    4123.9684   -1329.1195    108.43572   -1437.5553   0.13383911 
  151400    281.59721    -736.4848    4160.2938   -1327.3999    106.60225   -1434.0021   0.13478804 
  151600    319.37334   -9.0025655    4124.6189   -1331.1387    120.90289   -1452.0416   0.11147056 
  151800     330.4536    1160.4754    4090.2469   -1319.3987    125.09747   -1444.4962   0.13610461 
  152000    299.53996   -210.49327    4139.5575   -1321.2531    113.39471   -1434.6478   0.13624911 
  152200    262.02963   -1238.3153     4172.951   -1323.6702    99.194691   -1422.8649   0.14686803 
  152400    292.17526    513.80791    4116.8109   -1319.8965    110.60671   -1430.5032   0.16694499 
  152600     284.4544    1219.8165    4090.3965   -1321.0297    107.68388   -1428.7135   0.15439283 
  152800    289.94999   -603.70832    4148.8201   -1322.2094     109.7643   -1431.9737   0.14725059 
  153000     262.9486   -1500.4803    4165.5608   -1326.1182    99.542579   -1425.6608   0.17429887 
  153200    318.36292    732.07696    4096.2563   -1318.4236    120.52038    -1438.944   0.14126704 
  153400    296.39837     666.8701    4092.9202   -1320.3444    112.20542   -1432.5499   0.16881175 
  153600    260.55987   -1004.8147    4166.1452   -1317.3089    98.638295   -1415.9472   0.16810908 
  153800    306.73597   -769.29196    4160.4609   -1314.6235    116.11885   -1430.7424   0.13762804 
  154000    293.45424    1442.0988    4083.0627   -1316.6409    111.09088   -1427.7318   0.17130729 
  154200    310.20451    716.01815    4105.0731   -1321.7082    117.43191   -1439.1401   0.13317503 
  154400    284.17819   -1612.7561    4189.5891   -1322.6105    107.57931   -1430.1898   0.14647951 
  154600    299.46143   -518.76011    4146.3247   -1325.4036    113.36498   -1438.7686   0.14075855 
  154800    288.05503    2525.7214    4049.8539   -1313.0157    109.04694   -1422.0627   0.12820574 
  155000    301.36522     220.6043    4125.9789   -1313.8108    114.08568   -1427.8965   0.14657874 
[...]
  163200    282.36771    1182.9129    4080.3595   -1317.1372    106.89393   -1424.0311   0.21336098 
  163400     322.7909   -124.51367    4143.5757   -1315.2896    122.19665   -1437.4863   0.11718351 
  163600    285.96732   -1045.8496    4174.4797   -1308.0548    108.25661   -1416.3115   0.19038675 
  163800      309.847    401.67288    4115.1828   -1318.0193    117.29657   -1435.3159   0.15407177 
  164000    333.60506    1297.3638       4085.8   -1320.3378    126.29049   -1446.6283   0.11391178 
  164200    245.24184   -479.22704    4140.9713   -1328.2458    92.839455   -1421.0852   0.19031404 
  164400    278.78103   -923.74826    4161.1288   -1330.7645    105.53615   -1436.3007   0.13400814 
  164600    270.07982    366.15804    4109.9855   -1330.6919    102.24219   -1432.9341   0.15885114 
  164800    293.69919    676.64219    4099.2301    -1325.695    111.18361   -1436.8786   0.16757246 
  165000    306.17642    -354.5512    4146.7021   -1325.1492    115.90703   -1441.0562   0.11211327 
  165200     281.7687   -735.92886    4150.7934   -1329.6584    106.66717   -1436.3255   0.15404737 
  165400    293.77743    748.29817    4103.0403    -1332.584    111.21323   -1443.7972   0.12101016 
  165600    303.00536    542.24063     4105.509   -1332.9336    114.70658   -1447.6401    0.1227137 
  165800    265.71785   -1002.5648    4146.8261   -1331.6702    100.59091   -1432.2611   0.18229286 
  166000    277.30641   -169.23852    4131.8814    -1332.081    104.97791   -1437.0589   0.13426026 
  166200    272.81751    556.29073     4099.752   -1330.5483    103.27858   -1433.8268   0.16401646 
  166400    256.93611   -180.78409    4120.1446   -1332.4488    97.266472   -1429.7153   0.16771065 
  166600    290.22498   -493.83523     4145.464    -1335.439     109.8684   -1445.3074   0.11717844 
  166800    296.34275   -76.068864    4122.2761   -1330.8747    112.18437   -1443.0591   0.14394241 
  167000     269.1615    527.72606    4102.3939   -1332.6177    101.89455   -1434.5123   0.13329109 
  167200    281.87095   -90.392114    4125.3899   -1346.4902    106.70588   -1453.1961   0.10596612 
  167400    240.46596   -376.62715    4134.5128   -1346.1422    91.031484   -1437.1737   0.14102022 
  167600    270.07916    143.46194    4113.2495   -1341.9423    102.24195   -1444.1843   0.12907953 
  167800    258.28961    61.054963    4112.0505   -1338.9613    97.778857   -1436.7402   0.15824604 
  168000    279.39769   -177.26828    4130.6806   -1333.6786    105.76959   -1439.4482   0.14294857 
  168200    290.41077   -243.98086     4130.857   -1344.7503    109.93874    -1454.689   0.10237788 
  168400    294.65825     117.8396    4108.6602   -1341.6254    111.54668   -1453.1721   0.13793855 
  168600    309.48415    665.32505    4105.2656   -1336.9386    117.15921   -1454.0978   0.10691565 
  168800    281.25982   -509.65236    4130.6605   -1334.5044    106.47453   -1440.9789   0.14721602 
  169000    296.83297   -705.38158    4135.4128   -1326.4447    112.36994   -1438.8146   0.16806821 
  169200    273.64958    279.43349     4117.209   -1335.7773    103.59357   -1439.3709   0.13114315 
  169400    272.65204    82.010419    4119.3786   -1335.8649    103.21594   -1439.0808   0.14326628 
  169600    262.13147   -272.24875    4141.0603   -1334.1752    99.233243   -1433.4084   0.13306497 
  169800     288.1911   -241.48322    4133.4339   -1333.7046    109.09845   -1442.8031   0.12702277 
  170000     290.9671    323.66214    4114.3096   -1326.3453    110.14934   -1436.4947   0.13175395 
  170200    269.47961    54.481219    4127.3417   -1322.2989    102.01498   -1424.3139   0.13891433 
  170400    304.70012   -520.80914    4142.5372   -1329.0926    115.34815   -1444.4408   0.12863985 
  170600    262.22661    200.93699    4122.5093   -1331.3428     99.26926    -1430.612   0.14038753 
  170800    244.78638    237.24524    4111.7069   -1331.4151    92.667034   -1424.0821   0.15757939 
  171000    295.18442   -277.78996    4132.1441   -1333.4023    111.74586   -1445.1481    0.1326154 
  171200    274.72805    -443.8016    4136.8541   -1327.3487    104.00184   -1431.3505   0.15625991 
  171400    306.31735     38.14742    4116.4097   -1327.2127    115.96038    -1443.173   0.14259731 
  171600    286.82159    119.98858    4113.1605   -1332.3911    108.58001   -1440.9711   0.13176824 
  171800    265.26285   -324.60748    4133.7527   -1330.6879    100.41867   -1431.1066   0.13479592 
  172000    245.06262   -294.21657    4132.4795   -1333.6545     92.77161   -1426.4261   0.14701653 
  172200    290.08074    376.34497    4106.7101   -1326.9252     109.8138    -1436.739   0.15335563 
  172400    271.31773    198.92275    4112.3174   -1333.6488    102.71082   -1436.3596   0.15473935 
  172600    259.32495     -638.114     4140.949   -1341.7982    98.170797    -1439.969   0.14455575 
  172800    256.56506   -424.81499    4131.7615     -1341.02    97.126007    -1438.146   0.14152708 
  173000    266.78808    577.96089    4104.5158   -1329.4247    100.99606   -1430.4208    0.1523762 
  173200    306.18978    198.38156    4119.2768    -1326.287    115.91208   -1442.1991   0.13867304 
  173400     307.0107   -694.74436    4147.4086   -1324.6033    116.22285   -1440.8262   0.16288614 
  173600    296.29906    67.423004    4121.8555   -1324.1652    112.16782    -1436.333   0.13555795 
  173800     288.9627    784.57768    4093.4037   -1328.2444    109.39055   -1437.6349   0.14859602 
  174000    295.43426   -315.39195    4131.4635   -1322.8439    111.84044   -1434.6844   0.17551623 
  174200    322.65443   -969.85462    4164.7029   -1317.4655    122.14499   -1439.6105   0.14137351 
  174400    319.21844    318.30473    4112.4816   -1313.4088    120.84425   -1434.2531   0.16881012 
  174600    309.24588    1515.1838    4078.8443    -1300.951    117.06901     -1418.02   0.16424841 
  174800    301.08196   -303.53072    4147.1153   -1301.6542    113.97845   -1415.6326   0.16228542 
  175000    317.10843   -1476.5815    4183.7351   -1298.3304    120.04548   -1418.3759   0.17456978 
  175200    333.34831    618.69893    4100.3283   -1303.4467     126.1933   -1429.6399   0.17840211 
  175400    327.46739    1448.5643    4069.2443   -1308.3439      123.967   -1432.3109   0.15561671 
  175600    307.28094   -996.80927    4161.2728    -1311.691    116.32516   -1428.0162   0.16511556 
  175800    290.55822     -1472.26    4177.3229   -1317.9908    109.99455   -1427.9853    0.1667458 
  176000    274.25867    1359.5818    4070.9266   -1328.2249    103.82415    -1432.049   0.14390066 
  176200    265.43005    1477.5256    4069.7694   -1330.4645    100.48196   -1430.9465   0.14769859 
  176400    273.37033   -1699.7874    4188.1353   -1326.1466    103.48786   -1429.6344   0.15184251 
  176600    293.56164   -1441.6866    4178.4764   -1320.6212    111.13154   -1431.7527   0.14114928 
  176800    310.50739     1956.919    4062.0791   -1322.6746    117.54657   -1440.2211   0.14218749 
  177000    308.22345    1005.7005    4091.0392   -1320.7859    116.68196   -1437.4678   0.14375661 
  177200    313.66476   -1958.7409    4207.9212   -1315.5124    118.74183   -1434.2543   0.12653067 
  177400    291.24113   -811.78893    4164.2482   -1317.8327    110.25308   -1428.0858   0.15040849 
  177600    297.80024    1860.6525    4058.2696   -1311.5736    112.73611   -1424.3097   0.16710171 
  177800    289.26383    326.09351     4113.362    -1322.237    109.50455   -1431.7415   0.15321879 
  178000    271.64926   -1784.1233    4202.7327   -1313.9209    102.83633   -1416.7572   0.17582092 
  178200    315.62091   -46.803834    4135.3051   -1315.8573    119.48236   -1435.3397   0.12740993 
  178400    299.18444     1717.556    4057.7661   -1314.7171    113.26012   -1427.9772   0.17109278 
  178600    310.93629   -30.661069    4130.2204   -1309.9783    117.70893   -1427.6872   0.16084444 
  178800    317.67575   -1724.8065    4193.1516   -1310.8328    120.26024    -1431.093    0.1538535 
  179000    301.99569    63.731024    4120.1285   -1312.7664    114.32436   -1427.0907   0.18749721 
  179200    310.12877    1777.4598    4074.6659   -1314.4163    117.40324   -1431.8196   0.13520208 
  179400    312.63396   -543.15656    4149.8679   -1309.9812    118.35161   -1428.3328   0.15232112 
  179600    302.37998   -1475.4679    4177.4691   -1314.9445    114.46984   -1429.4143   0.15494151 
  179800     295.2543    950.34458    4099.7456    -1321.993    111.77232   -1433.7653   0.10471878 
  180000    302.99122    1203.3947    4088.4161   -1319.5712    114.70123   -1434.2725   0.16647145 
  180200    285.49088   -741.62017    4159.9078   -1321.9978    108.07625   -1430.0741   0.15661854 
  180400    276.83325   -922.58955    4156.2214   -1324.0127    104.79879   -1428.8115   0.16119704 
  180600    295.32685    801.29828     4092.381   -1319.9141    111.79978   -1431.7139   0.16135901 
  180800     302.2817    446.78534    4109.7365   -1317.5451    114.43263   -1431.9777    0.1300214 
  181000    305.04049   -1108.4867    4162.5696   -1321.0181    115.47701   -1436.4951   0.13069482 
  181200    303.52332   -392.70806    4133.6511   -1317.8709    114.90266   -1432.7736   0.15052123 
  181400    316.09751    1022.2042    4086.3162   -1315.2958    119.66278   -1434.9586   0.15374044 
  181600    288.40523    155.36129    4116.8918   -1322.0307    109.17951   -1431.2102   0.15882003 
  181800    286.70034   -779.18994    4154.7486    -1329.039     108.5341   -1437.5731   0.12802758 
  182000    273.86908    360.01708    4117.9135   -1328.9975    103.67667   -1432.6741   0.12034951 
  182200    286.75326    1133.4898    4087.8935   -1327.1005    108.55414   -1435.6547   0.12378462 
  182400    288.10098   -635.60291    4131.8745   -1323.1294    109.06434   -1432.1937   0.14625929 
  182600    270.75985   -1022.8217    4153.7062   -1335.7226    102.49963   -1438.2222   0.16169637 
  182800    278.25506    236.98598    4104.6062   -1340.6282    105.33703   -1445.9652   0.15198674 
  183000    278.92259     835.7791     4089.391   -1336.9088    105.58974   -1442.4986   0.13975616 
  183200    275.95135   -660.59296    4142.5366    -1331.144    104.46494    -1435.609   0.14258999 
  183400    285.58834   -779.28838    4151.1106   -1326.1446    108.11314   -1434.2577   0.13011258 
  183600    290.85937    649.46442     4096.281   -1322.8199    110.10856   -1432.9285   0.13272719 
  183800    307.46194    1111.3587    4094.9155   -1321.1211    116.39367   -1437.5148   0.12997489 
  184000    300.79278   -707.85602    4148.6796   -1327.6548    113.86898   -1441.5238     0.136152 
  184200    269.72347   -536.50056     4138.699   -1333.5369    102.10729   -1435.6442   0.14551726 
  184400    295.64032    808.68973    4089.9636   -1330.4819    111.91845   -1442.4003   0.14340013 
  184600    264.08138    93.093637    4111.4802      -1331.9    99.971408   -1431.8714    0.1358068 
  184800    291.94855   -954.62526    4157.4158   -1333.7329    110.52088   -1444.2538   0.12819197 
  185000    266.99062   -93.428331    4127.6283   -1337.8015    101.07274   -1438.8742   0.11846558 
  185200    286.45379    1028.4462    4087.1109   -1330.8652    108.44077    -1439.306   0.13139851 
  185400    299.76245   -101.22043     4127.974   -1325.0457    113.47894   -1438.5246   0.14701786 
  185600    273.40309   -887.78989    4162.3104   -1323.9918    103.50026    -1427.492   0.12994391 
  185800     288.4519    235.50669    4114.7855   -1330.8777    109.19718   -1440.0749   0.14699114 
  186000    301.04018    1025.0389    4086.5021   -1328.4006    113.96264   -1442.3632   0.14677303 
  186200     324.3503   -347.46338     4140.698   -1326.8868    122.78698   -1449.6738   0.11260691 
  186400    300.21651   -952.28307    4157.1613   -1327.9396    113.65083   -1441.5904   0.15443212 
  186600    263.89468    630.69482    4099.0334   -1325.8973    99.900728    -1425.798   0.14503693 
  186800    261.81942    807.99471    4096.3807   -1328.5768    99.115112   -1427.6919   0.14559199 
  187000    277.78302   -927.99342    4158.5696   -1330.9836    105.15834    -1436.142   0.14555755 
  187200    282.82346   -634.77942    4149.9738   -1335.5497    107.06646   -1442.6162   0.12232397 
  187400    268.04834    837.42916    4084.6831   -1334.5499    101.47315    -1436.023   0.14092293 
  187600     268.6323    143.08438    4104.7373   -1334.6463    101.69422   -1436.3405   0.15140961 
  187800    292.05338   -983.75053    4172.9578   -1331.6838    110.56057   -1442.2444   0.10994751 
  188000    291.93895   -440.10969    4142.1149   -1334.5525    110.51725   -1445.0697   0.11434077 
  188200    270.94327    1326.8717    4074.1973   -1336.3335    102.56906   -1438.9025   0.11802105 
  188400    256.12675    209.48546    4117.0101    -1341.024    96.960081   -1437.9841   0.10554793 
  188600    289.86829   -1511.9097    4180.0969   -1336.1563    109.73337   -1445.8897   0.12962814 
  188800    307.72525   -2.9612023    4120.3784   -1337.3622    116.49336   -1453.8556   0.12295642 
  189000    284.82863    1261.4496    4062.2397    -1334.378    107.82554   -1442.2036   0.15075377 
  189200    275.28125   -258.72656     4130.944   -1340.9275    104.21126   -1445.1388   0.13757535 
  189400    254.80439   -1625.5384     4182.225   -1343.9734    96.459485   -1440.4329   0.11852204 
  189600    277.02487    628.18959    4099.2159   -1343.7389    104.87133   -1448.6103   0.11644688 
  189800    246.41982    1871.2435     4059.501   -1340.3325    93.285394   -1433.6179   0.12081833 
  190000    276.32372   -897.08133    4158.1571   -1335.5642     104.6059   -1440.1701   0.11200316 
  190200     299.5529   -1782.7554     4189.872   -1334.3147    113.39961   -1447.7143   0.13530628 
  190400    274.48265     1195.523    4083.1087   -1335.5565    103.90894   -1439.4654   0.13974736 
  190600    264.42881    1603.2445      4064.95   -1342.7309    100.10293   -1442.8338   0.12606878 
  190800     272.7377   -1500.5698     4179.239   -1340.7848    103.24837   -1444.0331   0.13553549 
  191000    259.18885   -1432.2063    4175.7562   -1344.3409    98.119278   -1442.4602   0.11909272 
  191200    272.14769    2204.7334     4050.574   -1340.3161    103.02501   -1443.3411   0.11288386 
  191400     275.4669    1455.6456    4078.6327   -1335.7859    104.28154   -1440.0674   0.12109703 
  191600    268.02749   -2132.4845    4209.4224   -1334.2211    101.46526   -1435.6863   0.12542629 
  191800    265.34357    -1202.128    4155.3366   -1337.8702    100.44923   -1438.3194    0.1347756 
  192000    271.17323    2652.1346    4024.5291    -1335.136    102.65612   -1437.7921    0.1547918 
  192200    297.64167    130.87833    4104.5373   -1329.7749    112.67609   -1442.4509   0.16198597 
  192400    261.35304   -2872.5223    4222.1933   -1327.7601     98.93856   -1426.6987   0.16469921 
  192600    283.45699     140.0484    4121.8559   -1334.0355     107.3063   -1441.3418   0.13215845 
  192800    292.08318    2921.7994    4029.3959   -1326.0007    110.57185   -1436.5726   0.12813772 
  193000    275.79144   -446.55784    4143.2187   -1327.4301     104.4044   -1431.8345   0.14620759 
  193200    307.50537   -2116.6624    4211.6386    -1323.413    116.41012   -1439.8231   0.14323538 
  193400    308.94621    759.44607    4098.8233   -1327.4177    116.95556   -1444.3732   0.14107889 
  193600    264.68753    2040.8072    4057.8827   -1324.2077    100.20087   -1424.4086    0.1655026 
  193800    284.92551   -848.22995    4162.1949   -1319.4329    107.86222   -1427.2951   0.14798261 
  194000    283.53567   -1497.1276    4180.5882   -1315.6284    107.33608   -1422.9645    0.1614139 
  194200    299.47103    1329.7459    4085.8839    -1321.586    113.36861   -1434.9547   0.13061391 
  194400    294.37019    1239.8187    4079.2457   -1325.4394    111.43762    -1436.877   0.15782074 
  194600     270.0536   -897.78465    4156.8532   -1332.4569    102.23227   -1434.6892   0.15936575 
  194800    241.42514   -1050.9198    4148.7496   -1337.9552    91.394595   -1429.3498   0.17247753 
  195000    289.36019    942.71488    4078.3312   -1330.5453    109.54103   -1440.0864   0.18087486 
  195200     303.9365    625.27737    4094.4144      -1334.6    115.05907   -1449.6591   0.13794418 
  195400    260.50823   -1147.8198    4151.3639    -1335.862    98.618746   -1434.4808   0.15603135 
  195600    272.28021    -424.6037    4132.3527   -1331.0317    103.07518   -1434.1069   0.14847918 
  195800    280.26772     901.3879    4090.5312   -1333.0452    106.09895   -1439.1442   0.13710709 
  196000     274.2835   -3.0349451    4114.9677   -1329.1688    103.83355   -1433.0023   0.15937125 
  196200    283.69948   -852.96413    4149.5326   -1335.2185    107.39809   -1442.6166   0.15759365 
  196400    281.69655   -194.97352    4121.1239   -1336.2093    106.63985   -1442.8491   0.14485563 
  196600    265.13801    485.77612    4088.6325   -1336.8828    100.37141   -1437.2542   0.16049613 
  196800    274.94694    12.103635    4116.4088   -1333.9573     104.0847    -1438.042   0.13650261 
  197000    268.13342   -826.50702    4145.8318   -1333.2746    101.50536     -1434.78   0.15096544 
  197200    270.41276    168.23238    4116.6658   -1332.6642    102.36823   -1435.0324   0.13377543 
  197400    278.16851    743.68114    4098.8816   -1337.7707    105.30427    -1443.075    0.1452786 
  197600    278.37331   -228.29861    4132.0762   -1337.8492     105.3818    -1443.231   0.15138894 
  197800    233.09829   -865.58433    4144.6993   -1344.2436    88.242359   -1432.4859    0.1495546 
  198000    272.24207    351.67788    4106.1916    -1330.266    103.06074   -1433.3267   0.17474461 
  198200    320.33017    456.96397    4105.7217   -1320.2787    121.26511   -1441.5438   0.17042401 
  198400    311.31979   -740.50522    4148.4115   -1316.4946    117.85411   -1434.3487   0.16330844 
  198600    295.73637   -543.95027    4142.7687   -1320.4682    111.95481    -1432.423   0.15871872 
  198800    311.52251     766.2188    4101.8981   -1315.4865    117.93086   -1433.4173   0.15024606 
  199000    276.64888    62.247161    4120.0201   -1311.2249      104.729   -1415.9538   0.17920737 
  199200    275.44068   -774.74251    4160.1935   -1312.0768    104.27162   -1416.3484   0.19496177 
  199400    321.92775   -187.90648    4132.8665   -1313.8415     121.8699   -1435.7114   0.17928879 
  199600    309.96265    1053.6991    4094.7953    -1320.782    117.34035   -1438.1224   0.16804834 
  199800     300.8429    30.531342    4128.4921   -1322.7137    113.88795   -1436.6017   0.16125013 
  200000    296.11742   -901.98605    4158.5181   -1326.2257    112.09906   -1438.3248   0.15475319 
Loop time of 8.88313 on 4 procs for 200000 steps with 128 atoms

Performance: 9726.301 ns/day, 0.002 hours/ns, 22514.585 timesteps/s
98.8% CPU use with 4 MPI tasks x no OpenMP threads

MPI task timing breakdown:
Section |  min time  |  avg time  |  max time  |%varavg| %total
---------------------------------------------------------------
Pair    | 3.9883     | 4.0489     | 4.14       |   3.2 | 45.58
Neigh   | 0.36147    | 0.36285    | 0.36556    |   0.3 |  4.08
Comm    | 1.8247     | 1.9544     | 2.0508     |   6.3 | 22.00
Output  | 0.23694    | 0.23888    | 0.24431    |   0.6 |  2.69
Modify  | 1.866      | 1.9075     | 1.947      |   2.1 | 21.47
Other   |            | 0.3707     |            |       |  4.17

Nlocal:        32.0000 ave          37 max          28 min
Histogram: 1 0 0 1 1 0 0 0 0 1
Nghost:        287.000 ave         289 max         285 min
Histogram: 2 0 0 0 0 0 0 0 0 2
Neighs:        0.00000 ave           0 max           0 min
Histogram: 4 0 0 0 0 0 0 0 0 0
FullNghs:      904.000 ave        1047 max         787 min
Histogram: 1 0 0 1 1 0 0 0 0 1

Total # of neighbors = 3616
Ave neighs/atom = 28.250000
Neighbor list builds = 7224
Dangerous builds = 0
write_data		data.${NAME}
write_data		data.longice_284K_1atm_ML
System init for write_data ...
Total wall time: 0:00:12
