LAMMPS data file via write_data, version 29 Oct 2020, timestep = 200000

4608 atoms
1 atom types

-0.020444715803058955 53.42044471580569 xlo xhi
-0.30002801611746577 51.207148016118936 ylo yhi
-0.30002801611746577 51.207148016118936 zlo zhi

Masses

1 18.015

Atoms # atomic

1281 1 3.0074939735431907 50.004862892860736 4.377719512082512 1 0 1
871 1 17.03122805049193 11.163347274684222 0.5463094139136556 -1 0 1
2607 1 8.714757735301243 1.3809623305304035 2.227510616868467 0 1 1
2452 1 0.9930190346480106 16.49024636942582 0.64232454564359 0 -1 0
4246 1 11.080377763976092 21.586361359268572 1.3035322763598949 1 0 1
87 1 15.823341386228744 2.597855977998895 3.425202105308798 0 0 0
4136 1 4.659427583076295 41.69017945392806 0.481733819932859 1 0 -1
411 1 2.4619825888390325 4.305966006006142 2.2733678263164663 1 0 0
1606 1 3.2047240182094625 6.584177900720221 0.4617867803992314 0 1 0
4504 1 7.148497168484916 5.037957165738782 4.050179324246171 1 1 1
3472 1 6.393093408397948 49.132826610610856 3.1925067070745747 1 -1 -1
4541 1 3.1212502362049257 42.89354784927293 24.904401525191393 1 1 0
3821 1 13.207708327398448 1.2788165396071514 3.530840109650153 1 0 0
4226 1 5.031981377173562 8.04411707621386 2.3520692044984837 0 0 1
2123 1 11.18012304091145 6.289938525116442 1.3176215422426465 0 1 0
3065 1 9.78691686129272 10.716120034378234 2.9819677517982925 1 0 0
4058 1 12.709518735543238 3.8880501535309495 2.024794605092735 0 0 1
2041 1 15.362462630627235 6.569479664541232 -0.2368705202172215 1 1 -2
1222 1 0.10566142495608713 19.915369026871737 0.470380194924653 -1 0 0
3001 1 11.686791817747887 18.487438006280026 1.0523928474191209 0 1 0
1551 1 7.7954897020503315 10.500292169442373 0.39198380080418793 0 0 0
3631 1 12.194690068649663 12.322507933211124 2.6851625090665694 2 0 0
1834 1 4.864531965550323 44.181059584178115 2.479068974385031 0 -1 1
155 1 1.0931607582262377 31.24665843625232 3.095206529432053 0 1 1
4507 1 6.136177029300061 10.520007376951108 3.3546754138093875 0 -1 1
3971 1 0.819201997001716 36.76550517744563 16.090688342692008 2 0 0
1954 1 5.86457163709804 12.268396381691318 0.23850915643208137 0 0 0
1190 1 2.76207528055666 20.864678193379866 0.5682786007487366 0 0 1
3865 1 0.46056152775505876 3.27400115933519 15.703476892986565 1 1 1
2183 1 2.1525905083666235 24.061269509053616 0.9174131779477139 0 0 0
1572 1 11.286707485707499 17.053936097303247 3.394983923077726 0 1 1
4229 1 0.7590846018533322 45.31808635498591 22.153652210049675 1 -1 0
1089 1 14.368276855679818 18.685416066567296 2.275883029433942 0 0 1
1120 1 10.023887903489507 15.862553596229201 24.808633572429756 -1 1 1
2005 1 10.542184086368795 14.372066461660024 3.8257102773361167 -1 1 -1
416 1 0.21920742475206595 4.0395250371253395 21.3474449142561 0 1 0
3750 1 15.31911125603094 21.070900810035315 2.0092887687758285 0 0 0
2939 1 2.3449354560118154 19.08636515039091 3.909566472059524 0 0 0
595 1 0.01859319367234491 32.46675345207616 18.42670391217228 -1 0 0
455 1 8.699254910845863 47.80195245119348 2.6070533602594788 1 -1 0
1635 1 1.330636095191489 8.765579018859627 15.104196472161663 1 1 0
2745 1 3.093505747572566 1.4877327376471001 1.1531693099158382 0 0 0
654 1 2.3476943909978574 18.83721943472393 10.576598655017731 -1 -1 0
3934 1 9.038987357876081 23.27903877204039 0.7494159093584452 1 1 1
1142 1 12.350652388857393 24.22386857522819 4.047705423290203 0 0 1
1548 1 2.7782314851916565 6.849469785569312 20.10090970030558 0 0 0
3535 1 0.792254057569465 10.356635663626907 1.0598564689818875 0 0 0
4228 1 -0.01564812598073928 42.94586289566541 17.21316928061181 0 1 0
4468 1 6.98925478191649 22.14809227568505 2.402653233011141 1 -1 1
402 1 9.658854074531547 26.39073522705455 2.6976711293516584 0 0 0
2137 1 17.448023401642928 23.683936330674854 4.039810749372787 0 1 0
3099 1 14.661057129447048 27.235375996751554 3.792399356597844 0 0 -1
3548 1 2.6934666359972095 30.00293029111537 1.1192941450737681 1 1 0
459 1 7.780436268055076 27.51642763298288 0.9661449681248073 0 0 1
586 1 2.4728301385341602 0.006225606113401616 25.136703935136087 0 0 0
4576 1 14.261955474271646 26.48836276647446 0.7737502432042467 1 2 1
931 1 1.3747223847159094 26.28688251347802 8.974688958594637 -1 0 1
3105 1 0.15511472788185815 50.67597101364735 7.446686614580748 1 0 1
2252 1 14.803377852273105 34.83107371650031 16.72237450733455 0 0 0
1721 1 5.041211651006429 29.906227615325324 2.895778704408225 0 0 1
2054 1 7.08065398764989 31.53153951266484 1.6570105923311602 1 -1 0
359 1 12.051875251580315 28.99387033035846 -0.019499233731628485 0 0 0
4279 1 14.628107163590485 29.58468357614524 0.4667010389150885 1 -2 0
604 1 1.6925580323530158 20.28822045050425 17.910423987412727 1 0 -1
655 1 3.535025032166392 33.580242385644624 2.3142032842144076 0 0 1
625 1 1.2881178888243514 29.657542236751024 22.172778164668188 0 0 0
4111 1 10.71868543940248 33.41173851102788 2.988159695006161 1 -1 1
815 1 14.420386237251623 33.02044596671325 5.038812808264869 0 -1 0
827 1 1.2202150393768294 16.587344881081027 21.47295266297452 1 -1 0
228 1 3.855455175059927 35.89608692015918 5.023905483431162 0 0 1
408 1 2.9499509230851007 36.32561381451242 1.5603594654762907 1 0 0
3632 1 4.503522608659796 38.721929709716356 2.7784509622875304 1 -1 0
471 1 9.694059346879316 36.37135306243459 3.7676960689141135 0 0 0
346 1 12.658801348459152 49.643189469415844 25.062041134442648 0 -1 -1
4194 1 6.7865771997986535 19.755662517341577 25.14731362429914 1 1 1
783 1 13.77315241964052 37.32215745533371 5.083861480004546 0 0 0
313 1 17.11031973953404 37.80292768880854 1.6022304296553433 0 0 0
1901 1 3.0029451302899615 42.42247142748133 4.109959606202094 -1 1 -1
3362 1 8.390240547130576 40.382969755200996 2.8884041583863076 1 0 -1
1863 1 4.254892655038445 40.245448981801566 5.417523192475157 0 0 -1
4035 1 11.203703754845304 40.61050758578734 3.0828696235909443 1 0 1
1846 1 5.157822895321874 47.78985032646298 5.570971464210445 0 -2 1
4086 1 16.82174910885111 20.954224167947537 18.870368492968574 2 1 -1
2919 1 16.20215520704801 44.812150234932396 3.421399957072569 0 1 1
3764 1 8.77160316145687 43.42202749169258 3.010764679652883 2 -1 2
1298 1 10.349581497787074 8.109764445494276 24.58626804857811 0 0 1
2685 1 16.80748878819412 41.924786892160924 2.1409275617325485 0 0 1
3702 1 0.8411798671764276 46.242698756590535 3.8946253226700946 2 0 0
3390 1 1.2488689023935589 42.17748541196604 -0.2648665147407077 0 0 1
1881 1 15.078327783452806 47.56204633929572 2.509899788842243 1 0 0
4470 1 17.715726200802123 47.80389043177292 10.995750712260687 1 -1 0
3719 1 5.688609794669409 -0.05419397550888044 0.9575957305038265 1 0 0
748 1 2.1945985336737217 15.157402111326375 9.14809303585303 0 0 0
1964 1 17.25263722315312 39.20429111553098 5.693735725663634 1 0 0
946 1 9.958207188603563 50.353345649516356 3.240668056786716 1 -1 0
2160 1 8.271327720965509 5.573838162771477 1.036838195719065 1 0 1
2347 1 2.468666704946561 40.492173559632 2.1246812968592095 1 -1 1
582 1 1.831548431749158 39.209068649987195 15.696826066897524 0 -1 1
3189 1 1.8532877264957999 4.638227675901224 5.320680900766954 0 0 0
1888 1 6.087214535538004 0.9839207528634262 3.8557433704593906 0 0 0
3870 1 13.499592413645553 49.80417663042751 1.100366798759616 1 -1 2
3931 1 0.9672110011767451 42.46197226479845 22.787623730117744 1 -1 -1
1830 1 1.6320956310266004 17.046939634779097 25.19409626300041 1 0 0
4149 1 9.653951784057869 4.020235387639243 3.40278099193678 1 1 0
3696 1 4.893782378952228 3.7078737488173656 5.068270170123596 1 0 1
1459 1 13.935675558478517 7.158481945784327 4.288077642213466 0 1 0
1758 1 12.197658503077134 2.491162933324993 5.946863234574413 0 1 1
789 1 2.6391430842551933 7.009118035226873 3.8978485239437237 0 2 2
250 1 2.167129656954242 6.587366447116488 8.26784972654679 -1 1 0
1626 1 7.299155024677921 7.810395130984073 4.487390626397578 0 0 1
4590 1 11.33371959248485 6.349427734891637 4.228147567141372 1 1 0
1668 1 15.653874132041913 8.830921069031373 1.939799415836371 1 0 0
2280 1 15.63606716147899 9.284149752086702 4.7801259109198115 0 0 1
126 1 5.036011517175464 24.1730072019864 2.1717979724726892 0 0 -1
203 1 10.066559218610598 8.695414212474233 4.793780405100144 0 0 0
2823 1 14.190445845527295 11.857682882718198 4.57936885489637 0 1 1
3560 1 13.653446154968652 10.775078482461634 0.589333380024833 1 0 0
705 1 17.185128232798792 8.319578185737928 6.832997590029416 0 1 1
1227 1 0.28149016425931517 0.22415796131463783 12.310567972085272 0 1 0
2293 1 8.099704506435177 12.845810154512616 3.2921228131802005 1 0 1
1911 1 7.971538148868232 14.945804292107251 0.7402079591728326 -1 -1 1
3836 1 16.289828291272514 13.136418527943796 2.7964699196239704 1 1 0
3322 1 10.567284181021185 33.72936100120494 24.205995162385854 1 0 0
3333 1 4.412433150866112 18.08348371601706 2.556917406433444 1 0 0
2267 1 14.966616696573695 23.465548621835797 5.195228156993952 0 0 0
373 1 15.310115855179506 16.063059032709898 4.8698546006821815 -1 0 0
4583 1 16.88108959663903 16.26120508541879 2.6471239757496825 1 2 0
2577 1 0.43348928755024535 36.035937535965004 2.7776088970439425 0 -1 0
4082 1 6.6400477542397205 19.327116034448323 1.1540591080645342 1 0 2
60 1 9.612558370169168 19.01912798681964 4.604328063403522 0 0 -1
3231 1 11.145362732991417 21.055373460708342 3.7900207009699614 0 0 -1
4378 1 13.864964702561613 20.97827442990281 5.110875144461526 1 -1 1
4138 1 12.577302219515976 20.75354386600279 7.905782821154119 1 0 0
3132 1 0.8615454415721434 24.078751122836742 3.5785306038014824 1 0 1
2417 1 5.381011445220409 27.331763113547268 2.270517621278587 0 0 1
3766 1 6.768870522393677 20.105715074674166 4.191692209955624 1 1 0
1982 1 10.12169874490712 23.004998040579597 5.5659859168390575 -1 0 -1
812 1 7.671937687781775 24.63156069183507 4.019609065017682 -1 -1 0
1410 1 14.453523703861697 23.08858488368759 7.934856287654847 -1 0 0
1826 1 0.8436374875585688 44.94639569667304 10.637623294350153 1 0 0
4373 1 12.050640204408415 27.087413183570693 4.533429651827432 1 1 1
1401 1 17.11068512428655 24.040222161312723 8.098668708667065 0 1 1
2058 1 13.024913604349347 25.43014830290111 21.537556872406 0 0 -1
3609 1 15.695699083910403 30.42266114514183 11.148212563540445 1 0 0
959 1 3.364867831675521 25.42850613242443 4.360112677139092 -1 0 0
487 1 8.756539926103693 30.493981495736023 7.422207196949581 0 0 -1
1845 1 13.664339843768943 27.9839051400156 8.413021858083324 0 0 -1
4566 1 14.530322850937734 30.101515532589147 3.312215981468984 1 0 2
1255 1 1.7628763007139334 34.19059090442284 4.6138175634023675 0 0 -1
1249 1 7.118785804664571 32.034906763892096 5.8505370085189226 1 0 1
327 1 4.607594206465572 30.993393498496236 5.292694630498825 -1 0 0
2981 1 14.533634391969652 31.01651480732491 8.121436229409747 1 0 0
2888 1 16.32654925078281 33.51197139413052 6.977475917911642 1 1 1
2078 1 6.017069560773745 34.82179147937296 3.6756133725569464 1 0 0
723 1 7.989507348294417 33.263873677301206 3.5713529066037744 0 0 0
4351 1 12.020942608521132 31.13164092111558 4.15598005611719 1 0 0
1481 1 9.65870531435395 36.1104963385631 6.728439086502454 0 1 0
2191 1 16.047919428393165 33.81848523194268 2.65023294432617 0 0 0
1292 1 12.290185584706702 34.9289106760853 5.513175657898294 0 -1 0
4010 1 14.153720620290212 35.538834842088555 24.43689795183631 0 0 0
757 1 6.751034360683858 39.718937754828715 0.9645642452219165 1 0 1
3417 1 7.50587075461764 37.141649081856905 2.811360605607071 0 0 0
2506 1 12.137147465479476 37.88320451904745 2.8549690769825093 0 -1 2
1273 1 13.018641244891356 39.45645946791363 6.79159396027537 0 -1 0
1329 1 6.9180206965543425 39.03751979134797 4.940531487209346 0 0 0
4073 1 12.844851923112557 41.75385582130922 5.107322926733216 0 -1 1
2881 1 16.34768068005185 37.34676980309026 4.126301432934283 0 0 1
598 1 0.6633799455469923 43.826350659358354 5.220514097376867 0 0 0
2373 1 6.839565287774796 45.186965107789284 4.480365508553248 0 0 1
660 1 15.809392311005361 41.3757840932679 4.660452284353123 0 -1 1
2848 1 17.373465321366083 43.105196531018294 5.8572333007197726 1 -1 0
1959 1 1.0808837787922736 48.43930901560159 5.868744952667407 1 0 0
1795 1 6.220022966571936 49.21146203160549 8.846396568302826 1 1 1
1636 1 2.9241164535956576 47.14899926431096 7.097522449573294 1 -1 0
1187 1 12.07659176324634 45.7803362777735 4.051403419360077 0 0 0
1480 1 12.603447352756634 49.879390919163654 3.6238306823374873 -1 -1 0
4332 1 13.507122941393717 46.50458385743564 6.812241960879567 0 -2 1
2438 1 12.343931454748082 41.74360835953138 0.6882396082796031 0 -1 2
319 1 0.6622094089751901 16.86662908512722 3.5828574746344577 -1 0 1
4008 1 5.521918140527428 50.506255504590854 6.2978169944870315 1 0 1
322 1 8.50324381493537 51.161694917972966 5.337495546144487 0 0 0
3625 1 14.958845515568063 50.145208355137044 5.642557966461069 1 0 1
3331 1 2.1911131674730955 8.463435735589357 22.731233906434085 0 1 0
1740 1 3.5767654989130984 48.319926867374825 9.590287393626582 1 -1 1
1929 1 1.1005442188743513 1.65782548638764 7.215689030745709 0 2 1
892 1 1.291785281570465 50.10088901193225 10.352792985861374 0 0 2
1355 1 3.9977048325489335 0.2417040288113136 9.84099951703454 0 0 0
4145 1 9.99875660811156 1.3980366479752522 7.13124654275822 1 0 0
2987 1 12.649890761783173 4.165409473569295 10.27554335742744 -1 0 0
494 1 13.562879591747766 0.5021509542146608 7.537090877654536 -1 0 0
4094 1 16.02621843150869 30.442932586563543 5.695601150434032 2 -1 0
1093 1 9.313363712264888 3.973918887939446 8.165864333988969 0 1 0
2396 1 6.277435585097739 5.745149681808607 10.934429711766702 1 0 0
1860 1 6.091037953398343 3.3719878949724023 7.429321198110658 0 -1 1
3135 1 15.377586523040613 5.28950776837034 2.3077762774818 1 0 1
1140 1 16.9750396413393 2.4496445734245924 9.551465275949004 -1 1 0
2521 1 0.574221942932132 21.28355271031679 15.649636204069594 1 0 1
3837 1 7.103956661641849 6.018641244913646 7.045552615440384 1 -1 0
1494 1 9.648744081848756 7.0194111442669875 8.636687516889456 0 1 2
764 1 10.963960398862346 8.887491321381322 7.495986407556362 0 0 0
1787 1 13.789035823091705 8.820274501420752 7.348956586676758 1 0 0
548 1 16.357626525094407 5.914159196318454 9.317496254247693 1 0 0
3453 1 14.513138210953937 3.306376218443835 8.036466776676876 0 1 0
2436 1 1.7692259120026175 11.515035144430309 4.085103130152295 0 0 1
2934 1 4.179552027555525 10.8483505012086 5.153834348933814 2 0 2
4360 1 12.856500526604766 8.593270646373437 23.51147675090518 0 0 1
302 1 5.420276342524199 8.666314515944535 7.8450312325010145 0 0 -1
3063 1 2.8664873041627468 39.18454307180803 25.40455417090638 1 -1 0
1604 1 0.4304680871725259 38.8309951308642 10.322985086954239 1 0 0
708 1 3.2126744311856616 14.694838339705214 4.20029437092489 0 0 0
991 1 10.791919574180069 14.656113730697312 6.736003880512959 0 1 1
4110 1 11.557155813631645 11.41917716191213 9.347694462355042 0 0 0
2549 1 15.64524464477291 13.720896886519677 6.091139369158043 0 0 1
3023 1 14.836439406367463 11.069273950114672 9.457559711746043 0 0 1
4268 1 1.6094659999758056 13.403649704724593 1.7772070905851995 0 0 1
3061 1 5.84330188262913 15.768533116952511 3.1085476806447563 1 0 0
3738 1 8.299950507020709 17.53889564111895 2.238394754142492 0 0 1
3014 1 13.027746856502931 18.146446567977033 5.148967061121039 1 0 0
1798 1 13.201480682592544 13.143208685719026 7.730180308880239 0 -1 0
316 1 15.938396017016048 17.96475678324929 7.054081860964718 -1 0 1
4554 1 14.383102925631336 15.12933756184968 9.897795669786666 0 0 1
4247 1 6.66304191309155 16.663408939635755 5.615054918081152 0 1 0
781 1 3.225407773910699 18.245990101076078 6.2657726207152 0 0 0
840 1 8.297154505006452 15.373717795287405 7.806622218114281 -1 1 1
3922 1 14.569320953915831 21.23243872856211 10.22771113592146 0 -1 0
1807 1 13.83456213068292 18.126825745036935 9.334024724391897 0 -1 0
3603 1 0.21062289870098427 29.403017250518175 15.906590610936131 2 1 0
4542 1 4.87337749241795 19.828879423473765 9.58922782361399 0 0 0
2433 1 7.054896923233756 22.491878727764163 5.935130706902439 0 -1 1
1487 1 10.229452043538862 22.254939756997338 8.300448664776363 0 0 0
1015 1 13.288667209031075 25.22047835608986 9.339500153718168 0 0 0
1426 1 0.3533429912490836 35.225460052540704 19.740391948243012 -1 0 0
2017 1 5.920454281410437 26.095208575826433 5.613092394140196 0 0 0
3441 1 5.19502910313856 24.012518616561284 7.3725293076779534 0 0 -1
3963 1 10.723879967643809 24.994976444515785 8.805400925337214 1 1 1
192 1 15.995224094660315 26.3992648734923 6.867581978800478 0 0 0
692 1 1.18091351899541 40.348177598634955 18.66243623221357 0 0 0
3340 1 2.3393196946881365 27.2451049636957 6.7007990589881565 0 0 0
1520 1 4.877318229937256 28.609745456799825 6.6493523089602276 0 -1 1
880 1 8.175624535930075 27.990400732447483 7.087245614087679 -1 0 1
849 1 10.966055826312008 27.263530957652872 7.024986567776878 0 0 -1
1723 1 11.47835494927646 30.207022162454475 6.781736505685948 1 0 0
2647 1 2.0228018566855646 31.730539324290184 6.587834303858523 1 -1 0
4537 1 6.543804080378237 33.30245919497537 8.219170832157008 1 -1 1
3510 1 11.996186153987612 31.096829876634388 9.392925159522436 0 0 0
1380 1 13.836238059533931 28.44429193316763 11.02847361124272 0 1 0
1128 1 16.584673650364998 39.96710733447725 0.07821785908608075 0 0 0
3369 1 11.673370194900496 45.180259686047116 22.504202316430003 1 0 -1
58 1 4.966341419833903 35.52555397979907 7.521780310807482 1 -1 -1
1761 1 8.7962855443114 34.71505434041059 8.981938242592145 0 0 -1
3707 1 10.931317566711586 33.42337251813974 10.181652383337202 0 -1 -1
2422 1 16.79377651117313 35.364876124883686 12.104237284284963 1 0 -1
945 1 16.541651251247384 32.49746526256689 9.803909488263821 -1 0 1
4569 1 8.570352692343691 38.607106400208316 7.302804265081794 1 0 0
4263 1 11.343879248744415 37.93408909818954 8.694958423210782 0 0 0
1266 1 11.619646838338639 39.4366425697017 11.494062679738168 0 0 1
3204 1 3.4911912118681703 44.43676165069671 6.2828831419248 0 0 0
3476 1 2.5630194910939754 37.97053261438049 6.030839900511455 2 0 0
1884 1 8.927144853604732 43.104952196866606 5.9659893901506855 1 0 0
3552 1 5.341823363536889 41.833263089674816 7.404387672065938 1 0 0
1775 1 11.604599904857585 43.70839184751876 6.27712247242185 1 0 0
3533 1 0.4112903359098383 23.636128607943803 24.29637050231825 2 0 0
206 1 15.293728386325421 38.70404269263495 7.901667042728883 0 -1 0
2118 1 6.611382628807759 44.82052524086701 7.360937289172638 1 -1 1
104 1 7.79436310677134 47.562041669501475 7.269542348038591 -1 0 1
4418 1 13.783216971747395 43.249516843057506 2.709144684595831 1 -1 0
3680 1 10.367040333263645 47.80864110885267 5.307788670649494 1 0 -1
3388 1 14.787376832092496 47.193578601281 9.388472791898053 1 0 0
3660 1 15.394284732107792 40.81921879124923 9.851295983687852 0 0 -1
1615 1 3.5172651593540523 18.012817649285104 -0.25701427814407 0 1 0
1064 1 7.019682013200068 43.37435031113252 10.019961885984776 0 1 1
3003 1 5.542730836417117 50.11171514486472 11.95640214493892 0 0 0
508 1 11.751083320546865 50.53946263555407 9.73150473601031 0 -1 0
3994 1 12.377271758923166 49.2082329354348 6.836044175221113 0 1 0
1585 1 9.351920990686846 0.37962711258516013 10.327257577845801 1 1 0
2263 1 16.364417319856496 45.68777220946371 6.3302487196706645 1 0 0
962 1 3.3371319109925084 46.6607357837653 11.869532630894241 0 0 0
341 1 3.1143104497476153 1.4349620763867534 4.003026710106168 0 1 0
3032 1 3.81373029085153 1.083323938912678 7.236740763743462 1 -1 0
3247 1 17.195178110518683 48.08717650027567 5.593452962211053 1 -1 1
1245 1 14.581435151696258 44.159621458103906 25.33231126016274 0 -1 0
1252 1 0.904912831446999 2.8355267009659384 11.531615853818728 0 0 0
591 1 4.1943812650355 1.0460987667801414 13.925542265685468 0 0 1
3060 1 6.76533484210298 1.2182816106751422 9.577247792464382 1 1 0
2073 1 14.926486583180388 -0.016679514741333612 10.168806134480963 0 0 0
3162 1 5.065846335613203 8.894042953361724 10.574786966722652 1 1 0
3465 1 7.84793134561407 6.995154932702221 13.046004241641556 0 -1 0
1625 1 7.51800496259352 3.0269949702610517 11.865465941980382 0 -1 0
2766 1 13.429178121747679 6.3878753252194445 8.478756990517681 0 1 2
2351 1 11.65295517679903 5.075473282528049 6.704308212283798 1 1 0
1383 1 1.9551280774620663 21.706672922204238 22.502825492808178 0 0 1
3898 1 3.1891556351076953 8.585718197298213 6.414801287392149 0 1 1
2605 1 8.561104754354622 9.734083225094485 10.951026271792879 0 0 1
992 1 12.64488264918641 8.841852477618001 13.394706112154891 0 2 0
1746 1 13.350835455717645 6.718105995214515 11.836511140415976 1 0 0
233 1 3.2463948295858485 12.278194229155403 13.469541348105938 0 0 -1
1796 1 7.067366730061983 10.69414075851491 6.354648982967113 0 0 0
4029 1 11.17960982325247 10.901664640387821 12.159300106016342 0 0 1
829 1 15.260466082266252 8.211804324901948 10.61176302366476 0 0 0
3045 1 0.24535042131904522 21.279232157717868 4.510136147965306 0 0 0
2007 1 1.5136667091600091 12.421335888539334 9.557097552984269 0 0 0
3568 1 8.91449883927385 11.010114898495104 8.424893968536278 0 0 -1
2418 1 16.43803873869414 12.306852295771822 11.313128212859702 -1 1 0
2439 1 4.1584577101041065 13.47535775987779 6.735875196295979 0 0 -1
2928 1 6.922969683789724 13.453860646065138 6.070901640842269 0 0 1
3312 1 8.296353830778243 13.304394449536233 9.732036768402846 2 0 -1
4520 1 7.991857576437376 17.84756266719197 8.677193914609036 1 0 1
241 1 9.75623725042366 18.03798962885561 11.269113546660764 0 1 1
78 1 10.745256229237345 29.181918634422534 2.705967192517513 0 -2 1
1654 1 12.893863612273252 18.232374999846712 13.073567307114127 0 -1 -1
4455 1 5.553224050717573 19.1537343949952 6.991804845416525 0 0 1
1903 1 10.716238800546618 18.425865936371448 7.177469351291879 1 0 0
2501 1 11.446041371668342 16.667864046509763 9.34872598365799 0 1 0
1114 1 11.733399094548664 20.473747709806542 11.022719255309669 0 0 0
3745 1 15.084002428092443 17.064961621448195 12.003769353732308 0 0 0
4190 1 0.46652536732480293 47.5720026480318 11.623556558618533 1 0 1
1554 1 7.7191939329445685 21.22638739256631 8.32013676287229 1 1 0
1602 1 6.533946160071196 21.839619721387212 12.824009569215184 0 0 0
3376 1 7.831200069695483 24.460047454057122 14.11103508682212 1 0 1
2573 1 6.2537663947244635 22.29829922765044 9.969643899106197 0 0 0
2654 1 6.900337224706778 47.43395938392065 24.753901761026764 0 -1 0
4294 1 12.74896423813554 25.042611311651168 11.939545243654555 0 1 0
1236 1 2.5444228066870913 22.551000446126444 6.296056103160704 -1 0 0
573 1 3.797111361180947 23.566445289553606 10.098707284635466 1 1 0
1749 1 3.5383180339531983 21.462881247811623 12.063477735082008 0 -1 0
235 1 8.13817028533217 27.37175774181829 14.284847768265774 0 1 0
806 1 9.42439717094676 22.334319636568523 15.254282820654486 0 -1 0
4001 1 8.541541359606503 24.174947787180077 11.273805660195421 0 0 0
2415 1 1.2671091968096202 50.68706288188087 1.5134925758004498 2 -1 0
3228 1 6.695623023691841 27.340558612199484 11.755750600696956 1 0 0
2326 1 4.747644662474443 28.608891570103967 9.416562525124393 1 -1 0
2780 1 8.599462277120452 27.000202023858073 9.683378065866993 0 0 1
3058 1 17.436921439281743 41.959863635201 22.433005952636584 1 0 0
3604 1 0.22753117158746708 5.89663092860083 18.890133715611867 1 1 0
1000 1 4.588591817663059 33.33999638586356 10.402401844414282 0 -1 0
2138 1 6.112607549584296 30.501075399418887 11.462183443784507 1 -1 0
790 1 10.733916152427907 28.714732812309293 10.413098267297684 0 0 1
429 1 12.859991205238527 27.28210895397288 13.487278276681177 0 1 0
209 1 3.1996227081267836 45.8657000682793 24.200025813054207 1 0 -1
1760 1 0.9918174055142632 32.02000354667571 10.319948668349733 0 1 0
3206 1 3.804215822458157 31.187861943361128 8.804329359921633 1 0 -1
1742 1 7.605918883476068 36.945014936406906 10.222442744324209 1 0 1
2482 1 12.904204850321149 35.32931357883508 9.596277894175438 0 -2 0
77 1 14.817686931836986 33.702638680586254 11.22210627928655 0 1 0
3676 1 16.157371273829842 49.548651902837534 24.885621317503674 1 0 -1
2800 1 2.469464876988527 35.13000015009375 9.663374740306391 0 0 0
630 1 6.021971750376665 37.971960986047094 8.466639474235588 0 0 0
3040 1 9.208047985046026 38.20638417350768 12.130802093246672 1 0 1
3108 1 17.13928820236904 27.512563122764075 0.7878100132022141 0 1 0
3440 1 14.653122820214241 35.82232814236459 7.552068816222463 0 0 0
3391 1 15.799295420382995 37.41176943669518 10.941413791361903 1 -1 1
3297 1 4.250643134267006 40.01507287271473 9.23786457547312 1 0 0
2307 1 13.626355523495624 18.969999152002394 21.965012533685886 -1 0 0
2906 1 8.039174320857265 41.431873552157704 8.008054882756959 0 -1 1
1205 1 2.6416969377029242 37.729266495687455 8.769349485396702 0 -1 0
2428 1 11.469060635158623 43.50033010828368 9.14577402137804 1 0 -1
4248 1 15.924421700939028 41.86646895987487 13.736194673302508 0 -1 0
2742 1 0.30398691399288513 42.02252525107149 8.631111423322436 1 0 1
293 1 2.9118965640993903 43.131980220043516 8.817802127791795 0 -1 1
4528 1 5.272048056643986 42.37320923125946 12.936215578229382 0 0 2
566 1 13.809201775704722 43.05940193071661 11.006445333292522 -1 -1 1
560 1 16.261209489162987 46.607915007566326 13.684944081766389 -1 -1 -1
1630 1 4.4999373486761955 44.066890155461955 10.977107548750384 0 0 -1
4020 1 2.5529282388981436 45.62594135335343 14.415152694645364 1 0 2
3852 1 7.812239040075496 47.44907181771544 12.790441224539958 0 -1 1
2387 1 9.96026448257541 48.266248467654776 8.712634869434837 0 -1 1
4160 1 13.276049038996538 49.50250955054957 11.648884743474264 0 0 1
1623 1 10.814837143095197 46.04752002834208 10.18965632454096 1 -1 0
1090 1 13.080644099645037 46.61868730670561 11.562581861282823 0 1 1
3917 1 1.54736811489632 27.35671944001739 2.8465386618500084 1 1 0
993 1 3.7255931765604533 49.09055889080734 13.562456681772506 0 -1 1
3056 1 8.247862607180341 49.39081559213355 10.872737168253465 0 -2 0
2831 1 12.217741032204193 51.14272653579232 13.471162438363036 1 0 0
236 1 16.430338087594606 49.236445671862874 8.316346299161264 -1 0 0
2174 1 3.7770398971246766 2.7038517921605294 11.623560403342259 0 0 0
353 1 5.5779264089478655 3.9771857239145136 14.110517712494472 0 1 0
2582 1 6.649515702618128 51.20361970780253 14.912059731580674 0 -1 0
1814 1 12.879703731636186 0.903307957783519 17.500130669761287 0 2 0
1925 1 13.318263414924967 3.339788490210542 15.368865178394929 -1 1 1
4578 1 2.113340794513114 0.7987830518504206 16.11919268423121 2 1 2
1593 1 7.947568707281567 5.08811906508904 15.396333163678925 1 1 -1
2923 1 9.973459751591772 4.361333070970321 10.822114729771101 0 1 0
329 1 10.82093339530562 7.304650375204455 15.061051732889672 0 1 0
2083 1 13.82384711866388 2.2676225016387663 12.023823582211474 1 1 0
662 1 12.512128758789911 5.450329639573703 16.605159356662334 0 1 -1
826 1 0.40882046488341994 8.85827784961387 3.4985403843787313 0 2 1
4161 1 1.9792628684676086 8.005059325355097 10.88575060981862 0 0 1
4107 1 2.2692100942513895 4.774041910345419 17.173967310407942 1 0 0
4485 1 4.811143543802349 11.59915641219696 10.845103458863155 1 -1 0
2424 1 6.576441894530994 9.436553460665925 13.449981650088253 0 0 1
334 1 4.346274712357208 6.278001776760551 15.7180234542747 0 1 0
948 1 9.990858393379547 7.234849314569871 11.50293105587403 0 0 1
3997 1 14.432649693550344 4.7065127031403104 13.206416812548127 1 1 0
3811 1 14.801406040511662 6.744135216755787 17.095804340101626 1 0 0
1151 1 17.150271356717315 5.013375673214422 13.48498564086152 0 0 0
506 1 2.156741032480767 28.02203890685427 17.41129779839824 0 0 1
4530 1 1.6028236306100139 10.775054169634384 11.688709776589285 1 1 0
2793 1 5.156805935036674 14.293571381189482 13.059710984834714 0 0 0
3986 1 7.171377630405958 12.277199535849673 12.308014590855144 0 0 0
1075 1 0.7893292768942519 33.67049249746886 8.392275523013708 1 0 1
161 1 10.680830843960004 45.163323016640405 1.513663631252251 1 0 1
2585 1 3.0213110045558254 11.182664430707373 16.227093297289073 2 0 0
3884 1 5.308965821418413 13.838583686925698 9.235115214928253 1 1 1
4132 1 1.7164909183789885 14.584104954664024 14.773267020559981 1 0 0
2583 1 3.9490341273655614 16.10062773344966 10.937645353044152 0 1 1
2841 1 2.2343143463301525 16.71649438528788 13.030404247762025 1 0 1
1478 1 6.401665598484769 17.749714258358342 10.860289780445285 -1 0 0
1983 1 15.198854040080597 19.89672299481945 13.896880477235875 0 -1 1
2367 1 14.919130788043828 14.033344906377495 12.605973240971476 1 0 0
4179 1 0.9581387346766723 48.78412159085032 24.87072970739332 0 0 0
2547 1 3.1594707647206275 18.010327029763026 18.163274875209762 0 1 0
4040 1 3.6801347563069693 17.78776827391012 15.19466426937735 1 0 0
1728 1 6.385692502739955 17.4848884912044 14.978667676444108 0 0 -1
1502 1 7.452880523380595 19.446088078437175 12.917592168685543 0 -1 0
1992 1 10.330677387794747 19.73957823019221 13.582389020991059 0 1 1
1794 1 15.52738630560325 38.103522955255336 15.314563812480461 0 0 -1
1908 1 2.980196780868873 20.341328321183923 14.432847180888023 1 0 0
780 1 7.2128930348428355 21.442072700918455 16.80340838339268 0 0 -1
3722 1 10.980437962956616 22.78003685173542 12.635621520981923 0 0 1
398 1 13.970012142961476 22.28492352207526 12.86571344465832 0 0 1
2114 1 17.357070882738014 22.75630648247499 15.953841222302287 -1 -1 0
874 1 12.959004704061316 31.267987975878317 22.752923866151587 2 1 0
3111 1 1.4652903228561098 23.591743337567742 8.804596421431691 2 -1 -1
2617 1 1.5548667928374444 39.48070164839104 22.50715053083363 0 0 0
1857 1 12.119860301191839 20.68192752452547 17.116040777592 0 1 0
1756 1 4.72807752099611 17.857480353254232 24.11326956883369 0 0 0
632 1 14.509583655152904 6.873988247569614 24.913588892162714 -1 0 -1
181 1 5.519818317730866 28.229616006118388 14.71064253213496 -1 0 0
2055 1 4.43990628835095 25.917557359479936 11.814323193909622 1 0 0
4134 1 8.682239697502881 29.831716480073023 15.783740260776394 0 0 1
567 1 14.559794015294381 25.841106043350845 15.56055479939457 1 0 -2
2032 1 8.950626753201503 48.197097721877704 -0.12573467663387466 1 0 0
1141 1 2.526238686748184 27.851552255261794 10.918158313036455 -1 -1 0