LAMMPS data file via write_data, version 29 Oct 2020, timestep = 200000

4608 atoms
1 atom types

-0.07223535296790828 57.3427453529696 xlo xhi
-0.06420920263861873 50.97132920263881 ylo yhi
-0.06420920263861873 50.97132920263881 zlo zhi

Masses

1 18.015

Atoms # atomic

29 1 4.4946728825064755 1.6064766997747448 1.657343699230346 0 0 0
285 1 11.155146590546801 1.6363986248903488 1.2044870751261976 0 0 0
537 1 15.678764163869058 50.829121536104026 2.8910686043540106 0 -1 0
541 1 17.61747228596874 1.3482382920811251 1.4013878648778912 0 0 0
740 1 17.488547202649052 49.38553663166748 23.84589432496848 0 0 0
30 1 1.2873902946672475 4.803714232852211 1.1160932325009283 0 0 0
170 1 -0.0201139099770892 35.0279116677838 15.816068975220448 0 0 0
286 1 7.727472257873952 4.869054883415525 1.1926623959554405 0 0 0
542 1 14.369371114129853 4.556147325383963 1.6375726031868594 0 0 0
207 1 0.07850017527140005 38.195784641085496 12.525390316032292 0 0 0
61 1 4.592458616299622 7.79477298505689 1.3122834671419041 0 0 0
317 1 11.114972317553852 7.381743309475775 1.5465069199949215 0 0 0
573 1 17.24146065056869 7.711048468550335 1.7421360503435204 0 0 0
10 1 0.10189581112553381 3.2436891800392704 15.90698815552462 0 0 0
66 1 0.2055843822378085 15.853160932046084 21.788249964442777 0 0 0
62 1 1.3816167738561898 11.162122857415286 1.5251571107017414 0 0 0
318 1 8.0447320975428 10.917187711360162 1.7755896912286637 0 0 0
15 1 0.09735546680165896 50.88966416201363 13.106269574141974 0 -1 0
574 1 13.980966701056715 10.850536455309474 1.7839760914301102 0 0 0
178 1 0.10728668674703101 34.991808200422284 9.660618372162066 0 0 0
42 1 -0.06599105029625896 9.908616001522878 16.057495706844428 0 0 0
93 1 4.798963766538772 14.054520374709602 1.4101974389135739 0 0 0
89 1 2.8136008995407664 12.836734870225973 2.9674095920258403 0 0 0
349 1 10.971062516119254 14.226544088846218 1.4692742447107827 0 0 0
167 1 -0.06083665456306875 32.0819938884447 19.09256170855824 0 0 0
605 1 17.335282798530635 13.868772349073529 1.4123854875758883 0 0 0
94 1 1.7636924292305165 17.524645357029705 1.2605679529975824 0 0 0
346 1 6.297427976607144 15.394399910645937 2.975000015464725 0 0 0
350 1 7.637743060183258 17.417186384528762 1.334609501835875 0 0 0
606 1 14.058214896221129 17.288940717304612 1.239016898177045 0 0 0
122 1 0.3937158631587424 21.888055337210613 3.252397937225678 0 0 0
121 1 3.0321730103071323 19.09243981933638 2.9702620253748857 0 0 0
125 1 4.602052252421764 20.52137379760867 1.3254043339953894 0 0 0
895 1 0.22408917283101498 19.10663021313979 25.241589078600295 0 0 0
381 1 10.85027320566049 20.99305673738729 1.4079285501523031 0 0 0
34 1 -0.026579923634605554 9.776649717815008 22.001489763815382 0 0 0
637 1 17.574803188627243 20.25105016749768 1.4724776234974235 0 0 0
126 1 1.578562129481749 23.65110351687041 1.601467257815461 0 0 0
154 1 -0.04044987660137689 28.755623488388597 2.841862040581865 0 0 0
175 1 -0.004313423059244315 31.875512546207077 12.34710858810148 0 0 0
382 1 7.918144391852082 23.812283610129803 1.4170465747498475 0 0 0
250 1 0.01554433863989857 47.77399863915028 2.7132170460548717 0 0 0
638 1 14.165396125970195 23.78376674111249 1.5949601587446416 0 0 0
1472 1 15.578788568968154 34.972021132020885 25.235723372942697 0 0 0
7 1 0.18005027745857427 0.12312627145136743 19.171037143111544 0 0 0
202 1 0.14230330049088769 41.3476214010268 15.92919593845344 0 0 0
157 1 4.551959118779082 26.971464815419612 0.9378686522053763 0 0 0
413 1 11.23169167770348 27.193662836582995 1.5235059569706308 0 0 0
82 1 0.11877873512527587 15.913977286831818 9.614871035271122 0 0 0
669 1 17.50082253697739 26.9985399207936 1.5518554929218817 0 0 0
106 1 0.07793015613789958 22.470394454030977 16.009209994370917 0 0 0
158 1 1.7366470969664798 30.556260743535223 1.1839492831160074 0 0 0
414 1 7.712595898317317 30.152839604883482 1.726589749060189 0 0 0
441 1 9.388376428285788 32.27339259992547 3.0388596300460624 0 0 0
670 1 14.71153055686768 30.645446913580145 1.5102294241674201 0 0 0
697 1 16.206131674980806 31.91319993716972 3.1846665378285115 0 0 0
484 1 11.40314182997297 49.505826272593964 23.736826519980117 0 0 0
189 1 4.94244967113779 33.31437331175668 1.563417743923675 0 0 0
445 1 11.277158073880928 33.96505074011672 1.8055565521926566 0 0 0
960 1 3.078535376144837 35.04449862562217 24.93206739742864 0 0 0
701 1 17.648379697552546 33.457126231734534 1.6102114920663066 0 0 0
1503 1 12.68144541106214 38.501286041745715 25.219908833006127 0 0 0
190 1 1.3103678270898071 36.43287226722077 1.5121385426073348 0 0 0
217 1 2.8194894247775713 38.20340819068167 3.0772899598077674 0 0 0
130 1 -0.0719202387849478 28.331571613385236 22.164371413587002 0 0 0
446 1 8.128186536024389 36.90452540528638 1.6969198212484908 0 0 0
702 1 14.564632904120367 36.75680452743653 1.3912713213191898 0 0 0
729 1 15.838368545440098 38.285091268093495 3.0310016349533804 0 0 0
221 1 4.510606150868814 39.63518565937051 1.2072633511519608 0 0 0
474 1 5.9928811460606735 41.15454520508048 3.1039787612307532 0 0 0
477 1 11.298157106669395 40.05339037056949 1.6746976183854996 0 0 0
23 1 0.013590377318495092 -0.03680547700561476 6.360999675332418 0 0 0
671 1 12.454835286570345 25.46322817800201 0.018078568698854047 0 0 0
733 1 17.649856997806005 39.6633907740751 1.5913025549419355 0 0 0
222 1 1.3372664135036445 42.750985682382066 1.5094292474223066 0 0 0
478 1 7.503439270421449 42.69790103165599 1.56678801310772 0 0 0
505 1 9.152776257633265 44.67246852640268 2.786326342465757 0 0 0
734 1 14.78241095966753 43.073299270653095 1.3629370646611707 0 0 0
253 1 4.6290995257866845 45.89279343240118 1.2029511450335661 0 0 0
506 1 6.117460626458699 47.582201740215226 3.080098344975425 0 0 0
509 1 10.956526195316346 46.156122396994064 1.3373695928837501 0 0 0
1215 1 6.105852510550181 31.542010333519947 25.334541543305683 0 0 0
765 1 17.346561370412207 46.070462507509944 1.4524996994294805 0 0 0
254 1 1.3915448686235912 49.42419031535593 1.3426350670057037 0 0 0
510 1 7.6836566015877255 49.13274661312063 1.5090036052961124 0 0 0
281 1 9.565065283759223 50.74828440536399 2.8820882067224596 0 -1 0
766 1 14.271704987492186 49.467737344228084 1.1666432166461922 0 0 0
287 1 5.934996633773395 50.817040857824864 -0.03086367427943182 0 -1 0
27 1 1.5178097902189782 1.3244846366178291 4.666907030810129 0 0 0
90 1 -0.06439069368880723 16.356115510739425 2.7705773684470474 0 0 0
282 1 6.318614004445445 3.336367859567313 3.028841998570797 0 0 0
283 1 8.003283350826651 1.488578379862874 4.387402470924912 0 0 0
539 1 14.085296225483853 1.3156083893560153 4.579734416965693 0 0 0
26 1 0.11014006199139459 2.930770119355224 2.9251753668658567 0 0 0
28 1 4.127930160777491 4.344214060834739 4.514408631081462 0 0 0
280 1 9.561170934612532 3.211437550324562 6.026477791643107 0 0 0
538 1 12.365887023112064 3.2124069242985858 3.080796703495808 0 0 0
284 1 11.07989500251555 4.906256723392442 4.751909422760473 0 0 0
540 1 17.541325889219195 4.507940068410304 5.01552762796272 0 0 0
114 1 0.29604359185968415 22.097262502600795 9.552284097434814 0 0 0
59 1 1.0649055026540388 7.272846515381425 4.533934906414116 0 0 0
57 1 2.87436294942269 6.018518541797355 2.944966250705539 0 0 0
311 1 5.622200062109857 5.941303781476085 6.167061942100753 0 0 0
313 1 9.187823598157372 6.19682468391609 3.2224626753804047 0 0 0
315 1 7.254709045397541 7.769373358707233 4.7986308201072685 0 0 0
569 1 15.653678004099934 5.7771794403470755 3.6498398334738913 0 0 0
571 1 14.089631950336871 7.530392632180001 5.041328499225318 0 0 0
119 1 0.09621774031378783 18.756182886848446 6.438232784964971 0 0 0
60 1 4.302894026401041 11.207265019832981 4.550864757701941 0 0 0
314 1 5.959418820446959 9.594749162664758 3.3538566188328574 0 0 0
316 1 10.880882148908784 10.810527740420996 4.669767366428283 0 0 0
570 1 12.462755117491696 8.94465945570279 3.238123332090749 0 0 0
312 1 9.399006999238065 9.176364400702465 6.143909143657092 0 0 0
568 1 15.754841998253617 9.229886883018345 6.42315038477453 0 0 0
572 1 17.28205338376884 10.952605319097174 5.007775410204828 0 0 0
91 1 1.2848086925094697 14.474978091502365 4.340885785817884 0 0 0
347 1 7.841607383111286 14.08883597189731 4.764248169827056 0 0 0
343 1 6.0418831215197 12.526566090479255 6.300924170029071 0 0 0
345 1 9.571096463229408 12.509623413265782 3.168383819672777 0 0 0
601 1 15.658692074889796 12.709114778580092 3.380006754237407 0 0 0
603 1 14.026301056952596 14.695398982212337 4.720858869706367 0 0 0
92 1 4.620373284203025 17.239817991364525 4.456288907377214 0 0 0
88 1 3.075127548540336 15.812355879335026 6.069876555281257 0 0 0
348 1 10.906580245166557 17.4055468622216 4.254646466906178 0 0 0
602 1 12.443920935654479 15.818612323433541 2.8398596059660455 0 0 0
604 1 17.54245458370666 17.48244610673013 4.618265517304025 0 0 0
123 1 1.8008851355490976 20.377952774141203 4.867742685680178 0 0 0
375 1 6.599278025947919 18.755108771097927 6.070611069906471 0 0 0
379 1 7.990419017821198 20.607972411152776 4.346101768889598 0 0 0
377 1 9.552604260131107 19.167762742073222 2.77081165320896 0 0 0
635 1 14.122392030832394 20.107236536276314 4.332055968296173 0 0 0
633 1 15.827501798240766 18.826195197392742 2.9288596681828145 0 0 0
124 1 4.411569193166612 23.83987979456829 4.8267392114168235 0 0 0
378 1 6.301025689457838 22.219682442526196 2.8710664762145544 0 0 0
380 1 10.811495460880685 23.842920381088955 4.694108434724305 0 0 0
634 1 12.645535391556713 22.111431677633323 3.1888865812233202 0 0 0
632 1 15.659551559817825 21.78646157576318 5.809381495034909 0 0 0
228 1 4.722041521918716 48.922417946264446 23.600702324998565 0 0 0
153 1 3.1300212430812846 25.57796826221532 2.64312015025083 0 0 0
411 1 7.5862971615112125 27.13188369292745 4.797934499587104 0 0 0
409 1 9.36645086295347 25.604259281814173 3.072089985568097 0 0 0
665 1 15.69715286939725 25.491800466761184 3.095069616400588 0 0 0
636 1 17.272571491772126 23.798366766406723 4.521176996584178 0 0 0
151 1 0.304927439218802 25.390340157426504 6.264229041527702 0 0 0
155 1 1.347425070778247 26.942285024813007 4.2324881380724495 0 0 0
156 1 4.522839629813208 29.95006432640516 4.701877243850009 0 0 0
410 1 5.7723471083922036 28.408940167471847 3.031265726787057 0 0 0
408 1 9.403205118804612 28.61765677257742 5.903292857236112 0 0 0
667 1 14.171579762007628 26.886916910892314 4.9310760359424615 0 0 0
666 1 12.895421843704545 28.90021661646835 2.9634448563101805 0 0 0
1536 1 15.823458508796858 47.72789180287859 25.353753759405254 0 0 0
231 1 0.06154748541877808 44.73738967812575 18.67319558669195 0 0 0
185 1 3.2940791629765585 31.758089049176398 3.2912158437921213 0 0 0
439 1 6.470710331306158 31.80605498135166 5.9854903546095 0 0 0
412 1 10.821485075118854 30.404643665287377 4.426518392688252 0 0 0
668 1 17.74174367565394 30.39240647423171 5.08550345220317 0 0 0
187 1 1.60904833325806 33.49112229998049 4.828048097560368 0 0 0
442 1 6.468206174533539 35.14409755690066 3.2655379654204935 0 0 0
443 1 8.119516092244632 33.6775382458853 4.774306899635925 0 0 0
440 1 10.132535665856174 35.075589942752316 6.219085248511071 0 0 0
698 1 13.026891449776793 35.385548976540946 3.3332459417805853 0 0 0
699 1 14.558376000108632 33.46044106598296 4.647517826956283 0 0 0
703 1 12.849966644533152 32.27439819397165 0.10547905341051683 0 0 0
188 1 4.425117507333116 36.49323322031479 4.551826469290086 0 0 0
471 1 6.135473397852256 38.16002721254698 6.289158165886364 0 0 0
473 1 9.571966116190206 38.822891326719784 3.2723582634303963 0 0 0
444 1 11.207523087879686 37.06886542286831 4.621840354391243 0 0 0
727 1 12.989622282613833 38.368742720282285 6.271736791905465 0 0 0
700 1 17.878220706995002 37.10202892042801 4.959515455852384 0 0 0
219 1 1.2772771528020803 39.91463232887561 4.565815322994888 0 0 0
216 1 2.773407729509481 41.530534192978976 6.34095471373891 0 0 0
739 1 14.299277063027903 46.37163111784275 23.94400498880172 0 0 0
475 1 7.695281441299901 39.80911585244753 4.743649258769936 0 0 0
472 1 9.340034526649625 41.54157798953139 6.147367383061245 0 0 0
730 1 13.010287170740234 41.61943461643122 3.096674537643502 0 0 0
731 1 14.66422835504197 39.87835254645239 4.688176904472304 0 0 0
249 1 2.8805386904802717 44.69971264438317 2.988632243636242 0 0 0
220 1 4.155070220076337 42.92590797200894 4.467347044551289 0 0 0
503 1 5.919495414089409 44.65175666451428 6.087866884354945 0 0 0
476 1 10.833676529823773 43.16707091092874 4.478994712067661 0 0 0
761 1 15.996305903622716 44.81797596780295 3.418772043641837 0 0 0
732 1 17.65940194451507 43.400009489330415 5.253403775755629 0 0 0
1471 1 12.209555700742351 31.58664984037298 25.389672518425684 0 0 0
251 1 1.5236327634714222 46.21901241169117 4.464041846316907 0 0 0
248 1 2.6763108652155996 47.81243479596293 6.196033523933277 0 0 0
507 1 7.914575254963312 46.107529179907814 4.775857230623595 0 0 0
504 1 9.616454033427074 47.79538863855615 6.447675320890165 0 0 0
762 1 12.55162944217655 47.84987315003943 2.729384546622473 0 0 0
763 1 14.121528149091347 46.6685869888549 4.623317886980488 0 0 0
25 1 2.975279486190269 50.88296554523174 3.055421484664125 0 -1 0
252 1 4.501650542622263 49.22146221368743 4.554319941142207 0 0 0
508 1 11.143890846364103 49.47414287651358 4.928154285284692 0 0 0
535 1 12.823019612579465 50.77396725702704 6.355835556752056 0 -1 0
764 1 17.41724334409753 49.4179477556475 4.3985050487866335 0 0 0
21 1 4.845111791157377 0.8946442428042516 8.016339297409843 0 0 0
277 1 11.452094856759327 1.803694208779317 7.709489377047227 0 0 0
530 1 12.292000836087913 3.3641596139324985 9.86939145564328 0 0 0
533 1 17.189109058475804 1.4800177729850716 7.989319138382527 0 0 0
22 1 1.2715524565478051 4.287887256975707 8.148687115551153 0 0 0
24 1 3.003055743591064 2.803404625145309 6.662859659222555 0 0 0
278 1 7.777250586126566 4.912039262016116 7.496434732237112 0 0 0
536 1 15.475602678496843 3.036401256163074 6.329975733759405 0 0 0
534 1 14.216599042487832 4.484005963767159 8.131307985774955 0 0 0
1546 1 18.983711120400407 3.6340382186744895 15.944377914365226 0 0 0
49 1 2.8182540913110863 6.181624551572409 9.517024922354311 0 0 0
53 1 4.143323083375448 7.596348190775426 7.782539226943674 0 0 0
567 1 12.694366197546488 6.12616805458595 6.597130136591895 0 0 0
309 1 11.06323031744976 7.99735422084847 7.846144385505018 0 0 0
305 1 9.35987304038586 6.524078527784537 9.269619662029328 0 0 0
565 1 17.686938153509736 7.550861488373895 8.123579856637848 0 0 0
54 1 1.4604145945159777 11.223053797564326 7.808350259773979 0 0 0
56 1 2.6034316305863427 9.193986021195796 6.143478159384369 0 0 0
50 1 0.021278969906454392 9.430225375543635 9.492389610407074 0 0 0
310 1 7.817640247038031 10.851969274852193 7.782720214929363 0 0 0
566 1 14.408148140248437 11.351586730484996 7.779494298470034 0 0 0
1216 1 9.153129394903033 34.99205883398561 25.32785452133305 0 0 0
85 1 4.500345642503565 14.318431602003038 7.627044919434643 0 0 0
341 1 11.0041528408005 13.953770078030516 7.630133426368347 0 0 0
599 1 12.491738189225691 12.290411797666463 6.001981697214942 0 0 0
593 1 15.756623164131252 12.921596896768332 9.63081059041733 0 0 0
597 1 17.1525997484784 14.54269690626659 7.961732064597406 0 0 0
86 1 1.6278054454194377 17.404007525288463 7.901141306828364 0 0 0
342 1 8.092159026130755 17.181317560558302 7.9026101576637 0 0 0
338 1 6.141753270766262 15.780190677166319 9.22422409613163 0 0 0
344 1 9.758259618043667 15.795891156095468 6.380097129354463 0 0 0
598 1 14.246432403153271 17.389142376819837 8.057776531286564 0 0 0
600 1 15.799539297309568 16.14585767586884 6.2500865639015 0 0 0
1056 1 9.15738421192369 2.655609375789143 25.332425902615046 0 0 0
1120 1 9.504553705116832 15.881236134664839 25.347519948246557 0 0 0
117 1 5.178776940189681 20.356764599376838 7.809018899520128 0 0 0
631 1 12.623471340658917 18.5787053109757 5.994976635351429 0 0 0
373 1 11.383809906734834 20.478222262966053 7.517538388520716 0 0 0
629 1 17.446149008276148 20.593484455098547 7.84160116608519 0 0 0
118 1 1.6411959093469306 23.50612151028362 7.833378500745761 0 0 0
120 1 3.385470567546466 21.872851978982162 6.3982612888238615 0 0 0
376 1 9.44741444105962 22.17789796327985 6.164507941825765 0 0 0
374 1 7.814081885173194 23.7432209839958 7.791118115657161 0 0 0
630 1 14.886200921836584 24.019491578503768 7.338450979259319 0 0 0
145 1 2.80911739221536 25.169233996139234 9.538927842873242 0 0 0
407 1 6.148930048540509 25.33313957268052 6.2621762430212256 0 0 0
663 1 12.65832566172038 25.282251493947317 6.23218646564606 0 0 0
657 1 16.23808129412203 25.49606796270831 9.420480390250054 0 0 0
149 1 4.465536166317439 26.632154730699547 7.993899544336729 0 0 0
152 1 3.1308360073957173 28.100037005411817 6.101780061903036 0 0 0
405 1 11.203577098661802 26.978917310570584 7.658508692898147 0 0 0
664 1 15.726869532753485 28.79963923535461 6.1322060054266805 0 0 0
661 1 17.663233992970017 26.939655006408845 7.652698402765056 0 0 0
150 1 1.943996093444257 29.954380597166853 7.922329284385432 0 0 0
406 1 7.893530749366312 30.040059107898742 7.775557964711122 0 0 0
695 1 12.780432278637415 31.87313032751352 6.019433375878825 0 0 0
662 1 14.250772574490925 30.366998690046323 7.668932540275327 0 0 0
184 1 3.5672523359374693 35.19264648251519 6.779191778476057 0 0 0
181 1 5.00359599843271 33.42477268914202 7.894709168710436 0 0 0
437 1 11.360701901006536 33.26806919892819 7.75960038374422 0 0 0
696 1 16.088146707736 35.29421637622558 6.159309252248567 0 0 0
693 1 17.833615771950623 33.747631627485035 7.686797984226263 0 0 0
483 1 7.975563572687035 46.25066333277819 23.908669043030073 0 0 0
182 1 1.6912009742740863 36.654555448233396 8.183007209312102 0 0 0
209 1 3.295778859180505 38.110572968249116 9.850116041259165 0 0 0
438 1 7.884632566226855 36.359420874806304 7.580080739378632 0 0 0
694 1 14.240981720896729 36.386365925866514 7.834898080366772 0 0 0
721 1 15.971419152885257 38.085484771903864 9.536148470448763 0 0 0
1554 1 18.98266319433321 3.4522443466083566 9.416970490951039 0 0 0
227 1 1.558948357744955 45.991189004640646 23.893386839388796 0 0 0
213 1 4.523941879848739 39.79919004854564 8.16479269993182 0 0 0
466 1 6.372755393528054 41.70068424108162 9.394905530438052 0 0 0
469 1 10.747054271476356 39.626240453713436 7.596287086077466 0 0 0
722 1 12.437736280536567 41.403825688552686 9.00263574701779 0 0 0
728 1 15.97205700079493 41.701426099162035 6.462572396361627 0 0 0
725 1 17.40692402369348 39.98249151826701 8.051037394345737 0 0 0
320 1 9.407197890399244 9.167594956669712 0.07713786143499632 0 0 0
214 1 1.412766464997108 43.226712786835165 7.9449156275048125 0 0 0
470 1 8.084951496744775 43.302261308541716 7.8262470203160195 0 0 0
497 1 9.48856205124645 44.61770050184113 9.362486172734483 0 0 0
759 1 12.549470947824648 44.56882580322031 6.061915076997325 0 0 0
726 1 14.104695835091583 43.056778052953504 7.777830369202772 0 0 0
1376 1 15.829298450555108 15.969117853080814 25.452774718700702 0 0 0
245 1 4.408236943576641 46.434659286120066 7.71067312128507 0 0 0
501 1 11.241776900648924 46.18367878602473 7.99788202970357 0 0 0
757 1 17.477861681862663 46.62919237924615 8.075482430442257 0 0 0
708 1 17.337803599811547 43.390296849462786 23.637179913468447 0 0 0
246 1 1.255943364079596 49.283154318151205 8.039871770862103 0 0 0
17 1 3.1600489128155913 50.58393227626246 9.60910138814399 0 -1 0
279 1 6.582931410741912 50.81177120193526 6.094440014160175 0 -1 0
502 1 8.110543396406776 49.39520035591265 7.943555793605521 0 0 0
529 1 15.510253946921877 0.35892113657156904 9.523436956919088 0 0 0
758 1 14.711890767307112 49.292083086696806 7.7736679545033605 0 0 0
760 1 16.061766773549657 47.7331395650766 6.099779155373479 0 0 0
19 1 1.4721185645600547 1.1452409826886618 11.232991849017651 0 0 0
275 1 8.292690045382745 1.3437362300646505 10.658693278101735 0 0 0
531 1 13.945139829739482 1.7932135040730843 11.37833147628728 0 0 0
1440 1 15.726329422007993 28.607742507302493 25.334429622194357 0 0 0
274 1 6.332102151375778 2.727991348654897 9.273115916114463 0 0 0
20 1 4.55148063734652 4.40299715288664 11.119859619567821 0 0 0
16 1 3.144568357095672 2.672706454917706 12.610125883687134 0 0 0
272 1 9.382880829885558 2.9748224641894527 12.614706218815748 0 0 0
276 1 10.78324712684837 5.002872736060714 11.029541269012215 0 0 0
532 1 17.421824668204106 5.040697286485752 11.192078577906695 0 0 0
51 1 1.2318591450838041 7.8207396711891315 11.122241275234805 0 0 0
303 1 6.227426626900953 6.313599097524764 12.53337445044901 0 0 0
307 1 7.820528101512491 8.101541504654982 10.705386591079575 0 0 0
561 1 15.836559181557542 6.2345429803225905 9.394881163534393 0 0 0
563 1 14.337174614518178 7.937570378435026 10.950789385314083 0 0 0
52 1 4.390171482922745 10.75643001023865 11.0029716969949 0 0 0
306 1 5.9616528921939675 9.396116957709854 9.131278726343966 0 0 0
308 1 10.930635718594974 10.932244446946092 10.921794412141784 0 0 0
562 1 12.600475215124957 9.61345826135382 9.443702682990647 0 0 0
560 1 15.598175920102708 9.8163407079367 12.877612512172808 0 0 0
564 1 17.457064970016148 11.174463937028037 11.33316225123403 0 0 0
83 1 1.3622691639745181 14.18505839370866 11.276459233057125 0 0 0
81 1 3.0642085021839827 12.823177307280481 9.307711868103569 0 0 0
339 1 7.67177923845157 14.162394466999578 10.504465424259378 0 0 0
337 1 9.409218209355341 12.19419751554582 9.244036688929931 0 0 0
595 1 13.963314564224572 14.253477661666468 11.231149961074797 0 0 0
481 1 9.367719192645684 44.24631838138994 22.27245145561758 0 0 0
1247 1 6.115611944519562 38.45033124831512 25.22639398348015 0 0 0
84 1 4.864209963392657 17.36685837688024 11.191751436022091 0 0 0
340 1 10.877032795526837 17.70254025383759 11.0347377559382 0 0 0
594 1 12.316633044394697 15.663605917173339 9.475891962975439 0 0 0
596 1 17.624420586029238 17.474032414103572 10.966043146482386 0 0 0
115 1 1.8925971785888507 20.366171560773022 10.944038926412214 0 0 0
113 1 3.6728084198970223 18.78374264988102 9.427815302635068 0 0 0
371 1 8.137699997112424 20.812005261386496 11.2023071169125 0 0 0
369 1 9.4113558449653 19.282258305118756 9.073340461922331 0 0 0
627 1 13.937902372355536 20.546969383836956 10.931670279872202 0 0 0
625 1 15.905234740340461 19.080688110523944 9.669042852176732 0 0 0
452 1 11.224244172408877 43.242369001415625 23.945553430192028 0 0 0
370 1 6.391119239937092 22.440501201543068 9.540834529164972 0 0 0
116 1 4.820284994761593 24.25552675434301 11.366511571465134 0 0 0
372 1 11.551529335714353 24.00900410122252 10.870205965147347 0 0 0
626 1 12.925067918102464 22.37014898328485 8.917379555694202 0 0 0
628 1 17.717254707569182 23.670573245876653 11.039619194424274 0 0 0
196 1 4.492104177309742 43.094341155375744 23.68579944051565 0 0 0
401 1 9.406441998826814 25.277969604505813 9.370849420696212 0 0 0
655 1 12.959478119637936 25.191941506435327 12.841186652960067 0 0 0
659 1 14.286034970032457 26.870240693796127 10.894247649528078 0 0 0
147 1 1.3145896559276944 26.916714213054284 11.000820133745277 0 0 0
402 1 6.048002246797742 28.547050541966662 9.497722976497979 0 0 0
403 1 7.940005123325436 27.245205206500774 10.805668714659909 0 0 0
658 1 12.933354054507625 28.757406948059543 9.20665438342742 0 0 0
404 1 10.976669885520078 30.021058771969905 10.670942260392618 0 0 0
656 1 15.831140843120107 28.628235517937323 12.497062931387278 0 0 0
177 1 3.230273690565346 31.848689927089705 9.688785020702934 0 0 0
148 1 4.709110786382289 30.110214290293865 11.383692915626513 0 0 0
431 1 6.575750872794329 31.740577961877893 12.366470129036715 0 0 0
433 1 9.513917010621704 31.62649963766935 9.22887928687115 0 0 0
687 1 12.75353292621985 31.72459965450619 12.363079593348502 0 0 0
689 1 16.15932550290152 31.808316222003153 9.112688335287816 0 0 0
660 1 17.57480204812895 30.078920448276158 10.966460927323148 0 0 0
179 1 1.6148421435376576 33.570580348464915 11.397724428365937 0 0 0
176 1 3.467342410347068 35.4756503961312 13.009126973929186 0 0 0
434 1 6.5300731849490345 34.90983050279205 9.690100186790643 0 0 0
435 1 8.396797762196105 33.1845055113767 11.072367417769158 0 0 0
690 1 12.77211440670793 34.88829839627071 9.415958025328006 0 0 0
691 1 14.526927345873977 33.203596731583616 10.924933323667727 0 0 0
688 1 15.737989347263667 34.950713498843584 12.705576682175021 0 0 0
194 1 -0.04606859706627582 41.4368958109315 22.07191904665197 0 0 0
180 1 5.106216352948424 36.79534450862357 11.305830893731951 0 0 0
463 1 6.666687929432916 38.30003415920041 12.953330371163542 0 0 0
465 1 9.45662274167211 38.13813285104224 9.45523134276314 0 0 0
436 1 11.230719039448267 36.62363682982867 11.02011240171761 0 0 0
692 1 17.28114534446106 36.40284363474994 11.207945148117233 0 0 0
211 1 1.5815547875824814 39.87799162256262 11.058276216851272 0 0 0
208 1 2.9367980332421655 41.47899047112908 12.891475734850372 0 0 0
467 1 7.51532364963343 39.739066200965496 10.786692590089112 0 0 0
723 1 14.148662694271565 39.740884249943406 10.621099310966192 0 0 0
720 1 15.52359291614077 41.539144220054425 12.556354021584344 0 0 0
241 1 3.2744494754467057 44.7510559044476 9.676881406806176 0 0 0
212 1 4.572501828171132 43.009548122187184 11.28267169971104 0 0 0
495 1 6.501913925101502 44.41817711339817 12.662456229431879 0 0 0
468 1 10.937698520001083 42.77646843790711 10.685435592758509 0 0 0
751 1 12.274547288829702 44.03932653695483 13.08408734495608 0 0 0
753 1 15.616473698639222 44.819791410674455 9.46461978394974 0 0 0
724 1 17.340695881529914 43.05788883168147 11.290475431930194 0 0 0
243 1 1.2312591152704677 46.15467433917979 11.128757885712469 0 0 0
498 1 6.475608224515005 47.54768005925294 9.442727142558631 0 0 0
499 1 8.226741027552217 46.216933211215945 11.17026608266227 0 0 0
754 1 13.106311887307927 47.84378021397157 9.421178274443957 0 0 0
496 1 9.687982918298953 47.565135094624 12.934194455292578 0 0 0
755 1 13.915774259034913 45.84594162546746 11.36143074711588 0 0 0
752 1 15.641913174089163 47.4842682425721 12.533729314421972 0 0 0
992 1 2.8240668289990665 41.40814193495899 25.421189025609653 0 0 0
244 1 4.888798136094488 49.0706324980124 10.925525826707624 0 0 0
273 1 9.920852303099467 50.93470941584006 9.190240497276198 0 -1 0
500 1 11.213399285550986 49.368800659486155 10.923512053662023 0 0 0
527 1 12.81541799291718 50.76117423967111 12.562232915266014 0 -1 0
756 1 16.833850667453053 49.64481957509352 11.195156034363544 0 0 0
1738 1 18.66463785520578 41.640267593060074 16.132001093185167 0 0 0
13 1 5.103244133634683 0.9196369618395034 14.080122574647248 0 0 0
271 1 6.705887781880325 50.54663509587232 12.1775191614994 0 -1 0
269 1 11.118622986168178 1.5026648763278538 14.106347414362604 0 0 0
522 1 12.337936891694325 3.627024626187814 15.441742052434757 0 0 0
525 1 17.492240882922545 1.9454434587642768 14.183166048291472 0 0 0
14 1 1.8079474225596013 4.7710197141466715 14.231400162662894 0 0 0
270 1 7.781981328623939 4.714356369755688 14.220981455287795 0 0 0
266 1 6.303502572233883 2.8768736810928557 15.842167917953832 0 0 0
528 1 15.668889292151018 3.480068011863533 12.871652147954174 0 0 0
526 1 14.012989284567658 5.1694345179945715 14.121564380049696 0 0 0
1634 1 19.003538397588805 22.64533983389989 22.33140879281717 0 0 0
45 1 4.397735594298613 8.093666158980067 14.368932622151751 0 0 0
559 1 12.48407758668145 6.770870571015031 12.657775290330996 0 0 0
301 1 11.014411637904898 8.325918642682316 14.465876753914237 0 0 0
557 1 17.373062085715407 8.336483423786982 14.637931695012556 0 0 0
553 1 15.764936492237648 6.5112694567257146 16.104475983629314 0 0 0
46 1 1.515424607278154 11.432516544362285 14.064026338723272 0 0 0
1767 1 18.679923454776176 44.64758468364417 19.30944642023855 0 0 0
48 1 2.6659115433311005 9.257841586504414 12.6331629635009 0 0 0
302 1 7.412512559805232 11.409021391607315 14.307845952191386 0 0 0
304 1 9.191413392861515 9.613985488404037 12.715013795116175 0 0 0
558 1 13.996029967661828 11.3297217083945 14.363328180678781 0 0 0
643 1 14.269647419321826 26.969534114867027 23.68737476184193 0 0 0
77 1 4.906263175772394 14.565190249245774 14.083080619446346 0 0 0
335 1 5.919529307258671 12.89818263755661 12.334201974510254 0 0 0
333 1 10.994188350907761 14.333636281930165 14.16230332797469 0 0 0
591 1 12.447438057841232 12.508661379628784 12.477172597720465 0 0 0
589 1 17.54916807044011 14.139506312724007 14.234043760315995 0 0 0
78 1 1.6669303628331034 17.485486009395043 14.006930085784711 0 0 0
1599 1 18.806343338834075 6.001631019250306 0.042956917566735364 0 0 0
80 1 3.1073022753827364 15.77086139555951 12.531722338513905 0 0 0
334 1 8.094502674921106 17.958426725245342 14.02313219831911 0 0 0
336 1 9.093749981790046 15.724396493113481 12.352296599910465 0 0 0
590 1 14.523421749382145 17.073280813771664 14.354456001673402 0 0 0
586 1 12.230162068543597 16.04830802188432 15.690619113459219 0 0 0
592 1 16.04168487857294 15.634544711633682 12.275989804223345 0 0 0
367 1 6.266428576590862 19.378344017530036 12.684106877244606 0 0 0
109 1 4.734145525214925 20.918933525124114 14.103443292636252 0 0 0
105 1 3.0652626184250593 19.295682982183216 15.56588192886722 0 0 0
361 1 9.524006313778477 19.690158310241507 16.159171910088762 0 0 0
623 1 12.757429224417313 18.883941527486986 13.271159506627335 0 0 0
621 1 17.472383179980724 20.593094655897435 14.141394406390885 0 0 0
617 1 15.862613385966656 19.022553947374067 15.803136409478773 0 0 0
112 1 2.9782153610293323 22.532166592789952 12.428178706279882 0 0 0
368 1 9.865622049035807 22.452881140195302 12.409054081982614 0 0 0
366 1 8.471612810194445 23.96670497924592 14.125282485169164 0 0 0
365 1 11.394507661937457 20.93597716504395 14.421123381000822 0 0 0
618 1 13.040841624815595 22.300930525743098 16.211493264702984 0 0 0
624 1 15.740530703700491 22.120769165074915 12.20957013639147 0 0 0
110 1 1.5862078802642954 23.998230519312298 14.3752846974583 0 0 0
399 1 6.699349005626193 25.667442048968482 12.673351071579045 0 0 0
141 1 4.959884868118751 27.35697203013955 14.274646329985293 0 0 0
393 1 9.573103748935353 25.716033498320392 16.0587625578023 0 0 0