LAMMPS data file via write_data, version 29 Oct 2020, timestep = 100000

8532 atoms
1 atom types

-0.21187919032372093 104.53141775580013 xlo xhi
-0.30467180660690474 51.34021021188785 ylo yhi
-0.30467180660690474 51.34021021188785 zlo zhi

Masses

1 18.015

Atoms # atomic

1420 1 -0.1775255846163225 2.6674380249840755 2.1371827694406123 0 0 1
1872 1 4.595920389089008 1.1948544717630907 0.6139738054753269 0 0 1
1873 1 11.043193875743395 1.2361723021064421 0.49548658565944004 0 0 1
1882 1 12.351189147128787 2.4498796919554597 2.317601545213487 0 0 1
1874 1 17.984842257553762 1.036736929946665 0.8651944717865054 0 0 1
2552 1 23.792351264829293 1.2298135758575583 0.7889990067815227 0 0 1
2554 1 29.91564549203523 1.3677218948672976 0.8139432492250767 0 0 1
1877 1 1.3376440129275298 4.351316977929999 0.6439022925458051 0 0 1
1878 1 6.08241456808035 2.934507809298631 2.0646876085750954 0 0 1
1880 1 7.640680986755467 4.435279669798437 0.3285872277107982 0 0 1
1881 1 14.221521390210864 4.123212149971884 0.45461752663406374 0 0 1
2556 1 20.59821797386331 4.5879515386801595 0.765076841551958 0 0 1
2159 1 19.366629780050197 2.9308884524210717 2.784983639678217 0 0 1
2558 1 25.24736816005561 2.75055067568646 2.3955242492481092 0 0 1
2559 1 26.87217370136763 4.481392374404999 0.8340770963865112 0 0 1
2636 1 31.460170607328532 3.072192404465462 2.261255562210104 0 0 1
2561 1 33.135449144540786 4.474774153741273 0.5231715566075837 0 0 1
1976 1 3.056537088158298 5.9668160056300374 1.9254293774932632 0 0 1
1884 1 4.169707614940024 7.635567382800139 -0.005078526657801841 0 0 1
1977 1 9.356240149018708 6.071147570380928 2.0845369611560707 0 0 1
1886 1 11.228327727557375 7.639734477633142 0.7671904208047635 0 0 1
1888 1 17.598065187298225 7.640531255921786 0.7508751391318977 0 0 1
1982 1 15.832594436980166 5.824850982216208 2.1031436282714835 0 0 1
2563 1 23.413161713678246 7.471224476859921 0.7406084977545204 0 0 1
2638 1 22.181710040446667 5.941573055837451 2.6139618028479537 0 0 1
2565 1 30.15003723015964 7.5849807638033795 0.7141378558278968 0 0 1
2640 1 28.491039885519346 6.0934542896644075 2.340804927827264 0 0 1
1890 1 1.2168934553847428 10.903530382013374 0.7106581296213357 0 0 1
1503 1 -0.0851174259586909 9.427902221457892 2.4440051867130586 0 0 1
1984 1 5.740851558683615 8.933207282268569 2.0312508062209194 0 0 1
1892 1 7.541421097627433 10.751160850251594 0.7665525275253482 0 0 1
1893 1 14.231740480571778 10.691222816814847 0.5775527337336708 0 0 1
1986 1 12.75414837601726 8.915609725262696 2.6245488908619166 0 0 1
2133 1 18.913940609819974 9.205353823229062 2.5011507616423057 0 0 1
2567 1 20.347448408845494 10.787826194496077 0.9089873037414511 0 0 1
2570 1 25.21451849050576 9.191186065736757 2.187905142648156 0 0 1
2568 1 27.169679876440085 10.608950610646009 0.9620580420595277 0 0 1
2572 1 33.66817049777462 10.716873986406723 0.9210244399555538 0 0 1
2571 1 31.706956417135103 9.243507826309974 2.4687422042097658 0 0 1
1992 1 2.487844079317639 12.602018649377932 2.4662627029010533 0 0 1
2950 1 0.7027202160243328 14.113501867085592 0.5730119315887928 1 -2 0
1895 1 4.5224669395544135 13.769909960382229 0.6711479801086826 0 0 1
1896 1 9.1284393041116 11.86378102473013 2.3516496915949587 0 0 1
1898 1 10.647562216704944 13.550545824424844 0.5750575501479328 0 0 1
1995 1 15.586403530130074 12.31515097213345 2.2398286457841348 0 0 1
1899 1 17.50375828859554 14.057254577676108 0.9990000291022121 0 0 1
2647 1 22.30779073873747 12.33869395851283 2.312432011507245 0 0 1
2573 1 23.749541736880698 13.86067273170814 0.541095043083825 0 0 1
2574 1 28.4183069183818 12.422657698329216 2.588814694469145 0 0 1
2580 1 30.40017388571658 13.627558817610137 0.8637269088126649 0 0 1
1901 1 1.2310567693604921 17.155231271326002 0.6445911085474438 0 0 1
1999 1 6.018891033952779 15.355814008404549 2.1963505316210825 0 0 1
1902 1 7.770507775270645 16.93722368570042 0.8307349915464253 0 0 1
2000 1 12.578477606522075 15.435046261412973 1.7567417709829778 0 0 1
1903 1 14.049538139983246 17.3101713802287 0.47564067515576114 0 0 1
2205 1 19.11362692457484 15.619392324552143 2.5295889213486693 0 0 1
2577 1 20.626171801186352 17.097627952693177 0.6960201591328627 0 0 1
2578 1 24.972986803145204 15.817392371436267 2.188449922595375 0 0 1
2579 1 26.7560398232213 17.43749333772959 0.8793440962261971 0 0 1
2500 1 28.519268637198223 15.4128199890948 -0.277477698682837 0 0 1
2581 1 33.376326500684755 17.007733520073444 0.7310895095566501 0 0 1
2654 1 32.01001105184825 15.359574028955576 2.558682938642489 0 0 1
2005 1 2.753954312298932 18.637712714058047 2.4835014427949162 0 0 1
1904 1 4.21847616410425 20.406553234371522 0.7627159348469585 0 0 1
2006 1 9.38716993407383 18.797573305116945 2.321303252867899 0 0 1
1906 1 11.269153589722993 20.637579673562026 0.6912033469194209 0 0 1
2007 1 16.146212536822883 18.756434081768187 2.260578678892947 0 0 1
1907 1 17.62799214784881 20.710321399166176 0.8468162540064168 0 0 1
2582 1 22.255080871722786 19.086438540443847 2.5115151037106127 0 0 1
2584 1 23.502449155069947 20.43988245969977 0.7424811645391418 0 0 1
2657 1 28.73211074375444 18.774871101071092 2.3549571116707 0 0 1
2585 1 30.103820366981715 20.273562863019297 0.5590445423342661 0 0 1
4722 1 34.68123305483044 18.76126239134284 2.2901151561429174 0 0 1
1909 1 1.4865110559990278 23.660355359888126 0.6691375856084204 0 0 1
6209 1 -0.11613549728758699 22.345157261451114 2.683443991667636 1 -2 1
2012 1 6.153055357623335 21.812730621248235 2.2630120922353365 0 0 1
1915 1 8.091458656749118 23.3295209590272 0.9225817665564915 0 0 1
2013 1 12.622954179478512 22.086515428413968 2.3045693389309805 0 0 1
1918 1 14.19195372443244 23.456637867163863 0.6015765521638575 0 0 1
2708 1 19.247534855225357 21.795629546605227 2.6607959416059384 0 0 1
2588 1 20.274889713959727 23.840652966130918 0.9103298548717365 0 0 1
2661 1 25.08132811911804 21.86186184990275 2.3574383729371835 0 0 1
2587 1 26.611366598526782 23.5606844634688 0.5143648351890922 0 0 1
2662 1 31.528898106677453 22.10266270090479 2.1578895307692103 0 0 1
2593 1 33.39586394239924 23.587977543356892 0.6885298916335262 0 0 1
2017 1 3.1554610785938637 25.07989311505165 2.4201225067451086 0 0 1
1920 1 4.845448282506898 26.35589919445737 0.5117447408778869 0 0 1
2018 1 9.57223441813797 25.479633205778697 2.215617792206299 0 0 1
1922 1 11.3886314312418 26.430051004240948 0.6255246026198586 0 0 1
2020 1 16.341244595014768 24.830933859711326 2.0161890889287886 0 0 1
2590 1 21.95358820380121 25.276614884554522 2.500919342400172 0 0 1
2589 1 23.716226576605102 26.8318029206124 0.6682236305383102 0 0 1
2665 1 28.34391164187915 25.24542981657933 2.073991642572031 0 0 1
1926 1 1.2543823047878213 30.008861473944478 0.7203189859916759 0 0 1
2022 1 6.139492066138115 28.340612966230818 2.1074331737300933 0 0 1
1923 1 12.952443585679504 28.20883960143112 2.26259684313491 0 0 1
1924 1 17.40259689689049 27.05728953834076 0.6503279964596663 0 0 1
1641 1 18.93542426675745 28.42844504189618 2.467843734946727 0 0 1
2597 1 20.658091317934105 29.76842772078314 0.7738320857940586 0 0 1
2669 1 25.374425801277475 28.368888317201705 2.14892371012242 0 0 1
2600 1 26.945353738921877 29.906738843211155 0.4878611443046571 0 0 1
2592 1 30.13405588014974 27.045542718303476 0.8158782917963401 0 0 1
2671 1 31.905276039995037 28.244822706184344 2.3804172063918774 0 0 1
2601 1 33.35351713653969 30.02960023779846 0.8547057725927123 0 0 1
2025 1 3.0545004619347136 31.269400135360215 2.067503611140458 0 0 1
1928 1 7.8976554494550975 30.219888751183085 1.0028119492882133 0 0 1
1929 1 9.88611549951354 31.40006673507617 2.7066403398173504 0 0 1
1931 1 14.340582817386451 30.110675662919146 0.6699726681015038 0 0 1
2029 1 15.746523230977695 31.966968938731185 2.0173100096859717 0 0 1
2598 1 22.203975546220505 31.47326214605242 2.061132936760233 0 0 1
2676 1 28.716835876437198 31.29770043927166 2.107655423582961 0 0 1
2604 1 30.25949062940164 32.763721056400364 0.6560080951221272 0 0 1
1598 1 0.06308256908061544 34.42220116802686 2.5775978975080025 0 0 1
1934 1 4.493557574601342 33.634138593217294 0.8049545512245129 0 0 1
1936 1 6.323429968830943 35.13955031773214 2.1581204757967973 0 0 1
1937 1 11.100906478041365 33.15757169682896 0.6304137135972215 0 0 1
1939 1 12.671162706053211 34.844311949545244 2.258092156764574 0 0 1
1940 1 17.660973107277805 33.13571824297281 0.4431329475095973 0 0 1
2402 1 19.030660749266517 34.89276032619552 2.1131926559719543 0 0 1
2603 1 23.73902254896347 33.542616747315066 0.4508130231253794 0 0 1
2681 1 25.49983418201479 34.58258264963603 2.2541435170793536 0 0 1
2605 1 31.520489550029833 34.76731837550343 1.9826146060461416 0 0 1
1941 1 1.6139834286489245 36.40696730255358 0.8321811407515654 0 0 1
1942 1 2.9507959775781605 38.36343123090373 2.360829229022131 0 0 1
1943 1 8.02923608739339 36.909236372730895 0.5481330162583912 0 0 1
2037 1 9.743193087967743 38.259866624278274 2.1991359716354033 0 0 1
1944 1 14.353877591380856 36.16127395930746 0.36550654682162065 0 0 1
1945 1 15.783669227333808 37.84298374463422 1.9934151685222838 0 0 1
2606 1 20.763674878222343 36.52908000122216 0.3946734665175996 0 0 1
2685 1 22.114283972688867 38.24364321700518 2.0638165087181606 0 0 1
2608 1 26.995934315489528 36.205155766084864 0.5108619168153106 0 0 1
2687 1 28.608749288143898 38.086766188437174 2.0317466868410703 0 0 1
2609 1 33.285721785948496 36.517054740429806 0.5733195873964164 0 0 1
1948 1 4.373397554335715 39.85170127674911 0.5456805388978475 0 0 1
1949 1 6.139965361728774 41.00971692283496 2.2038694090354523 0 0 1
1950 1 11.318796170897443 39.8535397264862 0.7189352183089992 0 0 1
2052 1 12.741195196214205 41.635729202476774 2.47934474782168 0 0 1
1951 1 17.344548648261352 39.610405425365904 0.6730687229045202 0 0 1
2679 1 19.117840528277696 41.4281433043491 2.2644874551109515 0 0 1
2611 1 23.69471552678707 39.54418799850932 0.6280605931804744 0 0 1
2691 1 25.202508779410806 41.1214815655563 2.1493744107568276 0 0 1
2612 1 30.198118702563864 39.57496480679868 0.24270765028072183 0 0 1
2613 1 31.601488384333265 40.67387923257891 2.172239103904931 0 0 1
1952 1 0.9628656924808634 42.9217346285291 0.7224482380563566 0 0 1
1953 1 2.810067471185845 44.475067664716654 2.0024082262487974 0 0 1
1954 1 7.3887952366053655 42.98216489345248 0.4795844074421298 0 0 1
1955 1 9.193254440483507 44.65643596287322 2.1769535224793417 0 0 1
1956 1 14.213326673985396 43.207646277598066 0.595333966389352 0 0 1
2053 1 15.65639937837098 44.74926646953596 2.0468859686860643 0 0 1
2615 1 20.635298926255974 42.79060300515319 0.7605282225498335 0 0 1
2694 1 22.028320386605344 44.54846337077031 2.3341022428550047 0 0 1
2617 1 26.5872112730882 42.437974365699205 0.20239327317180467 0 0 1
2618 1 28.235058861138814 44.042489168459795 1.9359743674677956 0 0 1
2619 1 33.4786486901353 42.601033417160885 0.578571516852723 0 0 1
7711 1 0.3527023069573382 46.06748399791912 -0.19473571395326894 1 1 2
1446 1 -0.0918899778033456 47.64593226277513 2.1345151253693433 0 -1 1
1959 1 4.582232771022607 46.16114836329586 0.21159153723380064 0 0 1
1868 1 6.186607201647393 48.272911997559305 1.8802740302965955 0 -1 1
1960 1 10.719469752739977 46.147025848138135 0.5852000197488068 0 0 1
2057 1 12.455254494214124 47.639152638582054 2.0770941409890713 0 -1 1
1961 1 17.21368338911093 46.11937820202332 0.549059119437476 0 0 1
2189 1 18.978480369487656 47.50268382748658 1.9980595460913086 0 -1 1
2620 1 23.682726318794423 45.854535236907985 0.9344155915614805 0 0 1
2625 1 25.430040698033164 47.349188577014665 2.644764046888207 0 -1 1
2621 1 29.714498812013094 45.75362167469594 0.4625923325664405 0 0 1
2699 1 31.77015578175306 47.382680992989364 1.8347010553181549 0 -1 1
1866 1 1.3796494049719974 49.73627147725618 0.35296578363011466 0 -1 1
1867 1 3.0076565837445095 51.08685785155827 2.155932121918412 0 -1 1
1869 1 7.759971161883519 49.91781021273594 0.4827910293883919 0 -1 1
1964 1 9.406480095763637 51.26312283745126 1.9083303277468673 0 -1 1
1871 1 14.31597002099754 49.959171383099914 0.7752380537180046 0 -1 1
1875 1 16.047642553190435 51.29397119270883 2.3094997931829906 0 -1 1
2547 1 20.76044900255027 49.85685127867612 0.6768028973893933 0 -1 1
2628 1 22.36037126131571 51.09499995309723 2.4960014298649242 0 -1 1
2549 1 26.722652044837304 49.41551754498298 0.8232247624072861 0 -1 1
2550 1 28.41816264773108 51.30974731195119 2.431908424112253 0 -1 1
2551 1 33.118004395043606 49.63162871484103 0.43415143293873937 0 -1 1
1401 1 -0.14770805216107497 -0.024512514552796683 5.272175616617691 0 0 1
1967 1 1.6909405150268968 1.2135262998810725 3.5872826539359792 0 0 1
2064 1 6.2193284542834215 -0.2731811472834362 5.363775178259621 0 0 1
1968 1 7.939762885095469 1.1897903768766014 3.4832696855342973 0 0 1
1973 1 9.445807077732425 2.402461966097433 5.4696735157895215 0 0 1
1969 1 14.357622455366908 1.3489629713794078 3.593390530888947 0 0 1
2629 1 20.67388977955702 0.8329919234499825 4.06604222357934 0 0 1
2709 1 22.096921743717346 2.5657677032053936 5.841218126286762 0 0 1
2630 1 26.97113245015551 1.4322912299191157 4.383679121513274 0 0 1
2631 1 33.352575408013095 1.2844419488398955 3.865615613866617 0 0 1
2069 1 3.1136055894124794 2.9672165018380574 5.012952585521228 0 0 1
1971 1 4.866258290530506 4.547502486600031 3.867151584398049 0 0 1
1972 1 10.677723516738276 4.181790309113111 3.622729608140945 0 0 1
2075 1 15.730681795322932 2.8812876501176774 5.580443259244599 0 0 1
1974 1 17.513758046992812 4.150098794780806 4.123905585840773 0 0 1
2633 1 23.689089076881608 4.031289857470314 4.1988716621401965 0 0 1
2634 1 30.358893046135606 4.8276323498982885 3.8602668363032917 0 0 1
2635 1 28.840961611749265 3.224748391474173 5.68058300025741 0 0 1
1975 1 1.5363215074402532 7.459431406529378 3.73555920432593 0 0 1
1614 1 0.19587918517694802 5.948758656910882 5.35633232045154 0 0 1
1979 1 6.106389902685858 5.9229773597500746 5.7053210630966955 0 0 1
1978 1 7.490624459198849 7.496891469385616 3.776615803923204 0 0 1
2084 1 9.253165901284449 8.742659209865707 5.471538350713422 0 0 1
1980 1 12.348323351006492 5.772803368602639 5.356960105547588 0 0 1
1981 1 14.425770282834034 7.245098096387705 3.9823916209692323 0 0 1
2085 1 15.781605304488874 8.478500188444652 5.9074614539745 0 0 1
2637 1 20.522621680649483 7.714887545153514 3.9926034870686262 0 0 1
2594 1 19.267915234413614 5.877162388290914 5.680696971303226 0 0 1
2641 1 25.167845561465104 6.072748239850387 5.30087289811685 0 0 1
2639 1 26.80881977244856 7.496166827550452 3.9526804697465225 0 0 1
2642 1 33.63837761980476 7.748938641820608 3.9081440793324216 0 0 1
2643 1 32.172796496651436 6.118268716946092 5.807904045042611 0 0 1
1983 1 2.5677813465376835 9.017245201560725 5.6455394201965134 0 0 1
6893 1 0.05480599402771957 11.754696590096232 4.080950511670617 2 -1 1
1985 1 4.096796817795666 10.659908206452505 3.795132450793524 0 0 1
1987 1 10.818433005466838 10.506001296726643 4.028350953109647 0 0 1
1988 1 17.030387749903817 10.27654194919541 4.3077877229279125 0 0 1
2716 1 21.896454247748427 9.309689477746382 5.6776338361235625 0 0 1
2644 1 23.838177368655142 10.821731616520102 4.026801782820738 0 0 1
2718 1 28.296161053017887 9.201389382551167 5.666274467881757 0 0 1
2645 1 29.919151546737908 10.808703355431765 4.161874962717385 0 0 1
1991 1 1.053193584456601 14.058818247485203 3.9120180809447387 0 0 1
2089 1 6.287760611209776 12.048067307620665 5.3816854242961405 0 0 1
1993 1 7.8690091586892414 13.779514210255618 4.0140728742437854 0 0 1
2092 1 12.435627161117665 12.424432242143263 5.3839336670833955 0 0 1
1994 1 14.034128925881358 13.833050073843868 3.5670074952276565 0 0 1
2071 1 18.85946080366629 12.38735741631774 5.540206262100636 0 0 1
2646 1 20.722447267073584 13.866180796525084 4.074449427732772 0 0 1
2648 1 25.244778638129823 12.803826549368548 5.417843170942432 0 0 1
2649 1 26.91412156881225 14.419340615697298 3.769593948343612 0 0 1
2722 1 31.638528359202184 12.564285138446234 5.458639103450374 0 0 1
2650 1 33.64570927573163 13.82937085528433 3.9812634964150515 0 0 1
1998 1 3.025203599907972 15.460044026884402 5.462980418670839 0 0 1
1997 1 4.519767018782639 17.00937390728356 3.924294469613935 0 0 1
2098 1 9.628285909816967 15.264206294824056 5.411965543040523 0 0 1
2001 1 11.13966745036747 17.162826604489094 3.76923351498224 0 0 1
2099 1 15.352612852960274 15.320770657009179 5.379419504551194 0 0 1
2002 1 17.30468272316636 16.8338662510905 3.9674605621871146 0 0 1
2725 1 22.626040656402303 15.496506849524518 5.649307505490426 0 0 1
2651 1 23.861303244591756 17.402929441270516 3.9623480446118275 0 0 1
2652 1 28.643488320268634 15.786770657404016 5.509493020637518 0 0 1
2653 1 30.427021256377433 17.005417088559717 4.06357306261872 0 0 1
2004 1 1.1124256350822301 20.32105530526571 4.24715717372066 0 0 1
2103 1 6.400164120821882 18.41543152504456 5.31315595618229 0 0 1
2011 1 7.76153217593499 20.244247044131342 3.7732792078441397 0 0 1
2105 1 12.723119225854756 18.907772831183653 5.287363028985689 0 0 1
2008 1 14.576357402888572 20.411574489288554 3.7397329083839335 0 0 1
2614 1 19.069633523419522 18.42870451546918 5.510545848946304 0 0 1
2656 1 20.711843699685268 20.384659523149146 4.336860335949201 0 0 1
2729 1 25.313688164486557 19.082483999702855 5.452686272617356 0 0 1
2658 1 26.962559800828746 20.526437620931834 3.8424391190780947 0 0 1
2659 1 32.071789245160524 18.956140361832922 5.2240491059732115 0 0 1
2663 1 33.52576164579943 20.853349267726337 3.6993350298980374 0 0 1
2010 1 2.9584355268946045 21.707540965194557 5.8497565458025855 0 0 1
2009 1 4.260030209390869 23.146848934983883 4.183172452428008 0 0 1
2109 1 9.311348556015822 21.860695065261197 5.307861688679793 0 0 1
2014 1 10.847751324809645 23.59427535269351 3.7997731623035644 0 0 1
2110 1 15.781511551811853 21.820920167646676 5.791138039771689 0 0 1
2015 1 17.5294916395592 23.162092264554385 4.222737962482207 0 0 1
2660 1 22.322433773827715 22.07819324059893 5.818008726851441 0 0 1
2664 1 23.8793852164543 23.727740617937947 4.0827282422702345 0 0 1
2733 1 28.73934355695798 21.883051865062814 5.408743123122896 0 0 1
2666 1 30.181835383854096 23.725305455845998 3.963694872425946 0 0 1
2016 1 1.2010107577389364 26.621439136314162 3.8635932177484467 0 0 1
4890 1 0.3995845097975843 24.101496465419455 4.705222847276771 1 -1 -1
2114 1 6.238651787286518 25.286508154255092 4.992424289398488 0 0 1
2023 1 7.971539420473244 26.892673566532093 3.6795510431126512 0 0 1
2019 1 12.784445634857907 25.323873591023055 5.349445952155318 0 0 1
2024 1 14.6504320280562 26.60788234589224 3.607452487392035 0 0 1
2136 1 18.94425487346192 25.164785155036643 5.409984387882347 0 0 1
2667 1 20.44103574362963 26.995961807811973 4.280027460307525 0 0 1
2670 1 26.709073677722355 26.43199204327324 3.9487876780604454 0 0 1
2735 1 25.386717763371433 25.17521315943745 5.947806818141076 0 0 1
2737 1 31.853234533014223 25.083817933040464 5.517708930353841 0 0 1
2672 1 33.43984423676177 26.573170681969273 4.103513827516925 0 0 1
2021 1 2.737415472128298 28.413727312965207 5.016659920404752 0 0 1
2026 1 4.718550739308773 30.042205421051168 3.654199095720838 0 0 1
2120 1 9.63416604723969 28.367484094575925 5.374300103252493 0 0 1
2027 1 11.56383028318001 29.920615159106134 4.176685112774395 0 0 1
2121 1 15.984712818761835 28.317733740926727 5.228994648998105 0 0 1
2668 1 22.174020750865363 28.608900457874572 5.307443123202929 0 0 1
2674 1 23.93154857752375 30.04047434277885 3.677347416526904 0 0 1
2740 1 28.072407854874932 28.18257919270731 5.4941269370006065 0 0 1
2677 1 29.928984168223565 29.726110555251797 3.946572977983303 0 0 1
1397 1 -0.08463995302021282 31.511660938540277 5.271289637242333 0 0 1
2031 1 1.665717510289562 32.88198779390003 3.860570227382631 0 0 1
2113 1 6.587655980900334 31.55484038473846 5.196372549581766 0 0 1
2028 1 13.104561782453024 31.876533372417825 5.709497463657079 0 0 1
2030 1 17.155579071701844 30.178798737921042 3.595174387090053 0 0 1
2210 1 19.13175295137793 31.417127896120682 5.269030619371328 0 0 1
2675 1 25.359618749046714 31.584982475049024 5.344197008754099 0 0 1
2678 1 31.622790613187767 31.584966491702232 5.140191122595944 0 0 1
2078 1 3.356800521380153 34.64604894253017 5.172536349632924 0 0 1
2032 1 7.890480309057697 33.27134597361817 3.4714152156697913 0 0 1
2094 1 9.485843657212051 34.83091809014582 5.336187187169444 0 0 1
2033 1 14.192983780870163 33.39171897564704 3.749178899545746 0 0 1
2034 1 16.16987405597698 34.93181516594503 5.308861785569885 0 0 1
2680 1 20.620292958743654 33.17024496010689 3.5283419478157447 0 0 1
2747 1 21.88293776066343 34.95230490164492 5.18177672901014 0 0 1
2682 1 27.353811572705677 33.12815319368943 3.8014341957272446 0 0 1
2683 1 29.149537886462774 34.395491977232766 5.490834381110119 0 0 1
2684 1 33.22620649395248 33.54757274681507 3.863736200900912 0 0 1
1431 1 0.24870965954579133 37.639217942018114 5.350980523166901 0 0 1
2035 1 4.555809852071725 36.50042568718332 3.5886768766432358 0 0 1
2036 1 5.9957321928169725 37.970419407460476 5.225605318356416 0 0 1
2038 1 11.07053323709788 36.476160166472695 3.755460423731515 0 0 1
2039 1 12.67725987966841 37.792768043795185 5.448909966814212 0 0 1
2040 1 17.328467273787957 36.399516952740555 3.5227067361507913 0 0 1
2132 1 18.919423935107865 38.09965142841797 5.0485737880641945 0 0 1
2686 1 23.512763000346734 36.28736701351113 3.334576177235953 0 0 1
2727 1 25.41762005780057 37.48851333924508 5.155205507530648 0 0 1
2688 1 30.2094035479719 36.18317095950696 3.5833945902240103 0 0 1
2689 1 31.630888457252777 37.987781883403855 5.41077711555209 0 0 1
2042 1 1.0987397401538916 40.03285358776194 4.007057251140246 0 0 1
2047 1 2.9553243591242206 41.33124614550142 5.369487125881214 0 0 1
2043 1 7.781110795950623 39.570279701805056 3.985369417948726 0 0 1
2050 1 9.455003661024964 41.30511935140823 5.488819811026853 0 0 1
2044 1 14.316586672981192 39.31811616864334 3.672072407237698 0 0 1
2045 1 15.817586178068215 41.24950709037393 5.414378779826807 0 0 1
2690 1 20.826099037214377 39.73630365530251 3.7838261788684378 0 0 1
2610 1 22.465097461282188 40.72516987720102 5.566051493119122 0 0 1
2692 1 26.7956921679401 39.5490872601246 3.4735063615295148 0 0 1
2497 1 28.580363817206482 40.90945599443816 5.279062602928706 0 0 1
2693 1 33.27269362066131 39.53291628244288 3.8410660275957227 0 0 1
4858 1 34.68625402864684 41.185353341966675 5.377837505534231 0 0 1
1990 1 0.04002035171662799 44.43005503799115 5.48964654964692 0 0 1
2048 1 4.580098953660023 42.73866749453436 3.602400480185789 0 0 1
2049 1 5.917546391061599 44.47453740226782 5.349243379467623 0 0 1
2051 1 10.78656132640319 43.00415855632413 3.7709706988915412 0 0 1
1839 1 12.484445235463697 44.25707741540036 5.340743060548393 0 0 1
2054 1 17.051778966559947 42.77582368504016 3.5214540360798234 0 0 1
1713 1 18.869608643777287 44.02660111609163 4.992663029893664 0 0 1
2695 1 23.424350249963812 42.49751603382173 3.7447553956797357 0 0 1
2347 1 25.186842698085858 43.723817666749966 5.826151121015905 0 0 1
2696 1 30.165956733365785 42.63150550240295 3.7060482336098115 0 0 1
2346 1 31.728725721122117 44.364330033777485 5.316428715374762 0 0 1
2055 1 1.5377193015421666 46.23286610401269 3.5977141512468727 0 0 1
2056 1 7.5363334519252545 46.28089417581217 3.6807948547147302 0 0 1
1519 1 9.194518613314631 47.57026513214324 5.361282844874531 0 -1 1
2058 1 13.943608632233909 46.049777514448564 3.8581309842047355 0 0 1
2059 1 15.878430389846987 47.50392699995555 5.369609321010535 0 -1 1
2697 1 20.35255918545069 46.15305633964807 3.99866099856575 0 0 1
2272 1 22.12131718305377 47.340288535768586 5.56435799882253 0 -1 1
2698 1 26.912320952717703 45.56668613519672 4.053156242411311 0 0 1
2626 1 28.405657450070795 47.40838864294616 5.43369872910867 0 -1 1
2700 1 33.17232605113422 46.07545848703405 3.8679784604704404 0 0 1
1962 1 2.970225543075285 48.37993040110884 5.333882085957194 0 -1 1
1963 1 4.6979323735892615 49.783168536243636 3.5714722820822637 0 -1 1
1965 1 11.028665727197469 49.641749600979566 3.8725941190499107 0 -1 1
1970 1 12.528417845431015 51.1940666758911 5.143230731445781 0 -1 1
1674 1 18.64908428487407 50.92955529366206 5.41752046268842 0 -1 1
1966 1 17.408203757432968 49.41449847094232 3.5407787171937626 0 -1 1
2624 1 24.00215671441508 49.700860010299195 4.184725037984338 0 -1 1
2706 1 25.47431559023579 51.112350225425665 5.731767928925403 0 -1 1
2627 1 30.16763026243428 49.4842678691337 3.584761295928552 0 -1 1
2632 1 31.64208976854872 51.14805608499819 5.155942042033842 0 -1 1
2065 1 4.412992384780606 1.305599898648831 6.884046481947332 0 0 1
1408 1 5.970505799371474 2.7230815008072105 8.509787620055683 0 0 0
2067 1 11.107681438746502 0.9210140783332219 6.731819956035192 0 0 1
1479 1 12.49668022651386 2.4339878190969526 8.567611971168834 0 0 0
2068 1 17.466878953647836 1.1938028066528628 6.877490010699902 0 0 1
418 1 18.69163898714647 2.5582118056497887 9.240784220221787 0 0 0
2705 1 23.900238143726014 1.2176346219190242 7.273723428138751 0 0 1
2183 1 28.426449831044888 -0.30325406606897887 8.598345333908602 0 0 0
2707 1 30.31102199146362 1.3696252903169561 7.164385715387461 0 0 1
2070 1 1.8361137424834943 4.373168256388724 7.230821525926947 0 0 1
2072 1 7.924657910840118 4.052800449147746 6.995166953224952 0 0 1
271 1 9.267364640301333 5.732640042998763 9.275056547872984 0 0 0
2074 1 13.89368821480603 4.30498868287472 7.136670226092277 0 0 1
2710 1 20.668052255420672 4.2580973058312805 7.376407085988687 0 0 1
2711 1 26.711190515747173 4.480012643560237 6.980693517588546 0 0 1
2712 1 33.32827040882647 4.523769456363068 7.470151869982292 0 0 1
748 1 3.00410896223736 6.189598061343803 9.171630453999667 0 0 0
2076 1 4.694844299345205 7.543155377090979 7.076233018619161 0 0 1
2077 1 10.915843599092886 7.29724528717285 7.35444513528882 0 0 1
2079 1 17.469153283866422 7.3284504968530495 7.6366562169579195 0 0 1
2713 1 23.634884472528437 7.699964028468335 7.2043727432126765 0 0 1
2508 1 28.29414262415345 6.21811846638548 8.436254002755271 0 0 0
2714 1 30.233945147240167 7.901244522691197 7.01201379139933 0 0 1
2081 1 0.6670248975839511 10.885458200100913 6.740517263997385 0 0 1
2083 1 7.970455641421385 10.670692257430048 6.900980109761833 0 0 1
1416 1 6.408009740865905 9.077919714506969 8.478562486504641 0 0 0
751 1 12.573639745621414 9.065795762185221 9.27336946761104 0 0 0
2086 1 14.19232095620774 10.654745065935199 7.136076401826355 0 0 1
2715 1 20.396590212187363 11.093968689351655 7.37562941212722 0 0 1
1133 1 19.32947233546872 9.221539251679877 9.22756541119036 0 0 0
2749 1 25.340269048122376 9.518100092001244 8.642785834412093 0 0 0
2717 1 26.767859038678232 11.115381229588039 7.122190261430133 0 0 1
2756 1 31.924602671504545 9.367002461479395 8.625916661321147 0 0 0
2719 1 33.568336556203434 11.134091855623065 7.345510445892414 0 0 1
1711 1 2.7139133375119364 12.033062941284985 8.462843733909287 0 0 0
2087 1 4.285239502742658 13.482731819473981 6.835247542961044 0 0 1
2142 1 9.459458899634331 12.406766104665314 8.473394063264342 0 0 0
2091 1 11.236815864307436 13.984944548664838 7.092489720137915 0 0 1
2148 1 15.456717310995787 12.280508746052782 8.63550292571608 0 0 0
2093 1 16.853846257433975 14.078787465412091 7.000606627472346 0 0 1
2720 1 24.028066848166986 14.150173838302443 7.411486838503616 0 0 1
1123 1 22.226585005282523 12.78009185407582 9.337372690843535 0 0 0
2723 1 30.27521757417244 14.08511998910293 7.174667905183297 0 0 1
1372 1 28.51559142996511 12.420847786701803 9.146520978231905 0 0 0
1411 1 0.0634424241893074 15.871086936626014 8.645053552719423 0 0 0
2096 1 1.3361460724358505 17.014475983033066 6.687735582248582 0 0 1
1700 1 5.82779224627216 15.313163467852355 8.426754413227396 0 0 0
2097 1 7.748031686795859 16.94530986751252 6.894484318620548 0 0 1
2150 1 12.794537501753561 15.86182613636506 8.658078085312008 0 0 0
2100 1 14.155489652459973 17.30217580165644 6.876432785228179 0 0 1
2728 1 19.121782734487823 15.274116392147592 8.411457971862857 0 0 0
2724 1 20.72541468494001 16.951419207222422 7.174959699702895 0 0 1
2730 1 26.977738497701548 17.324015871767525 6.85217655655241 0 0 1
1378 1 25.48665690252596 16.206700151356994 9.378402124162337 0 0 0
2750 1 31.748899637082605 15.746705525996205 8.644721649103111 0 0 0
2726 1 33.3156883103458 17.453049356969057 7.11448338988057 0 0 1
2135 1 2.884458940949688 18.677844253662474 8.319810507136605 0 0 0
2102 1 4.8688215717796295 20.264812916912614 6.9164453344808114 0 0 1
1392 1 9.116961726230357 19.106017918160205 8.28398838630434 0 0 0
2104 1 11.051551551019116 20.59031751240377 6.886558914657913 0 0 1
2106 1 17.46987395026854 20.1868578726095 7.125996600169806 0 0 1
1368 1 21.68751445515273 18.962699434569505 9.287913190657154 0 0 0
2732 1 23.73579687504396 20.355874195965875 7.280619593370182 0 0 1
2156 1 28.927001531213307 18.938869007254418 8.371337297008287 0 0 0
2731 1 30.58017242882952 20.437315809080197 6.98893153571587 0 0 1
2107 1 1.4070114180403903 23.53692223194781 7.031642229908231 0 0 1
2128 1 6.472936192347318 22.095998126810052 8.43762393876929 0 0 0
2115 1 7.954619607779129 23.83371923515362 6.835677988200796 0 0 1
73 1 12.323149986830149 22.071840130489775 9.215839358339126 0 0 0
2117 1 14.090641502434464 23.55426002558595 7.169838784951613 0 0 1
1375 1 19.087543935665305 22.138105831471666 9.290058587698468 0 0 0
2734 1 20.522326582082737 23.925215795882732 7.287905492169838 0 0 1
2753 1 25.600866374469366 22.12212495817586 8.41452389296956 0 0 0
2736 1 27.25493079233755 23.783828226172826 7.1394342756032145 0 0 1
2759 1 31.749485532162442 22.103674707229302 8.645538927104468 0 0 0
2738 1 33.51790233273855 23.701588822368635 7.545990950874629 0 0 1
1925 1 3.1589076665808826 25.495296657998328 8.184453956791 0 0 0
2112 1 4.790422292789181 26.67988033986098 6.548291149208574 0 0 1
1536 1 9.31231977912625 25.628713866826963 8.612464701382603 0 0 0
2116 1 11.487675586260517 26.710553821047807 7.20571784653828 0 0 1