
# Create simulation box of size 50 x 50 x 50 Angstrom
#
lattice	            sc 1
Lattice spacing in x,y,z = 1.0000000 1.0000000 1.0000000
region 	            all block 0 ${X} ${YZ_LO} ${YZ_HI} ${YZ_LO} ${YZ_HI} units box
region 	            all block 0 53.4 ${YZ_LO} ${YZ_HI} ${YZ_LO} ${YZ_HI} units box
region 	            all block 0 53.4 -0.06420920263861873.0 ${YZ_HI} ${YZ_LO} ${YZ_HI} units box
region 	            all block 0 53.4 -0.06420920263861873.0 50.97132920263881.0 ${YZ_LO} ${YZ_HI} units box
region 	            all block 0 53.4 -0.06420920263861873.0 50.97132920263881.0 -0.06420920263861873.0 ${YZ_HI} units box
region 	            all block 0 53.4 -0.06420920263861873.0 50.97132920263881.0 -0.06420920263861873.0 50.97132920263881.0 units box
create_box          1 all
Created orthogonal box = (0.0000000 -0.064209203 -0.064209203) to (53.400000 50.971329 50.971329)
  3 by 1 by 2 MPI processor grid

# fill box with 4175 randomly distributed atoms
#
create_atoms        1 random 4608 63782 all
Created 4608 atoms
  create_atoms CPU = 0.001 seconds
mass                1 18.015

# Define potential
#
pair_style          sw
pair_coeff          * * /data/emrosky-sim/Freezing_Simulations/Melting/MLmW_fancy/ML_mW.sw mW
Reading sw potential file /data/emrosky-sim/Freezing_Simulations/Melting/MLmW_fancy/ML_mW.sw with DATE: 2019-02-27

# Run minimization
#
minimize            1.0e-8 1.0e-8 10000 1000
WARNING: Using 'neigh_modify every 1 delay 0 check yes' setting during minimization (../min.cpp:187)
Neighbor list info ...
  update every 1 steps, delay 0 steps, check yes
  max neighbors/atom: 2000, page size: 100000
  master list distance cutoff = 6.0032907
  ghost atom cutoff = 6.0032907
  binsize = 3.0016454, bins = 18 18 18
  1 neighbor lists, perpetual/occasional/extra = 1 0 0
  (1) pair sw, perpetual
      attributes: full, newton on
      pair build: full/bin/atomonly
      stencil: full/bin/3d
      bin: standard
Per MPI rank memory allocation (min/avg/max) = 4.236 | 4.249 | 4.255 Mbytes
Step Temp E_pair E_mol TotEng Press 
       0            0    7216695.1            0    7216695.1    4931576.8 
     667            0   -49916.695            0   -49916.695   -149.85906 
Loop time of 1.23871 on 6 procs for 667 steps with 4608 atoms

98.6% CPU use with 6 MPI tasks x no OpenMP threads

Minimization stats:
  Stopping criterion = max force evaluations
  Energy initial, next-to-last, final = 
       7216695.1063891  -49916.6474782301   -49916.695402214
  Force two-norm initial, final = 1.6577813e+08 2.2601499
  Force max component initial, final = 88222813.0 0.64108616
  Final line search alpha, max atom move = 0.078179959 0.05012009
  Iterations, force evaluations = 667 1000

MPI task timing breakdown:
Section |  min time  |  avg time  |  max time  |%varavg| %total
---------------------------------------------------------------
Pair    | 0.94263    | 1.0455     | 1.1104     |   5.8 | 84.40
Neigh   | 0.028409   | 0.029576   | 0.030812   |   0.5 |  2.39
Comm    | 0.074938   | 0.14116    | 0.24474    |  15.9 | 11.40
Output  | 0          | 0          | 0          |   0.0 |  0.00
Modify  | 0          | 0          | 0          |   0.0 |  0.00
Other   |            | 0.02249    |            |       |  1.82

Nlocal:        768.000 ave         785 max         754 min
Histogram: 2 0 1 0 0 0 1 1 0 1
Nghost:        1569.00 ave        1579 max        1555 min
Histogram: 2 0 0 0 0 0 0 2 0 2
Neighs:        0.00000 ave           0 max           0 min
Histogram: 6 0 0 0 0 0 0 0 0 0
FullNghs:      21855.0 ave       22684 max       21126 min
Histogram: 2 0 1 0 0 0 1 1 0 1

Total # of neighbors = 131130
Ave neighs/atom = 28.457031
Neighbor list builds = 29
Dangerous builds = 0

# Add velocity/set timestep
#
velocity            all create ${TEMP} 120598 rot yes dist gaussian
velocity            all create 295 120598 rot yes dist gaussian
timestep            5.0

# Define output
#
compute	            1 all msd
thermo	            100
thermo_style        custom step temp press vol etotal ke pe c_1[4] density

# Neighbor lists
#
neigh_modify        delay 0 every 1 check yes

# Set fixes
#
fix                 1 all momentum 10 linear 1 1 1 rescale
fix                 2 all nve
fix                 3 all temp/csvr ${TEMP} ${TEMP} 500.0 928347
fix                 3 all temp/csvr 295 ${TEMP} 500.0 928347
fix                 3 all temp/csvr 295 295 500.0 928347
fix                 4 all press/berendsen iso ${PRES} ${PRES} 1000.0 modulus 20000
fix                 4 all press/berendsen iso -1000 ${PRES} 1000.0 modulus 20000
fix                 4 all press/berendsen iso -1000 -1000 1000.0 modulus 20000

# Run 0.5 ns equilibration
#
dump                1 all custom 1000 eq.${NAME}.dump id type x y z vx vy vz
dump                1 all custom 1000 eq.liq_295K_-1000atm_ML.dump id type x y z vx vy vz
run                 100000
Per MPI rank memory allocation (min/avg/max) = 3.486 | 3.501 | 3.505 Mbytes
Step Temp Press Volume TotEng KinEng PotEng c_1[4] Density 
     667          295    1181.5782    139087.04   -45865.581    4051.1146   -49916.695 2.427516e-33   0.99108097 
     700     148.4298   -695.99357    140543.27   -45223.016    2038.3259   -47261.342    0.2022025   0.98081195 
     800    211.76568   -760.74268    141405.18   -43800.237    2908.0917   -46708.329   0.68330366   0.97483359 
     900    242.04056   -837.84323    141962.07   -42945.674    3323.8443   -46269.518    1.2840654   0.97100949 
    1000    256.28103   -1102.1114    142322.52   -42326.797    3519.4027     -45846.2    1.9527366   0.96855025 
    1100     274.9583   -854.67028    142313.35    -41893.79    3775.8901    -45669.68    2.6981408    0.9686127 
    1200    278.63376   -918.32889    142628.16   -41599.648    3826.3637   -45426.012    3.5381068   0.96647475 
    1300    282.96076   -1119.1384    142575.89   -41327.388    3885.7846   -45213.173    4.4938424   0.96682907 
    1400     290.2548   -1098.8054    142588.57   -41231.831    3985.9508   -45217.782    5.3829755   0.96674307 
    1500    293.20157   -1042.1605    142320.57   -41098.276    4026.4175   -45124.693    6.3529969   0.96856352 
    1600    287.95889   -933.00089    142568.97   -41085.735    3954.4219   -45040.157    7.4515839   0.96687603 
    1700    296.37584   -889.74777    142732.78   -41078.725    4070.0085   -45148.733     8.452249   0.96576637 
    1800    293.93811   -1015.5398    143039.11   -40993.547    4036.5321   -45030.079    9.6514451   0.96369805 
    1900    298.41471   -1067.9979    143101.46   -40924.536    4098.0075   -45022.544    10.563368   0.96327821 
    2000    289.49159   -860.31914    143084.91   -40868.569    3975.4699   -44844.038    11.652702   0.96338964 
    2100    286.83363   -1183.2264    143234.52   -40947.474    3938.9691   -44886.443    12.887672   0.96238338 
    2200    295.89515    -1215.063     143130.5   -40901.373    4063.4073   -44964.781    14.054767   0.96308274 
    2300    295.94062   -1161.9376    142860.16    -40836.03    4064.0318   -44900.062    15.043333   0.96490521 
    2400    293.02291   -746.91758     143002.8   -40828.095     4023.964   -44852.059    16.414961   0.96394279 
    2500    292.20387    -1092.764    142860.23   -40797.095    4012.7165   -44809.811    17.467657   0.96490479 
    2600    297.99245   -902.40187    142301.66    -40729.24    4092.2087   -44821.449    18.387412   0.96869223 
    2700    297.22455   -1035.4749    142481.71   -40752.681    4081.6634   -44834.344    19.651676   0.96746813 
    2800    294.47432   -847.60374    142706.33   -40807.652    4043.8956   -44851.548    20.775257   0.96594534 
    2900    296.30095   -926.82331    142858.77   -40740.037      4068.98   -44809.017    21.968754   0.96491465 
    3000    295.80536   -975.10071    142741.28   -40753.314    4062.1742   -44815.488    23.196208   0.96570887 
    3100    296.71815   -1040.6911    142582.43   -40767.524    4074.7093   -44842.233    24.472847   0.96678474 
    3200     296.4772   -1132.7147    142469.35   -40752.524    4071.4004   -44823.924    25.770287   0.96755209 
    3300    299.66184   -984.77945    142029.58   -40784.742    4115.1338   -44899.876    26.964605   0.97054793 
    3400    299.91431   -993.77722     142304.6   -40816.858    4118.6008   -44935.459     28.21095   0.96867225 
    3500    302.06089   -1147.2851    142612.26   -40713.478    4148.0789   -44861.557    29.530168   0.96658253 
    3600    299.74991   -957.44958    142813.18   -40761.762    4116.3432   -44878.105    30.663689   0.96522267 
    3700    300.10191   -1116.8629    142860.02   -40733.643    4121.1771    -44854.82    31.928782   0.96490615 
    3800    293.39118   -928.17527    142888.06   -40742.462    4029.0214   -44771.484    33.000329   0.96471685 
    3900    293.58841   -915.78165    142810.66   -40878.767    4031.7299   -44910.497    34.199909   0.96523968 
    4000    293.19481   -1020.4041    142480.67   -40906.707    4026.3247   -44933.032    35.560243   0.96747519 
    4100    299.69186   -669.20173    142463.05   -40823.978    4115.5461   -44939.524    36.993349   0.96759487 
    4200    293.39432   -1063.2972    142440.03   -40876.616    4029.0645   -44905.681    38.262407   0.96775122 
    4300    293.54509   -834.31748    142499.95   -40798.245    4031.1349    -44829.38    39.399928   0.96734435 
    4400     292.4442   -852.10175    142496.38   -40773.104    4016.0168   -44789.121    40.839622   0.96736855 
    4500    295.90042   -876.32898    142560.85   -40765.496    4063.4797   -44828.976    42.023563   0.96693109 
    4600    293.57046   -852.65913    142581.67   -40795.336    4031.4833   -44826.819    43.276114   0.96678987 
    4700    295.76833   -902.29123     142309.7   -40851.381    4061.6658   -44913.046    44.510777   0.96863755 
    4800    297.75535   -917.98058    142453.93   -40808.814    4088.9527   -44897.767    45.673929   0.96765682 
    4900    292.49221   -857.00561    142376.68   -40816.463    4016.6761   -44833.139    46.738103   0.96818187 
    5000    296.51351   -1116.3369     142330.6   -40861.846    4071.8991   -44933.745    48.052284   0.96849529 
    5100    283.99341   -1022.8685    142399.15   -40853.862    3899.9656   -44753.828    48.946322   0.96802907 
    5200    290.48244   -1116.3016    142642.38   -40939.869    3989.0769   -44928.946    50.270337    0.9663784 
    5300    297.06724   -1169.8942    142668.01   -40894.233    4079.5031   -44973.736    51.577405    0.9662048 
    5400    294.89744   -1173.7591    142475.47   -40782.186    4049.7062   -44831.893    52.976241   0.96751053 
    5500    296.02936   -913.12161    142397.81   -40761.099    4065.2504    -44826.35    54.466004   0.96803819 
    5600    304.42209   -1154.9779    142368.56   -40683.998    4180.5044   -44864.502    55.912099   0.96823705 
    5700    301.50854   -971.59637    142573.09   -40750.192    4140.4938   -44890.686     57.43391   0.96684808 
    5800    298.25586   -1032.3906    142538.14   -40684.755     4095.826   -44780.581    58.736176   0.96708515 
    5900    294.03477   -1141.7718    142494.02   -40894.237    4037.8595   -44932.097     59.57739   0.96738461 
    6000    292.99966   -1138.6159    142317.26   -40929.358    4023.6448   -44953.003    60.723625   0.96858608 
    6100     292.6159   -803.15026    142121.68   -40862.405    4018.3747    -44880.78    61.977585   0.96991902 
    6200    295.11085   -1071.6646    142240.17   -40892.474    4052.6368   -44945.111    62.911726   0.96911104 
    6300    288.01893   -831.12384    142420.42   -40862.021    3955.2464   -44817.267    64.330521    0.9678845 
    6400     291.2198   -1027.0171    142423.55   -40905.861    3999.2027   -44905.063    65.660495   0.96786322 
    6500    290.63474   -1059.5913     142622.9   -40823.077    3991.1683   -44814.245    67.106767   0.96651044 
    6600     289.2958   -952.84084     142425.9   -40925.571    3972.7812   -44898.352    68.531452   0.96784724 
    6700    297.66274   -951.12538    142504.76   -40907.348     4087.681   -44995.029    70.053527   0.96731164 
    6800    291.47949   -1205.5452    142410.98   -40981.753     4002.769   -44984.522    71.428815   0.96794863 
    6900    293.45493   -526.59855    142768.88   -40893.809    4029.8968   -44923.706    72.572271   0.96552216 
    7000     298.8719   -1128.2892    143151.24   -40763.808    4104.2859   -44868.094    73.575811   0.96294322 
    7100    294.18483   -856.20411     142739.6   -40932.585    4039.9203   -44972.506    74.635163   0.96572022 
    7200    292.78944   -722.18404    142888.12   -40967.723    4020.7579   -44988.481    75.947223   0.96471643 
    7300    289.53929   -1045.2906    143250.08   -40963.505    3976.1249    -44939.63     77.33678    0.9622788 
    7400    294.09149   -1250.4286    143254.66   -40997.712    4038.6384    -45036.35    78.418815   0.96224806 
    7500    292.12332   -1123.1019    142835.25   -40898.743    4011.6103   -44910.353    79.396315   0.96507348 
    7600    291.89506   -1053.1674     143007.6   -40886.848    4008.4758   -44895.324    80.443252   0.96391046 
    7700    295.04721   -882.98934    142985.23   -40863.204    4051.7629   -44914.967    81.592956   0.96406123 
    7800    292.22461   -1455.9567    142655.66    -40877.55    4013.0013   -44890.552    82.945926   0.96628847 
    7900    288.23442   -896.34175    142703.48   -40992.739    3958.2056   -44950.945    84.552958   0.96596462 
    8000    286.68452   -938.17407    142852.23   -40960.307    3936.9216   -44897.229    85.500898    0.9649588 
    8100    288.90665   -1148.5906    142920.53   -40849.328    3967.4371   -44816.765     86.95082   0.96449769 
    8200    292.65968   -745.10273    142789.23    -40863.87    4018.9759   -44882.846    87.711372   0.96538458 
    8300    295.59755   -927.03674    142823.15   -40756.417    4059.3205   -44815.738    89.004061   0.96515528 
    8400    293.19735    -1020.281    143359.34   -40841.977    4026.3595   -44868.336    90.190713   0.96154542 
    8500     292.6381   -1016.0848    143387.99   -40881.473    4018.6796   -44900.152    90.958404   0.96135329 
    8600     294.4965   -1057.4574    143143.98   -40808.001    4044.2002   -44852.202    91.457692   0.96299206 
    8700     295.8185   -970.04776    143346.93   -40799.176    4062.3548   -44861.531    92.699294   0.96162866 
    8800    298.78222   -1179.3117    143074.92   -40761.092    4103.0543   -44864.147    93.433061   0.96345688 
    8900    291.60725   -921.22354    143080.77   -40809.011    4004.5233   -44813.534    94.246134   0.96341747 
    9000    293.66228   -1109.2899    142709.46   -40664.193    4032.7442   -44696.937    94.917643   0.96592419 
    9100    299.72225   -1006.0172    142780.08   -40729.917    4115.9633    -44845.88    96.136147   0.96544642 
    9200    292.87715   -1276.3827    142552.35   -40820.404    4021.9624   -44842.366    97.150445   0.96698873 
    9300    297.41173    -927.7121    142615.96    -40822.33     4084.234   -44906.564    98.057324   0.96655744 
    9400    294.79901   -1014.2423    142541.75   -40841.583    4048.3545   -44889.938    99.085651   0.96706067 
    9500     294.1305   -1162.3576    142540.78   -40913.715    4039.1741   -44952.889    100.40923   0.96706723 
    9600       291.94   -1045.7077    142883.44   -40906.334    4009.0928   -44915.427    101.41229   0.96474799 
    9700    292.96036      -1063.5    142794.17   -40882.685    4023.1051    -44905.79     102.6013   0.96535112 
    9800    295.45759   -1099.0527    142472.87   -40891.544    4057.3986   -44948.942    104.02293   0.96752818 
    9900    296.39465   -741.07082    142718.26   -40859.594    4070.2668    -44929.86    105.29993    0.9658646 
   10000    290.38414   -1100.3931    142800.94   -40999.839    3987.7269   -44987.566    106.79726    0.9653054 
   10100    294.19621   -645.77939    142902.13   -40934.168    4040.0765   -44974.244    108.08859   0.96462187 
   10200    293.03359   -1106.9501    142979.92   -40979.291    4024.1108   -45003.402    108.99161   0.96409705 
   10300    293.99376   -994.28963    143410.09   -40893.301    4037.2964   -44930.598    109.91409   0.96120516 
   10400    300.32171   -981.61642    143288.67   -40820.663    4124.1954   -44944.858    110.73364   0.96201967 
   10500    301.73186   -1127.5723    143449.75   -40856.287    4143.5605   -44999.847    111.74533   0.96093937 
   10600    293.00269   -1104.8481     143022.8   -40843.728    4023.6863   -44867.414    112.98716     0.963808 
   10700    295.36583   -823.93828    142916.41   -40862.929    4056.1384   -44919.067    114.45091   0.96452544 
   10800     301.5839   -1034.3535    142951.49   -40865.617    4141.5286   -45007.146     115.7731   0.96428876 
   10900    295.33943   -920.87782    143126.97   -40748.025    4055.7758     -44803.8    116.26972   0.96310654 
   11000    299.02351   -982.98536     142786.6   -40801.817    4106.3678   -44908.185    116.99331   0.96540236 
   11100     295.3706   -1040.2834    142826.21   -40857.841    4056.2039   -44914.045    118.01519   0.96513463 
   11200    294.89185   -1254.1432    142883.85   -40866.166    4049.6295   -44915.795     119.1138   0.96474524 
   11300    296.59888   -1046.3018    143001.63   -40935.387    4073.0713   -45008.459    120.87021   0.96395068 
   11400    294.21945   -1058.9851    142700.23   -40951.729    4040.3957   -44992.124    121.83893   0.96598663 
   11500    286.81136   -958.74345    142841.93   -41048.173    3938.6634   -44986.837    123.80263   0.96502838 
   11600    292.78189   -1039.6558     142891.8   -41056.124    4020.6542   -45076.778    125.39953   0.96469161 
   11700    291.58426   -755.82078    142643.14   -40913.989    4004.2076   -44918.197    126.07796   0.96637324 
   11800    288.84142   -884.38084     142849.8   -40933.855    3966.5414   -44900.396    127.53649   0.96497519 
   11900    292.57568    -965.3252    142949.68   -41013.043    4017.8224   -45030.865    128.50497     0.964301 
   12000    287.21557   -772.29492    142876.24   -41027.283    3944.2143   -44971.497    129.11114   0.96479663 
   12100    292.66652   -954.00354    142972.29   -40975.101    4019.0698   -44994.171    130.15185   0.96414848 
   12200    297.69569   -884.80397    143004.55   -40824.126    4088.1334   -44912.259    130.95865   0.96393096 
   12300    300.58717   -1181.8588    142932.94   -40796.596    4127.8409   -44924.437    131.98798   0.96441393 
   12400    297.81715   -1144.5597    142724.72   -40740.695    4089.8014   -44830.496    133.15572   0.96582088 
   12500    294.38344   -1278.1838    142544.98   -40767.841    4042.6476   -44810.488    134.47772   0.96703874 
   12600    294.15071   -1080.0198    142743.34   -40800.568    4039.4517   -44840.019    135.95435   0.96569494 
   12700    293.24793   -907.44284    142823.15    -40790.25    4027.0541   -44817.305    137.50789    0.9651553 
   12800    293.29877   -1310.6267    142864.55   -40838.086    4027.7523   -44865.838    138.68889   0.96487559 
   12900    296.23723   -790.87169     142839.3   -40838.851     4068.105   -44906.956    139.77404   0.96504616 
   13000    296.99157   -1132.6852    142991.51   -40901.073     4078.464   -44979.537    141.10013   0.96401891 
   13100    297.30953    -819.5816    143114.05   -40888.431    4082.8305   -44971.262    141.72873   0.96319345 
   13200    297.19302   -1101.3314    143208.64   -40813.052    4081.2305   -44894.282    142.70505   0.96255725 
   13300    294.03502   -940.02753    143117.52   -40841.678    4037.8629   -44879.541    143.17029   0.96317011 
   13400    303.41588   -1130.7201    143280.91   -40873.462    4166.6864   -45040.149    144.34644   0.96207178 
   13500    294.16173   -1002.9263    143209.45   -40890.662     4039.603   -44930.265    145.18272   0.96255179 
   13600    294.75665   -789.63179    143454.27   -40877.291    4047.7728   -44925.064    145.93598   0.96090912 
   13700    287.61843    -1149.967    143128.29   -40897.123    3949.7466    -44846.87    146.54186   0.96309766 
   13800     289.2445   -1073.7978     142533.1   -40973.692    3972.0767   -44945.769    146.64818   0.96711933 
   13900    292.81052   -902.54828    142442.58   -40985.464    4021.0474   -45006.512    147.97467    0.9677339 
   14000    286.83815   -756.86552    142361.58   -41062.837    3939.0312   -45001.868    149.12391   0.96828455 
   14100    290.61735   -907.65942    142335.93   -41002.392    3990.9295   -44993.322    149.95247     0.968459 
   14200    297.60602   -996.41122    142124.26   -40951.633    4086.9021   -45038.535    150.74554   0.96990136 
   14300    290.70708   -1008.3628    142089.21   -40967.015    3992.1617   -44959.176    151.90171   0.97014065 
   14400    294.82763   -797.03813    142287.18    -40911.44    4048.7475   -44960.187    153.27431   0.96879083 
   14500    291.86431    -1115.424    142610.75   -40893.535    4008.0535   -44901.589    154.62479   0.96659272 
   14600    295.90393   -932.08502    142352.05   -40795.582    4063.5279    -44859.11    155.97297   0.96834934 
   14700    300.43438   -785.45627    142493.81   -40747.948    4125.7427   -44873.691    157.47019   0.96738602 
   14800     296.3594   -1066.9562    142625.41   -40841.577    4069.7827    -44911.36    158.67678   0.96649337 
   14900    294.01453   -992.46261     142503.9   -40797.428    4037.5816    -44835.01    159.42804   0.96731747 
   15000    294.60319    -992.3273    142559.17    -40880.65    4045.6654   -44926.315     160.6457   0.96694249 
   15100     290.3524   -1134.6596    142666.66   -40895.741     3987.291   -44883.032    161.53695   0.96621394 
   15200    286.81933   -830.05517    142517.54   -40941.672    3938.7728   -44880.445    162.48844   0.96722492 
   15300    300.96873   -1158.5261    142743.38   -40840.907    4133.0808   -44973.988    163.85449   0.96569467 
   15400    298.34483   -940.59395    142781.79   -40781.231    4097.0478   -44878.279    165.09822   0.96543488 
   15500    299.89067   -969.89282    143091.11    -40784.53    4118.2762   -44902.806     166.9189   0.96334787 
   15600    297.03683   -969.72849    142941.06    -40856.94    4079.0856   -44936.026    167.97302   0.96435915 
   15700    293.96303   -1010.3988    142797.82   -40902.045    4036.8743    -44938.92    168.91224   0.96532648 
   15800    291.05396   -1031.2124    142776.81   -40924.446    3996.9252   -44921.371    169.63655   0.96546854 
   15900    292.48576   -1012.3071     142856.6   -40878.777    4016.5876   -44895.365    171.12164   0.96492928 
   16000    292.07618   -949.31235    142818.65   -40934.927     4010.963    -44945.89    172.18283    0.9651857 
   16100    293.15428   -840.90118    142561.56   -40926.549    4025.7681   -44952.317    173.56607   0.96692628 
   16200    298.58282   -1033.1776    142433.25   -40795.045    4100.3161   -44895.361    174.33687   0.96779731 
   16300    299.99396   -1088.5664    142194.77   -40781.852    4119.6947   -44901.546    175.38374   0.96942045 
   16400    301.15204   -1103.2332    142198.74   -40690.035    4135.5981   -44825.633     176.9525   0.96939338 
   16500    299.75887   -1179.9379    142226.19   -40732.145    4116.4662   -44848.611    178.09233    0.9692063 
   16600    296.65287   -904.88855    142306.84   -40752.603    4073.8129   -44826.416     179.8907     0.968657 
   16700    296.44589   -1140.2431    142542.49   -40836.008    4070.9704   -44906.978    180.94982   0.96705563 
   16800     298.2535   -1061.8264    142450.14   -40815.487    4095.7936   -44911.281    181.84012   0.96768253 
   16900    297.41387   -637.06979    142550.84    -40780.64    4084.2633   -44864.904     183.4296     0.966999 
   17000    291.00894   -928.99589    142857.07    -40786.91     3996.307   -44783.217    184.54604   0.96492608 
   17100    298.88829   -1030.4071    142941.68   -40775.621    4104.5109   -44880.132    186.01757   0.96435496 
   17200    295.59287   -685.52941     142700.4   -40726.242    4059.2562   -44785.499    186.15294   0.96598547 
   17300    296.26219   -1085.0818    142743.98   -40707.583    4068.4478    -44776.03     187.1833   0.96569056 
   17400    293.07689   -1111.8372    143097.42    -40738.05    4024.7054   -44762.756    188.55346   0.96330541 
   17500    300.93287   -1037.1116    142987.12   -40723.826    4132.5883   -44856.414    189.83155   0.96404848 
   17600    295.56677   -1209.6533    142784.28   -40827.999    4058.8978   -44886.897    190.85916   0.96541804 
   17700    297.00342      -1082.7    142549.66   -40806.232    4078.6268   -44884.859     191.8617   0.96700701 
   17800    291.33127   -762.59756     142998.7   -40852.007    4000.7334   -44852.741    192.85602   0.96397041 
   17900     288.9632   -1119.5824    143319.62   -40861.371    3968.2137   -44829.585    194.59307   0.96181189 
   18000    290.87156    -1072.674    143144.09    -40916.36    3994.4205    -44910.78    195.92729   0.96299136 
   18100     301.3059   -1048.3431    143153.34   -40882.967    4137.7109   -45020.678    196.89164   0.96292912 
   18200     294.3457   -691.80369    143171.57   -40835.809    4042.1293   -44877.938    198.02927   0.96280649 
   18300    294.00392   -965.45931    143441.18    -40897.12    4037.4359   -44934.556     199.5558    0.9609968 
   18400    289.72967   -1286.1539    143334.31   -40971.023    3978.7393   -44949.762    200.96223   0.96171336 
   18500    297.94311   -935.39084    143121.17   -40863.699    4091.5312    -44955.23    202.12574   0.96314557 
   18600    296.52823   -943.08094    143246.61   -40885.427    4072.1011   -44957.528    203.44417   0.96230209 
   18700    294.74589   -716.86825       143287   -40773.081     4047.625   -44820.706     204.6387    0.9620309 
   18800    289.86774   -1000.0828     143422.7    -40812.01    3980.6354   -44792.645    206.01644   0.96112062 
   18900    299.63622   -829.82198    143139.22   -40847.863    4114.7819   -44962.645    207.02523   0.96302408 
   19000    299.42965     -818.646    143494.07   -40831.767    4111.9452   -44943.712    208.43623   0.96064262 
   19100    289.10913   -990.30234     143208.3   -40928.654    3970.2178   -44898.872    208.79096   0.96255957 
   19200    292.71127   -1154.7238    143006.33    -40845.91    4019.6844   -44865.595    209.41179   0.96391899 
   19300    292.23933    -1045.381    142880.73   -40800.935    4013.2034   -44814.138     210.3781   0.96476635 
   19400    298.17627   -928.55082     142849.9    -40805.91     4094.733   -44900.643    211.45649   0.96497454 
   19500    297.76355   -997.54646    142915.34   -40749.434    4089.0654   -44838.499    212.83014   0.96453271 
   19600    299.52451    -1362.297     142837.1   -40758.346    4113.2478   -44871.594    214.05474   0.96506105 
   19700    297.07634   -922.89288    142816.54   -40793.648    4079.6282   -44873.276    215.28757   0.96519997 
   19800    298.16284   -1238.6594    143078.95   -40801.906    4094.5485   -44896.454    217.46276   0.96342976 
   19900    299.97854   -1167.1577    142742.68   -40788.573    4119.4829   -44908.056    218.14852    0.9656994 
   20000    294.73014   -1124.2145       142823   -40735.269    4047.4088   -44782.677    219.63308   0.96515628 
   20100    298.28407   -952.55677    142764.48   -40763.741    4096.2134   -44859.955    220.34808   0.96555189 
   20200    302.62547   -968.96994    142501.52   -40709.664    4155.8321   -44865.496    221.27046   0.96733369 
   20300    294.42706   -898.57336     142585.7   -40673.445    4043.2467   -44716.692    222.55151   0.96676258 
   20400    295.55419   -849.56193    142414.46   -40713.881    4058.7251   -44772.606    223.46837     0.967925 
   20500    305.98997   -937.91214    142728.05   -40646.672    4202.0354   -44848.707    224.45783   0.96579835 
   20600    299.61129   -1034.3477    142896.99   -40781.427    4114.4396   -44895.867    225.70739   0.96465653 
   20700    289.65631   -985.13207    143092.11   -40848.889    3977.7319   -44826.621    227.08027   0.96334117 
   20800    297.07997   -958.83682    143239.87   -40901.824     4079.678   -44981.502    227.84648   0.96234738 
   20900     296.8723   -874.72206    143413.51   -40906.377    4076.8261   -44983.204    228.74537    0.9611822 
   21000    299.08809    -735.0601    143434.97   -40781.194    4107.2546   -44888.449    229.96569   0.96103839 
   21100    299.91901   -904.83595    143658.37   -40875.362    4118.6653   -44994.027    231.14873   0.95954391 
   21200     292.9015   -1288.8285    143180.28   -41010.097    4022.2968   -45032.394    231.40712    0.9627479 
   21300    293.10129   -1105.7796    143127.47   -40996.423    4025.0404   -45021.463    232.83191   0.96310316 
   21400    292.65194   -863.63089    143104.56   -40896.402    4018.8697   -44915.272    234.22865   0.96325731 
   21500    294.51361   -981.01569    143388.59   -40826.558    4044.4352   -44870.993    235.76368   0.96134929 
   21600    296.16693   -911.47104    143236.34   -40879.088    4067.1395   -44946.227     236.2848   0.96237113 
   21700    305.49458   -998.53305    143031.97   -40856.715    4195.2325   -45051.947     237.9021    0.9637462 
   21800    299.11451   -1159.3882    143033.68   -40877.602    4107.6175    -44985.22     238.9217   0.96373465 
   21900    294.20977   -1016.8249     142880.7   -40814.042    4040.2627   -44854.305    239.65907   0.96476651 
   22000    295.97831   -892.15863    142766.35   -40843.828    4064.5494   -44908.378    240.56653   0.96553925 
   22100    297.75172   -1117.0944    142588.66   -40769.951    4088.9029   -44858.854    241.00943    0.9667425 
   22200    297.99544   -938.76083    142623.21    -40720.39    4092.2498    -44812.64    241.88218   0.96650834 
   22300    298.21076   -1004.4338     142654.7   -40778.713    4095.2067    -44873.92    242.73017   0.96629496 
   22400    293.30852   -920.22909    142442.21   -40852.642    4027.8862   -44880.529    243.53556   0.96773646 
   22500    297.07929   -910.05876     142374.2    -40872.45    4079.6687   -44952.118    244.79318   0.96819874 
   22600     293.3917   -753.46182     142797.7   -40851.588    4029.0285   -44880.617    246.46928   0.96532732 
   22700    292.53672   -884.14809    142842.72   -40903.482    4017.2874    -44920.77    248.05777   0.96502302 
   22800    290.23335   -1027.9179    142901.76   -40984.215    3985.6561   -44969.871    249.11123   0.96462437 
   22900     292.9941   -1306.8748    142872.17   -40951.547    4023.5683   -44975.115    250.12168   0.96482412 
   23000    294.03645   -1053.3948    142819.71   -40856.875    4037.8826   -44894.757    250.79952   0.96517853 
   23100    295.22887   -848.97047    142901.82   -40831.273    4054.2575   -44885.531    251.77199   0.96462397 
   23200    292.85862   -1148.4085    142687.75   -40853.522    4021.7079    -44875.23    252.24261    0.9660711 
   23300    292.50983   -911.89297    142803.52   -40915.148    4016.9182   -44932.066     252.9439   0.96528796 
   23400    288.33842   -941.64155    143048.09   -40916.881    3959.6338   -44876.515    254.21816    0.9636376 
   23500    294.33824   -986.55901    143073.63   -40858.319    4042.0269   -44900.346    255.42728   0.96346559 
   23600    291.24082   -984.56262    143321.46   -40904.958    3999.4914    -44904.45    257.17335   0.96179954 
   23700    290.57386   -1008.9549    143143.16   -40901.465    3990.3323   -44891.797    258.07549   0.96299761 
   23800    295.98234   -936.69806    143055.98   -40898.687    4064.6047   -44963.291    259.10018   0.96358444 
   23900    306.74121   -1160.8935    143202.67   -40833.154    4212.3519   -45045.506    260.77414   0.96259741 
   24000    293.57145    -925.7533     143216.3    -40810.02    4031.4969   -44841.517    261.76585   0.96250577 
   24100    294.11457   -953.16195    142590.02   -40831.191    4038.9553   -44870.146    262.21893   0.96673327 
   24200    295.58133    -1226.978    142418.57   -40739.717    4059.0977   -44798.814    262.99805   0.96789704 
   24300    296.56655   -740.79697    142748.39   -40787.767    4072.6274   -44860.395    264.18823   0.96566071 
   24400    301.54472   -1109.1193    142712.39   -40784.197    4140.9906   -44925.188     265.1445   0.96590437 
   24500    300.71284   -1025.0133    142519.96   -40826.666    4129.5667   -44956.233    265.91631    0.9672085 
   24600    296.79472    -912.1623    142400.68   -40828.403    4075.7607   -44904.163    267.30232   0.96801868 
   24700    293.57033   -908.52048    142753.75   -40797.637    4031.4815   -44829.119    268.72592   0.96562448 
   24800    295.75916   -1112.0338    142893.67   -40762.349    4061.5399   -44823.889    270.49198   0.96467896 
   24900    290.70357   -975.80235    142834.39   -40843.109    3992.1135   -44835.222    271.17272   0.96507929 
   25000    294.42267   -1085.4761    142785.57   -40873.808    4043.1864   -44916.995     271.9173   0.96540929 
   25100    293.95244   -892.69743    142901.05   -40863.317    4036.7289   -44900.046    272.61546   0.96462912 
   25200    288.84932   -1188.4449    143071.69   -40880.708    3966.6499   -44847.358    274.06749   0.96347861 
   25300    295.01632   -1044.0764    142864.18   -40949.726    4051.3387   -45001.064    274.59866   0.96487806 
   25400    292.70127   -1017.3665    142928.92   -40907.799    4019.5472   -44927.346    275.55604   0.96444107 
   25500    291.93085   -1040.5238    142810.56   -40947.393    4008.9672    -44956.36    276.26403   0.96524038 
   25600    290.35197   -889.35069    142308.73   -41010.208    3987.2851   -44997.493    276.91221   0.96864412 
   25700    289.87104   -957.24697    142064.46    -41018.15    3980.6807   -44998.831    277.57171   0.97030968 
   25800     287.4084    -1111.021    142220.67    -41038.14    3946.8622   -44985.002    278.81697   0.96924387 
   25900    293.79069   -956.88789    142070.85   -41077.435    4034.5076   -45111.943    279.89238   0.97026603 
   26000    292.20962   -1086.1842    142318.62   -40958.005    4012.7955   -44970.801    280.85566   0.96857684 
   26100    295.38015   -780.44197     142716.2   -40964.943     4056.335   -45021.278    282.71892   0.96587857 
   26200    303.88583   -882.15246    142882.73    -40874.78    4173.1401    -45047.92    284.69416   0.96475282 
   26300    296.62521   -1037.5458    142544.08   -40896.034    4073.4329   -44969.467    285.48069   0.96704486 
   26400    291.50747   -1188.5417    142412.84   -40953.658    4003.1531   -44956.811    286.20526   0.96793599 
   26500    300.88912   -847.86324     142507.6   -40757.389    4131.9875   -44889.377     286.9716   0.96729235 
   26600    295.70771   -870.41988    142927.75   -40863.503    4060.8333   -44924.337    288.34032   0.96444893 
   26700    295.79337   -970.27219    143197.24   -40780.311    4062.0096    -44842.32    289.93892   0.96263391 
   26800    294.48357    -899.2536    142709.73   -40763.291    4044.0227   -44807.314    290.90041   0.96592237 
   26900    294.36914   -1182.2242    142639.21   -40867.153    4042.4513   -44909.605    291.46053   0.96639986 
   27000    299.00014    -1005.238    142610.83   -40879.583    4106.0469    -44985.63    293.03783    0.9665922 
   27100    294.74636   -824.82208    142743.24   -40803.992    4047.6315   -44851.623    293.87695   0.96569556 
   27200    296.29954   -1127.4628    142842.47    -40804.94    4068.9606   -44873.901    295.68545    0.9650247 
   27300    295.74303   -1056.6798    142738.74   -40776.672    4061.3184   -44837.991    297.73891   0.96572603 
   27400    299.28284   -1123.3605    142713.64   -40728.418    4109.9291   -44838.347    299.56604   0.96589589 
   27500    303.62079   -945.74641    142680.19   -40831.845    4169.5005   -45001.345    299.81835   0.96612232 
   27600    299.23503   -898.47169    142792.82   -40762.296    4109.2726   -44871.569      301.609   0.96536025 
   27700    299.54415   -1103.4595    142941.19   -40779.383    4113.5176   -44892.901    302.53283   0.96435823 
   27800    298.31686   -1025.4984    143107.19   -40739.721    4096.6636   -44836.384    304.18017   0.96323962 
   27900    300.02127    -816.3362    142958.05   -40754.328    4120.0696   -44874.397    304.98302   0.96424452 
   28000    299.58973   -858.04939    142957.89   -40691.285    4114.1435   -44805.429    306.35127    0.9642456 
   28100    294.88242   -1010.4516    142717.89   -40731.908       4049.5   -44781.408    307.02837   0.96586714 
   28200    296.04786   -1034.7738    142513.62    -40907.59    4065.5044   -44973.094    307.61664   0.96725153 
   28300    299.66448   -875.22843    142672.28   -40907.571    4115.1699   -45022.741     308.9401   0.96617587 
   28400    296.90947   -926.58595    142613.26   -40815.732    4077.3365   -44893.068    309.42864   0.96657571 
   28500    292.03503   -720.25718    142922.56   -40831.488    4010.3978   -44841.886    310.39606   0.96448397 
   28600    294.19529   -1198.0669    142786.58   -40888.294    4040.0638   -44928.358    311.45244   0.96540244 
   28700    290.81269   -1077.1957    142201.23   -40972.039     3993.612   -44965.651    311.86449   0.96937642 
   28800    294.07842   -1308.3742     142215.4   -40901.588    4038.4589   -44940.047    313.06353   0.96927985 
   28900    298.66191   -892.30861    142443.39   -40919.742    4101.4021   -45021.144    315.01528   0.96772843 
   29000    291.53611   -867.67873    142512.63   -40906.134    4003.5464    -44909.68    315.74261   0.96725823 
   29100    292.75413   -1029.5075    142400.92   -40880.503    4020.2729   -44900.776    317.32315   0.96801703 
   29200    291.66783   -1211.1766    142298.62   -40909.073    4005.3553   -44914.428    317.48855   0.96871294 
   29300    290.91053   -880.36789    142356.26   -40884.311    3994.9556   -44879.267     319.5731    0.9683207 
   29400    295.30848   -870.36916    142449.95    -40911.05    4055.3508   -44966.401    320.97504   0.96768383 
   29500    301.20752   -929.69659    142626.69   -40890.938      4136.36   -45027.298    322.06594    0.9664847 
   29600    298.68792   -870.05161    142525.46   -40914.042    4101.7593   -45015.802    323.00762   0.96717115 
   29700    293.23237   -1084.5689    142839.66   -40858.095    4026.8405   -44884.936    324.11188    0.9650437 
   29800    297.60912   -1007.8501    142891.69   -40763.534    4086.9447   -44850.479    325.88565   0.96469232 
   29900    296.17145    -1049.185    143005.52   -40754.926    4067.2017   -44822.128    327.79179   0.96392445 
   30000    296.47896   -1104.3183    142889.27    -40763.31    4071.4245   -44834.735    328.51016   0.96470866 
   30100    293.30068   -891.63542    142864.91   -40737.425    4027.7785   -44765.203    329.59349   0.96487319 
   30200    297.00958   -1038.2666    142818.27   -40772.689    4078.7113   -44851.401    330.31091   0.96518825 
   30300    298.49625   -1073.6923    142739.13   -40695.997    4099.1271   -44795.124    331.72886   0.96572342 
   30400    292.39735   -1051.7507    142797.17   -40891.492    4015.3735   -44906.866    333.03506   0.96533084 
   30500      289.814   -1093.0965    142720.97   -40913.163    3979.8973    -44893.06    334.72209   0.96584629 
   30600    288.35382   -1086.7444    142407.53   -40938.159    3959.8454   -44898.005    335.86353   0.96797211 
   30700    291.91087   -841.80571    142272.69   -40915.712    4008.6929   -44924.405    337.35698   0.96888949 
   30800    295.48294   -1126.6651    142361.29   -40835.897    4057.7467   -44893.643    338.97794    0.9682865 
   30900    297.85032    -920.8184    142240.27   -40876.726     4090.257   -44966.983    340.01215   0.96911036 
   31000    299.71909    -1227.566    142730.97   -40799.496      4115.92   -44915.416    341.21086   0.96577861 
   31100    290.47149   -1029.1689    142785.04   -40993.348    3988.9264   -44982.275    342.56086   0.96541286 
   31200    289.16383    -808.2381    143091.02   -41007.391    3970.9689    -44978.36    344.46594   0.96334848 
   31300    290.57442    -1043.517     142955.9   -40940.663      3990.34   -44931.003    345.79152   0.96425901 
   31400    297.54746   -1242.2448     142851.7   -40938.359    4086.0979   -45024.457     346.1288   0.96496236 
   31500    298.23444   -1149.5107    142523.98   -40822.394    4095.5318   -44917.925     346.5186   0.96718121 
   31600    295.21075   -978.70779    142776.32   -40831.708    4054.0087   -44885.716    347.74689   0.96547186 
   31700    289.92424   -872.12964    142999.44   -40857.517    3981.4113   -44838.928    349.82986   0.96396545 
   31800     298.3413   -916.86496    143265.15   -40844.048    4096.9993   -44941.047    351.99511   0.96217758 
   31900    295.40405   -879.47434    143437.65   -40829.983    4056.6633   -44886.646    354.40385   0.96102048 
   32000    297.47794   -840.60916    143577.36   -40781.473    4085.1431   -44866.616    355.55657   0.96008533 
   32100    292.93007   -1008.0196    143741.53    -40848.93    4022.6892   -44871.619    356.35573   0.95898881 
   32200    291.66899   -967.82213    143682.11   -40847.753    4005.3712   -44853.124    357.55037   0.95938539 
   32300    296.45435   -887.24714    143406.74   -40858.768    4071.0866   -44929.855    358.85811    0.9612276 
   32400    295.11701   -1100.8038    143397.66   -40761.254    4052.7214   -44813.976    359.85729   0.96128846 
   32500    293.74296   -981.74138    143282.95   -40876.274    4033.8522   -44910.127    361.10301   0.96205807 
   32600    293.90974   -988.23934    143477.22   -40866.183    4036.1425   -44902.326    362.08753   0.96075543 
   32700    293.89946   -1054.6674    143273.43    -40869.57    4036.0013   -44905.571    362.08469   0.96212196 
   32800    293.07321    -832.7641    143140.08   -40930.442    4024.6547   -44955.097    362.69202   0.96301828 
   32900    293.55724   -1047.3963    143208.75   -41000.664    4031.3018   -45031.966    364.11395    0.9625565 
   33000    296.33144   -1150.0477     142985.7   -40979.867    4069.3987   -45049.266    364.44541   0.96405804 
   33100    296.93073   -1089.0646    142968.89   -40945.032    4077.6285   -45022.661    365.02577   0.96417142 
   33200    297.72284   -986.25603    143014.02    -40872.16    4088.5063   -44960.666    366.67658   0.96386718 
   33300    295.56611   -892.04433    143034.16   -40863.538    4058.8887   -44922.426    368.66027   0.96373143 
   33400    295.18043   -1287.0491    142980.73   -40919.671    4053.5924   -44973.263    369.63522   0.96409156 
   33500    295.06418   -925.84225    143037.27   -40816.112     4051.996   -44868.108    370.52417   0.96371047 
   33600    295.67465   -990.37822    143304.47   -40847.681    4060.3793    -44908.06    372.09273   0.96191358 
   33700    295.40477   -1156.3904    142813.22   -40876.973    4056.6731   -44933.646    372.23343   0.96522241 
   33800    298.57941   -1068.7923    142968.09   -40857.867    4100.2693   -44958.136    373.63751   0.96417684 
   33900    294.18169   -962.92894    143074.85   -40905.839    4039.8771   -44945.716    375.12806   0.96345735 
   34000    293.01063   -1081.1827    142919.45   -40918.385    4023.7954   -44942.181     375.8533   0.96450494 
   34100    290.20039   -1097.3998    142847.39   -40985.142    3985.2036   -44970.346    377.79134   0.96499147 
   34200    289.28956   -909.79034    143027.98    -40935.52    3972.6955   -44908.215     379.2108   0.96377307 
   34300    293.45952    -720.6281    143061.76   -40875.439    4029.9598   -44905.399    379.79655   0.96354553 
   34400    297.71938    -1127.691    143072.18   -40770.178    4088.4588   -44858.637    380.73065   0.96347535 
   34500    296.13098   -1162.7074    143004.19   -40738.824     4066.646    -44805.47    381.25815   0.96393344 
   34600     298.4927   -989.75822    142891.96   -40814.483    4099.0785   -44913.561    381.91391   0.96469053 
   34700     296.6542   -778.57231    142764.21   -40870.055    4073.8311   -44943.887    382.79085   0.96555373 
   34800    289.84234   -852.87698     142785.6    -40918.71    3980.2866   -44898.997    384.09662   0.96540908 
   34900    293.22192   -940.08013    142922.67   -40896.046     4026.697   -44922.743    385.28865   0.96448321 
   35000    289.62643   -676.32848    143090.24   -40912.642    3977.3216   -44889.963    386.37932   0.96335376 
   35100    293.32431   -881.24882    143257.27   -40854.007     4028.103    -44882.11     387.3642    0.9622305 
   35200    299.54241   -1122.4194    143510.86   -40667.684    4113.4937   -44781.178    388.32964    0.9605302 
   35300    295.22836   -817.83721    143557.81   -40758.784    4054.2506   -44813.035    388.92293   0.96021609 
   35400    298.50096   -791.66122    143332.56   -40920.489    4099.1919   -45019.681    389.30269   0.96172506 
   35500    288.59952    -1056.041    143453.17   -40899.545    3963.2194   -44862.765    390.60684   0.96091652 
   35600    290.05317   -974.50276    143486.01   -40886.714    3983.1818   -44869.896    392.88897   0.96069658 
   35700    299.99872   -956.35411    143522.08   -40798.925      4119.76   -44918.685    393.23504    0.9604551 
   35800    296.25876   -863.68929    143354.12   -40833.463    4068.4007   -44901.864    394.17783   0.96158044 
   35900    297.58015   -1150.1096    143428.86   -40803.585    4086.5468   -44890.131    395.34587   0.96107936 
   36000    292.91794   -1087.3498    142999.63   -40840.124    4022.5226   -44862.647    395.72319   0.96396412 
   36100    297.82997    -950.0278    143210.12   -40851.591    4089.9774   -44941.568    396.78846   0.96254731 
   36200    295.05814   -1073.7587    143194.79    -40805.16    4051.9131   -44857.073    398.03625   0.96265038 
   36300    297.05974   -1016.2638     143078.9   -40811.886    4079.4002   -44891.286    399.08298   0.96343008 
   36400    294.23105   -1139.6796    142691.51   -40754.392     4040.555   -44794.947    399.35637   0.96604568 
   36500    299.34068   -1001.6886     142827.7    -40701.73    4110.7234   -44812.454    400.93496   0.96512455 
   36600    296.67693   -963.48453    142710.39   -40839.955    4074.1432   -44914.098    401.96824   0.96591787 
   36700    293.51913    -856.9897    142770.38   -40840.299    4030.7784   -44871.077    402.46297   0.96551202 
   36800    292.53257   -1061.4422     143049.3   -40863.193    4017.2304   -44880.424    405.01324   0.96362943 
   36900    294.82518   -970.21353    142922.64   -40994.589    4048.7139   -45043.302    405.73073   0.96448345 
   37000    290.41054   -971.76114    142689.52    -40949.55    3988.0894   -44937.639     406.8461   0.96605916 
   37100    294.18753   -1045.0835    142522.83   -40974.854    4039.9573   -45014.811    407.87762   0.96718904 
   37200    292.21942   -942.94006    142571.92   -40952.147    4012.9301   -44965.077    408.99079     0.966856 
   37300    296.60399   -874.18858    142770.96    -40947.57    4073.1416   -45020.712    409.93715   0.96550807 
   37400    292.28362   -920.66219    142580.39   -41030.638    4013.8116    -45044.45    410.38643   0.96679857 
   37500    288.80385   -1134.3502    142627.53   -41040.247    3966.0255   -45006.272    411.58419   0.96647903 
   37600    293.02373   -1189.0335    142445.34   -41007.541    4023.9753   -45031.517    411.65022   0.96771518 
   37700    295.48403   -1023.3419    142240.99   -41028.267    4057.7616   -45086.028    411.55085   0.96910544 
   37800    291.92554   -1098.1483    142151.11   -40955.902    4008.8943   -44964.796    412.14296   0.96971818 
   37900    291.67653   -872.73728    142290.55   -41011.115    4005.4747    -45016.59    413.62903   0.96876789 
   38000    292.33249    -948.0364    142185.06   -40958.604    4014.4828   -44973.086    414.61974   0.96948666 
   38100    290.39749   -1025.2945    142334.07   -40960.841    3987.9103   -44948.751    416.67377   0.96847169 
   38200    293.87286   -788.13421    142418.85   -40937.096    4035.6361   -44972.732     417.9443   0.96789519 
   38300    290.16949   -1159.0123    142664.29   -41032.394    3984.7792   -45017.173    419.69586   0.96623003 
   38400    287.57119   -1197.9885     142679.8   -41079.304    3949.0978   -45028.401    420.96061   0.96612498 
   38500    288.27763   -820.04143    143212.04    -41083.11     3958.799   -45041.909    423.14337   0.96253443 
   38600    292.74438   -1124.4188    143061.28   -40963.833    4020.1391   -44983.972    423.92423   0.96354873 
   38700    292.11237   -954.49906    142961.12   -40978.771      4011.46   -44990.231    425.58898   0.96422381 
   38800    293.69577   -865.80341    142771.05   -40885.526    4033.2041   -44918.731    425.96378   0.96550748 
   38900    294.45271   -1267.0041    142806.86   -40758.983    4043.5989   -44802.582    427.06909   0.96526539 
   39000    297.02749   -919.06859    142808.68   -40828.327    4078.9573   -44907.284     428.7792   0.96525307 
   39100    291.81907   -806.41992    142890.76   -40841.764    4007.4322   -44849.196    429.98164   0.96469858 
   39200    296.27095   -1047.8449     143071.7   -40820.398    4068.5681   -44888.966    430.77311   0.96347858 
   39300    294.90116   -649.26548    142766.14   -40810.912    4049.7573    -44860.67    431.38818   0.96554069 
   39400    292.01539   -1376.4693    142727.47   -40834.934    4010.1282   -44845.063     432.3693   0.96580226 
   39500    298.90728   -921.27797    142553.98   -40782.476    4104.7716   -44887.247    433.07015   0.96697765 
   39600    297.67143    -961.9177    142478.72   -40769.135    4087.8003   -44856.936    434.15667   0.96748844 
   39700    294.83671   -1072.6823    142586.29   -40876.764    4048.8722   -44925.636    435.55711   0.96675858 
   39800    296.42125   -983.93939    142301.83   -40855.069     4070.632   -44925.701    435.45169   0.96869111 
   39900    282.49372   -1098.0353    142704.06   -41028.244    3879.3709   -44907.615    437.37315   0.96596073 
   40000    301.06523   -1113.2517     142376.9   -40894.269     4134.406   -45028.675    437.58413   0.96818036 
   40100    288.58191   -958.77926    142411.77   -40909.632    3962.9776   -44872.609    439.43831   0.96794326 
   40200    293.39326   -980.34817    142388.41   -40808.955    4029.0499   -44838.005     440.6066   0.96810208 
   40300    299.97115   -1279.7057    142351.37   -40842.977    4119.3814   -44962.359      440.719   0.96835402 
   40400    294.37652   -1043.0755     142347.4   -40877.888    4042.5526    -44920.44    442.05945     0.968381 
   40500    297.45918   -891.01993    142886.68   -40875.144    4084.8855   -44960.029    443.75497   0.96472616 
   40600    290.38676   -1044.5955    142971.89   -40817.526    3987.7628   -44805.289    444.54076   0.96415119 
   40700    293.12688   -767.56317     142824.3   -40844.905    4025.3918   -44870.297    445.63976   0.96514753 
   40800    294.58455   -860.66629    142855.31   -40855.726    4045.4094   -44901.135    446.05292   0.96493802 
   40900    293.08647   -1134.8083    142630.57   -40921.614     4024.837   -44946.451    447.24157   0.96645843 
   41000     296.6056   -1042.9506    142634.95   -40895.998    4073.1637   -44969.162    448.25353   0.96642872 
   41100    299.27353   -1055.3341    142650.36   -40879.803    4109.8013   -44989.604    449.04845   0.96632436 
   41200    297.44372   -876.76925    142764.18   -40767.974    4084.6732   -44852.647    450.29558   0.96555395 
   41300    291.03687   -868.03032    143080.21   -40857.234    3996.6906   -44853.925    451.88782   0.96342127 
   41400    290.61424   -986.24143    143393.85   -40844.008    3990.8867   -44834.895    452.73466   0.96131403 
   41500    292.16854   -1183.7642    143648.46   -40876.397    4012.2313   -44888.629    454.43191   0.95961011 
   41600    298.79318    -1180.481    143621.46   -40782.405    4103.2048    -44885.61    455.18728   0.95979056 
   41700    291.20849   -1009.0987     143336.7   -40971.998    3999.0474   -44971.045    455.58189    0.9616973 
   41800    291.93353   -1397.4917    142941.35   -40872.406     4009.004    -44881.41    456.86246   0.96435715 
   41900    298.90997   -1016.3036    142913.58   -40823.744    4104.8087   -44928.553    457.47223   0.96454459 
   42000    295.26529   -974.73916    142887.11    -40852.01    4054.7577   -44906.767    458.66057   0.96472324 
   42100    294.04767   -1007.3476    142837.24   -40894.332    4038.0366   -44932.369    460.33339   0.96506009 
   42200     295.9804   -1007.3353    142828.01   -40858.725     4064.578   -44923.303    461.26909   0.96512246 
   42300     290.2251    -945.8583     143083.9   -40937.808    3985.5429   -44923.351    463.27093   0.96339643 
   42400    294.96936   -1071.2263    143244.06    -40888.63    4050.6939   -44939.324    465.69533   0.96231924 
   42500    295.39692   -1256.3869    142814.52   -40901.064    4056.5654   -44957.629     466.1949   0.96521359 
   42600    293.96244   -948.36811    143008.68   -40912.233    4036.8662   -44949.099    467.89381   0.96390318 
   42700     290.5866   -1181.1733    142687.75   -40928.594    3990.5072   -44919.101    468.06911   0.96607112 
   42800    287.81523   -765.63833    142719.19   -40948.686     3952.449   -44901.135    469.65154   0.96585829 
   42900    289.78829   -1161.6387    142870.44   -40860.763    3979.5444   -44840.308     471.2807   0.96483582 
   43000    294.38332   -958.91524    142755.98   -40812.391     4042.646   -44855.037    472.12155   0.96560943 
   43100    296.79966   -1201.5549    142738.44   -40808.692    4075.8286   -44884.521    472.77153   0.96572803 
   43200    291.61184   -705.22544    143057.32   -40836.478    4004.5864   -44841.065    475.54027   0.96357541 
   43300    292.28607   -985.58018    143324.51   -40843.402    4013.8453   -44857.248    477.58596   0.96177906 
   43400    296.19258   -1072.8915       143671   -40898.277    4067.4919   -44965.769    480.00418   0.95945956 
   43500    297.22133   -942.05094    143528.47    -40849.73    4081.6192   -44931.349    480.75172   0.96041238 
   43600    291.06728   -970.19049    143543.39   -40891.485    3997.1082   -44888.593    482.15521   0.96031256 
   43700    292.55655    -958.0272    143181.14   -40897.596    4017.5597   -44915.156    482.32081   0.96274215 
   43800    295.36056   -1069.7721    143066.45    -40784.57     4056.066   -44840.636    483.28385   0.96351394 
   43900     287.4171   -1420.5689    142825.45   -40909.065    3946.9817   -44856.047    483.85088   0.96513974 
   44000    291.90741   -1034.9629    142514.62   -40863.085    4008.6453   -44871.731    484.76622   0.96724476 
   44100    294.61804   -941.55635    142428.56   -40753.845    4045.8693   -44799.714    485.16572   0.96782916 
   44200    295.98049   -1016.5883    142215.11   -40830.445    4064.5792   -44895.025    484.59631   0.96928179 
   44300    290.34658   -853.68167    142155.61    -40979.03    3987.2111   -44966.241    485.41373   0.96968746 
   44400    297.89389   -1188.4065    142774.49   -40984.466    4090.8553   -45075.322    487.10109   0.96548424 
   44500    288.83039   -961.83688    142733.07   -41013.247    3966.3898   -44979.637    487.79731   0.96576439 
   44600    290.67154   -1086.2635    142913.87   -41003.744    3991.6737   -44995.418    488.54575   0.96454261 
   44700    291.58685   -789.08387    143011.38   -41070.196    4004.2432   -45074.439    490.25727   0.96388495 
   44800    294.56079   -1018.8655    143006.63   -40986.467    4045.0831    -45031.55    491.21481   0.96391699 
   44900    289.35289   -1014.5156    142826.31   -41005.636    3973.5652   -44979.201          493   0.96513391 
   45000     289.2995   -1256.6531    142734.02   -40996.282     3972.832   -44969.114    493.69981   0.96575795 
   45100    295.44992   -830.13563    142733.37   -40901.673    4057.2932   -44958.967    493.96349   0.96576236 
   45200    294.37788   -870.29678     142639.8   -40951.079    4042.5713   -44993.651    493.85281    0.9663959 
   45300     289.3984   -1131.3043     142497.5   -40981.661    3974.1901   -44955.851    494.72615   0.96736095 
   45400     291.0545   -1159.3119     142316.7   -41027.177    3996.9327    -45024.11    494.23707   0.96858986 
   45500    292.20531    -1047.744    142151.28   -40951.446    4012.7362   -44964.182    495.79831   0.96971704 
   45600    296.69828    -994.3255    142331.89    -40998.82    4074.4364   -45073.256     498.2439   0.96848649 
   45700    296.16137   -781.25491    142514.18   -40884.865    4067.0632   -44951.928    500.37726   0.96724774 
   45800     295.6942   -996.70664     142525.2    -40852.49    4060.6477   -44913.138    502.33042   0.96717293 
   45900    295.72169    -1001.846    142601.91   -40846.829    4061.0253   -44907.854    504.56865   0.96665266 
   46000    296.31985   -1153.9291    142795.51   -40882.608    4069.2396   -44951.847    505.93395   0.96534209 
   46100    294.88048   -969.58445    142634.24   -40882.792    4049.4733   -44932.266    506.76862   0.96643354 
   46200    296.77582   -1102.0501    142678.12   -40897.899    4075.5012     -44973.4    507.64123   0.96613637 
   46300    295.93052   -1112.0738    142615.61   -40900.143    4063.8931   -44964.036    508.86671   0.96655983 
   46400    294.40119   -1014.6479     142387.9   -40879.754    4042.8914   -44922.646    508.76533   0.96810553 
   46500    298.50943    -684.7453    142474.34   -40824.546    4099.3082   -44923.854    510.70844   0.96751817 
   46600    300.94975   -1069.5836    142379.94   -40777.408    4132.8201   -44910.228    512.49468   0.96815971 
   46700    297.99811   -895.49045    142470.45   -40801.781    4092.2865   -44894.068    513.41255   0.96754463 
   46800    298.35526   -1076.7428    142518.25   -40765.013     4097.191   -44862.204    514.71416   0.96722012 
   46900    298.09999    -1044.156    142970.81   -40797.536    4093.6855   -44891.221    516.22014   0.96415845 
   47000    301.54108   -959.71995    142976.49   -40852.191    4140.9407   -44993.131    516.97927   0.96412019 
   47100    294.24695   -882.31612    143207.83   -40796.884    4040.7733   -44837.657    517.87871    0.9625627 
   47200    297.36417   -1053.9066    143020.35   -40855.308    4083.5808   -44938.889    518.74611   0.96382447 
   47300     293.6686   -985.84053    142895.22   -40832.603     4032.831   -44865.434    519.21837   0.96466851 
   47400    290.40774    -935.2898    142926.08   -40776.273     3988.051   -44764.324     520.9236   0.96446024 
   47500    290.45014   -608.09924    142918.41   -40882.533    3988.6333   -44871.166    522.62646   0.96451197 
   47600    300.07111   -1194.3766    142644.03   -40827.609     4120.754   -44948.363    521.99747   0.96636725 
   47700    296.78053   -1243.4976    142363.98   -40896.512     4075.566   -44972.078    522.80538   0.96826818 
   47800    292.55169   -987.79388    142272.78   -40932.707     4017.493     -44950.2    523.80533   0.96888888 
   47900    294.64517   -956.66368    142304.24    -40895.75    4046.2419   -44941.992    524.89817   0.96867469 
   48000    294.15971    -842.1865    142747.61   -40912.555    4039.5752    -44952.13    527.42555     0.965666 
   48100    294.62009   -1136.3661    142592.75   -40966.203    4045.8975   -45012.101    528.93272   0.96671479 
   48200    297.28007   -1009.2593    142394.79   -40897.499    4082.4259   -44979.925     529.6818   0.96805868 
   48300    295.92272   -1084.4751    142522.21   -40918.287     4063.786   -44982.073    530.95383   0.96719325 
   48400    297.97185   -1063.8875    142461.83   -40889.589    4091.9258   -44981.515    532.03605   0.96760319 
   48500    289.83535   -976.95366    142604.38    -40941.27    3980.1906   -44921.461    533.81224   0.96663592 
   48600    294.98695   -906.01977    142775.65   -40917.943    4050.9353   -44968.878    535.63433   0.96547637 
   48700    296.26991   -1114.7387    142630.41   -41006.284    4068.5537   -45074.838    535.97578   0.96645948 
   48800    291.76945   -746.31643    143011.62   -40960.354    4006.7508   -44967.105    537.12086   0.96388333 
   48900    292.38047   -1112.1332    143032.32   -40877.594    4015.1416   -44892.736     537.8631   0.96374386 
   49000    291.55366   -946.52593    143053.28   -40847.787    4003.7874   -44851.574    538.47112   0.96360262 
   49100    291.41517   -841.54381    143173.75   -40910.092    4001.8856   -44911.978    539.68513   0.96279181 
   49200    292.34638   -991.87507     143305.9   -40977.099    4014.6736   -44991.773    540.16585   0.96190399 
   49300    293.38986   -953.93056    143303.29   -40967.175    4029.0033   -44996.178    541.04058    0.9619215 
   49400    293.86936   -1151.1628    143305.71   -40943.896     4035.588   -44979.484    542.05696   0.96190527 
   49500    295.71079   -964.42839     143242.8   -40971.713    4060.8756   -45032.588    542.12932   0.96232769 
   49600    293.68001   -1030.8076    143229.89   -40932.625    4032.9877   -44965.612    543.42147   0.96241444 
   49700    294.08997     -1095.92    143198.31   -40881.252    4038.6175   -44919.869    543.99863    0.9626267 
   49800    295.02419   -986.77579    143011.21   -40865.825    4051.4468   -44917.272    544.47621   0.96388607 
   49900    292.16749   -957.85932    143168.71   -40905.318    4012.2169   -44917.535    545.68567   0.96282574 
   50000    289.16104    -835.6003    143434.06   -40947.671    3970.9305   -44918.601    547.26255   0.96104452 
   50100     294.9624   -906.24585    143302.49    -40984.76    4050.5982   -45035.358    547.34875   0.96192686 
   50200    292.51972   -1288.0325    143045.12   -40957.364     4017.054   -44974.418    547.70181   0.96365762 
   50300    295.04928   -1004.1618     143083.4   -40887.431    4051.7914   -44939.223    548.84001   0.96339976 
   50400    294.52278   -900.42861    142656.33   -40944.709    4044.5612    -44989.27    549.06595   0.96628394 
   50500    291.43879   -910.66166    142798.68    -40984.47      4002.21    -44986.68    549.87663   0.96532066 
   50600    293.60524   -995.54586    142969.79   -40991.034     4031.961   -45022.995    551.64121   0.96416536 
   50700    294.09355   -960.45619    142906.47   -40864.763    4038.6668    -44903.43    552.77083   0.96459255 
   50800    293.02179   -1169.3541    142745.54    -40830.07    4023.9487   -44854.019    552.70164   0.96568002 
   50900    294.92487   -932.66993    142561.51   -40870.321    4050.0828   -44920.404    553.03823   0.96692658 
   51000     297.9276   -851.85742    142501.29   -40930.012    4091.3181    -45021.33    553.35483   0.96733523 
   51100    293.49422   -1104.9724     142647.2   -40919.406    4030.4364   -44949.842    554.92035   0.96634575 
   51200    297.90381   -838.76361    142653.47   -40797.041    4090.9915   -44888.033    556.38942   0.96630328 
   51300     293.0389   -1018.6184    142334.59   -40767.856    4024.1836    -44792.04    557.15735   0.96846815 
   51400    290.84036   -929.83055    142236.66   -40907.989     3993.992   -44901.981    557.60469   0.96913496 
   51500    292.57375   -932.80381    142585.19   -40954.708    4017.7959   -44972.504    559.61853   0.96676599 
   51600    292.85059   -598.91642    143059.57   -40901.947    4021.5976   -44923.545    561.87704   0.96356027 
   51700     293.6028   -1141.5783    142833.64   -40840.158    4031.9274   -44872.086    562.46989   0.96508441 
   51800    291.56346   -896.36144    142850.44   -40930.939     4003.922   -44934.861    562.98995    0.9649709 
   51900    295.01654   -1336.2463     142641.1   -40973.968    4051.3417    -45025.31     563.5311   0.96638709 
   52000     291.4094    -611.9267    142656.48   -40924.152    4001.8064   -44925.959    565.47761   0.96628292 
   52100    292.00872   -1040.1331    142981.55   -40936.162    4010.0366   -44946.199    567.53952   0.96408607 
   52200    289.33355     -1071.35    142840.61   -40943.643    3973.2996   -44916.942     567.3875   0.96503727 
   52300    293.90842   -1085.9498    142729.17   -40901.873    4036.1243   -44937.997    567.89285    0.9657908 
   52400    298.32435   -1053.0918    142677.31   -40808.901    4096.7665   -44905.668    568.87187   0.96614184 
   52500     292.7448   -1071.5717    142886.38   -40815.684    4020.1448   -44835.829    569.80383   0.96472815 
   52600    293.35852   -939.08347    142795.18   -40963.609    4028.5728   -44992.182    570.18769   0.96534432 
   52700    295.28447   -1029.4047    142742.59   -40977.239    4055.0211    -45032.26    570.72954   0.96570001 
   52800    290.28489    -827.4641    143216.45    -40975.11     3986.364   -44961.474    572.90258   0.96250478 
   52900    289.41196   -932.28936    143427.78   -41034.873    3974.3763    -45009.25    574.27733   0.96108658 
   53000     285.8682   -1245.8813     143262.7   -41092.464    3925.7113   -45018.175    575.63874   0.96219402 
   53100    290.92337   -947.70977    143270.55    -41091.05    3995.1319   -45086.182    577.07101   0.96214134 
   53200    296.67992    -1142.997    142997.68   -40946.386    4074.1842    -45020.57    577.22043   0.96397733 
   53300     297.0509   -1021.4282    142599.37   -40991.967    4079.2788   -45071.246    575.77938   0.96666988 
   53400    294.79416   -1112.3643    142995.65   -40876.351    4048.2878   -44924.639    577.19723   0.96399099 
   53500    291.84977   -858.80791    142804.87   -40861.745    4007.8538   -44869.598    577.60524   0.96527879 
   53600     296.0603   -1145.1964    142781.99   -40859.089    4065.6753   -44924.765    578.49731   0.96543352 
   53700    294.98659   -1108.1499    142531.69   -40912.627    4050.9305   -44963.557    579.24635   0.96712889 
   53800    288.26679   -957.87262    142378.32   -41013.944    3958.6501   -44972.594    580.47678   0.96817071 
   53900    291.69855   -1233.8957    142530.34   -40966.586    4005.7771   -44972.363    581.70968   0.96713809 
   54000    292.43031   -901.84512    142551.16   -40919.267     4015.826   -44935.093    583.85093   0.96699683 
   54100    294.11585   -1025.8984    142417.34   -40887.986    4038.9729   -44926.959    584.61035    0.9679054 
   54200    293.05445   -1085.6689    142840.41   -40918.635    4024.3971   -44943.032    586.45648   0.96503866 
   54300    298.08409   -1002.7505     142944.8   -40841.616    4093.4672   -44935.083    587.32525   0.96433388 
   54400    290.69258   -781.19141    143151.15   -40926.557    3991.9626   -44918.519    588.94261   0.96294385 
   54500    298.15931   -900.02299    143144.49   -40897.765    4094.5001   -44992.265    590.12299   0.96298863 
   54600    294.33136   -1078.7089    143194.43   -40908.626    4041.9324   -44950.558    591.33353   0.96265282 
   54700      295.848   -1012.9996    143089.69   -40955.036    4062.7598   -45017.796    592.50793   0.96335743 
   54800    295.30242   -1167.1441    142966.18   -40961.768    4055.2676   -45017.036    592.13559   0.96418972 
   54900    292.91499   -906.99953    143345.59   -40833.038     4022.482    -44855.52    594.41301   0.96163768 
   55000    301.83532   -1023.2437     142919.5    -40802.62    4144.9812   -44947.601    593.86192    0.9645046 
   55100    296.26742   -964.47589    142655.72   -40806.735    4068.5195   -44875.255    593.76804   0.96628803 
   55200    300.95724     -737.946    142837.24   -40827.885     4132.923   -44960.808    594.74617   0.96506009 
   55300    295.36265   -1012.2158    143017.25    -40786.42    4056.0947   -44842.514    596.29696    0.9638454 
   55400    295.27837   -1102.6183    142886.13   -40736.017    4054.9373   -44790.954    596.73679   0.96472988 
   55500    297.16895   -1207.7183    142526.31   -40777.039       4080.9   -44857.939    596.98501    0.9671654 
   55600    299.69279   -839.13858    142359.92   -40751.048    4115.5588   -44866.607    597.76217   0.96829584 
   55700    297.19563   -995.34831    142429.04   -40772.611    4081.2663   -44853.878    598.85865   0.96782591 
   55800    294.29854   -938.76746    142629.75   -40880.163    4041.4817   -44921.644    601.05548   0.96646399 
   55900    294.48042   -964.40698    142507.97   -40967.375    4043.9795   -45011.355     602.2498    0.9672899 
   56000    285.22968   -1041.8324    142494.16   -41027.778    3916.9428    -44944.72    601.71021    0.9673836 
   56100    285.38503   -1157.4077    142439.91   -40944.706    3919.0762   -44863.783    603.47375   0.96775207 
   56200     291.7397   -690.24092    142527.26   -40907.387    4006.3423   -44913.729    602.89677   0.96715897 
   56300    299.57932    -1050.575    142783.62   -40823.101    4114.0006   -44937.102    605.23213   0.96542251 
   56400    297.31027   -991.76914    143124.94   -40728.361    4082.8406   -44811.201    606.85531   0.96312016 
   56500    292.58495    -1029.315    143062.96   -40809.008    4017.9497   -44826.957    607.99388   0.96353744 
   56600    292.98668   -924.86096    143129.15   -40721.189    4023.4664   -44744.655    609.04948   0.96309181 
   56700    295.74643   -1171.0822    143079.95   -40761.348    4061.3651   -44822.713    609.61483   0.96342302 
   56800    298.03637    -949.6852    142786.16   -40747.438    4092.8119    -44840.25    610.28507   0.96540532 
   56900    296.57395   -1004.7488     142704.7   -40858.176     4072.729   -44930.905    611.49426   0.96595641 
   57000    296.91702   -1316.2098    142509.56   -40909.042    4077.4403   -44986.482    612.71042   0.96727908 
   57100    292.04909   -1020.9599    142549.42   -40973.641     4010.591   -44984.232    614.49426   0.96700863 
   57200    289.66148   -918.30142    142614.73   -41065.198    3977.8029   -45043.001    615.83682   0.96656579 
   57300    292.63134   -808.51513    142449.13   -41054.214    4018.5868   -45072.801    616.11298   0.96768946 
   57400    291.72215   -1200.2413    142540.49   -41066.533    4006.1012   -45072.634    617.23981    0.9670692 
   57500    292.91322   -1178.5102    142815.43   -41018.714    4022.4577   -45041.172    618.17737   0.96520746 
   57600    287.90032    -1069.606    142254.79   -41076.142    3953.6176    -45029.76    617.77184   0.96901141 
   57700    292.11111   -874.72719    142082.88   -41035.074    4011.4427   -45046.517    617.76364   0.97018384 
   57800    298.30385   -1108.1945    142363.93   -40904.368    4096.4851   -45000.853    620.79435   0.96826857 
   57900    298.30093   -1202.3447    142272.87   -40986.581    4096.4449   -45083.026    621.41065   0.96888827 
   58000     292.7348   -1066.3078    142092.43   -41018.708    4020.0075   -45038.715     622.1566   0.97011869 
   58100    294.69608   -1070.2469    142019.33    -40897.35     4046.941   -44944.291    623.22716   0.97061796 
   58200    291.44492   -1021.9014     142003.6   -41009.499    4002.2942   -45011.793    623.67242   0.97072552 
   58300    295.51026    -917.1042    142197.45   -41038.269    4058.1218   -45096.391    625.26706   0.96940219 
   58400    288.54526   -890.86367    142136.99   -40977.109    3962.4743   -44939.583    626.83677   0.96981451 
   58500    295.69305   -990.51798    142218.39   -40829.391     4060.632   -44890.023    628.37458   0.96925941 
   58600    292.55014   -932.71089    141848.26   -40909.745    4017.4717   -44927.217    628.07209   0.97178857 
   58700    292.40199   -863.26506    141959.96   -40853.078    4015.4372   -44868.515    629.87072    0.9710239 
   58800    291.74631   -1085.6115     142052.1   -40843.222     4006.433   -44849.655    631.49047   0.97039405 
   58900    295.94454   -888.64714     142013.9   -40800.538    4064.0855   -44864.624    632.27521   0.97065507 
   59000    292.60084   -1054.4689    142060.69   -40883.441    4018.1679   -44901.609    634.41996   0.97033537 
   59100    290.63635   -1295.6412    142065.35   -40830.693    3991.1904   -44821.883    635.97987   0.97030358 
   59200    293.80806   -1007.3111    142478.24   -40894.604    4034.7462    -44929.35     638.8695   0.96749173 
   59300    294.26506   -1136.2018    142157.64   -40894.435    4041.0219   -44935.457    638.62677   0.96967361 
   59400    295.30174   -1125.2881     142011.5   -40859.357    4055.2582   -44914.615    639.73814   0.97067152 
   59500    289.77956   -760.90394    142094.46   -40845.815    3979.4244    -44825.24    641.08441   0.97010481 
   59600    290.89548   -754.39885    142180.52   -40755.946     3994.749   -44750.695    643.01198   0.96951762 
   59700    294.82417   -984.87035    142149.18   -40817.293    4048.7001   -44865.993    644.53965   0.96973134 
   59800    295.17155   -853.84249    142520.18   -40823.183    4053.4704   -44876.653      647.235   0.96720702 
   59900     292.2675   -906.74947    142824.41   -40849.928    4013.5903   -44863.518    649.91343   0.96514674 
   60000     294.5757   -926.46691    142867.95   -40851.072    4045.2879    -44896.36    651.23217   0.96485261 
   60100    296.91596    -971.4301    143007.58   -40870.141    4077.4258   -44947.567    653.11563   0.96391057 
   60200    291.32492   -962.28638    142847.54    -41000.61    4000.6462   -45001.256    653.49255   0.96499051 
   60300    289.20053   -950.64071    142564.49   -40928.484    3971.4728   -44899.957    653.94435   0.96690639 
   60400    297.24358   -1024.2507    142339.01   -40926.065    4081.9247   -45007.989    654.10417   0.96843809 
   60500    285.33089   -811.48717    142279.69   -41013.916    3918.3326   -44932.249    655.50891   0.96884182 
   60600    296.20372   -1027.6955    142373.83   -40940.017    4067.6449   -45007.662    657.57147    0.9682012 
   60700    289.60441   -1104.4782    142496.47   -40956.607    3977.0192   -44933.626    658.52994   0.96736796 
   60800    296.95519   -872.32489    142386.29   -40938.888    4077.9645   -45016.852    658.18729   0.96811651 
   60900    295.47656   -890.94871    142561.82   -40875.339     4057.659   -44932.998    660.15667    0.9669245 
   61000    297.01649   -929.65171    142496.21   -40804.662    4078.8063   -44883.468     660.3323   0.96736973 
   61100    298.30269   -942.02995    142522.23   -40746.402    4096.4691   -44842.871    661.72603   0.96719307 
   61200    296.49048   -883.66891    142335.82    -40820.99    4071.5827   -44892.572    661.75303   0.96845981 
   61300    295.58832   -942.64116    142206.72   -40748.776    4059.1938    -44807.97    661.74606   0.96933896 
   61400    303.14342   -1123.9244    142369.72   -40625.956    4162.9449     -44788.9    663.95947   0.96822915 
   61500    299.21276   -1012.8225    142546.37   -40645.111    4108.9667   -44754.078    665.00762   0.96702927 
   61600    302.08184   -970.52983    142549.59   -40759.396    4148.3667   -44907.762    665.50516   0.96700744 
   61700    295.54862   -1075.2913     142360.9   -40795.384    4058.6486   -44854.033    666.74771    0.9682892 
   61800    296.54241   -1143.0763    142330.33   -40839.694    4072.2959    -44911.99    667.78876   0.96849712 
   61900    295.38565   -784.76431    142507.26   -40769.402    4056.4106   -44825.813    669.06747   0.96729473 
   62000    296.48708   -871.75976    142787.96   -40845.149     4071.536   -44916.685    671.95431   0.96539311 
   62100    291.31972   -999.73612    142983.24    -40824.38    4000.5748   -44824.955    673.99772   0.96407467 
   62200    295.82837   -1012.4191    142839.09   -40872.871    4062.4903   -44935.361    674.12523   0.96504755 
   62300    292.34979   -1058.1332    142851.15   -40885.826    4014.7204   -44900.546     675.0823   0.96496611 
   62400    292.00229   -1017.3335    143012.75   -40918.465    4009.9482   -44928.413    676.61934   0.96387569 
   62500    298.70111    -1110.519    143216.75    -40875.67    4101.9405   -44977.611    678.33957   0.96250278 
   62600    296.97814   -835.54106    143104.66   -40865.661    4078.2797    -44943.94    679.01938   0.96325664 
   62700    297.80591   -805.10561    143025.34    -40856.88     4089.647   -44946.527    679.48958   0.96379086 
   62800    295.07711   -980.41691    143119.57   -40907.772    4052.1735   -44959.946    680.88117   0.96315632 
   62900    294.42993    -998.8686    142974.37   -40855.737    4043.2861   -44899.023    681.38464   0.96413444 
   63000    291.20243   -1106.0531    142754.22   -40875.816    3998.9641    -44874.78    681.55076   0.96562131 
   63100    293.56957   -962.36896    143012.09   -40843.846    4031.4711   -44875.318    683.46227   0.96388016 
   63200    296.40821   -989.82886    143129.65   -40848.057     4070.453    -44918.51    685.08352   0.96308845 
   63300    287.69129   -1124.5203    143221.37   -40966.819     3950.747   -44917.566    687.16218   0.96247174 
   63400    285.95657   -776.62503    143094.93    -41011.54    3926.9248   -44938.465     688.0092   0.96332213 
   63500    297.02054   -1082.0472    142999.69   -40896.249    4078.8619    -44975.11     687.8456   0.96396373 
   63600     291.6527   -799.24306    143098.03   -40887.169    4005.1475   -44892.317     689.8904   0.96330128 
   63700    292.13918   -1000.3772    143257.78    -40947.86    4011.8281   -44959.688    691.57179   0.96222711 
   63800    293.51594   -846.59331    143130.73   -40961.144    4030.7346   -44991.879     691.9894   0.96308122 
   63900    287.76573   -1144.3699    143248.54   -40919.741    3951.7693    -44871.51     693.7523   0.96228915 
   64000    292.15448   -976.97759     143372.4   -41011.989    4012.0383   -45024.027    695.14512   0.96145783 
   64100    292.33541   -1113.1718    143185.92   -40992.533    4014.5228   -45007.056    695.44957   0.96270999 
   64200    294.47401    -1519.723    142722.82   -41025.057    4043.8914   -45068.948    694.73184   0.96583375 
   64300    285.58962   -836.72488    142625.48   -41076.812    3921.8857   -44998.697    695.24703    0.9664929 
   64400     287.7072   -974.92829    142967.98   -41057.328    3950.9655   -45008.293    697.46543   0.96417756 
   64500    287.84427   -1043.0732     143083.1   -41049.571    3952.8479   -45002.419    698.98879    0.9634018 
   64600    292.24206   -1201.0021    143013.18   -40963.361    4013.2409   -44976.601    699.80247   0.96387283 
   64700    293.28737   -1201.1238    142796.81   -40850.897    4027.5958   -44878.493    700.27964   0.96533334 
   64800    297.45753   -921.99987    142653.17   -40719.628    4084.8628   -44804.491    701.03735   0.96630532 
   64900    296.34179   -1002.1175    142503.96   -40734.309    4069.5409    -44803.85    701.15778   0.96731707 
   65000    296.65555   -1089.5925     142480.1   -40796.435    4073.8496   -44870.285    702.00311   0.96747907 
   65100    295.65749   -977.94276    142568.48   -40913.367    4060.1436   -44973.511    703.74751    0.9668793 
   65200     297.5052   -864.18282    142585.33   -40840.019    4085.5176   -44925.537    704.92285    0.9667651 
   65300    294.10537   -940.88963    142835.65   -40866.632     4038.829   -44905.461    707.04964   0.96507083 
   65400    293.32911   -1091.9892     142909.6   -40942.236     4028.169   -44970.405    707.26642    0.9645714 
   65500    294.57114   -1006.8588    143079.45    -40855.83    4045.2252   -44901.055    708.88727   0.96342639 
   65600    293.18843   -767.63945    142858.52   -40793.984    4026.2371   -44820.221    708.48006   0.96491629 
   65700    297.00943   -808.41846    142886.89   -40791.963    4078.7093   -44870.672     709.4851   0.96472476 
   65800    296.97873   -767.44258    142880.07   -40872.939    4078.2876   -44951.226    709.93616   0.96477076 
   65900     296.7252   -1268.3415    142907.68   -40867.629     4074.806   -44942.435     710.0356   0.96458436 
   66000     292.1303   -1078.0982    142404.68   -40941.892    4011.7061   -44953.598    709.45525   0.96799151 
   66100    295.40997   -1133.2433    142524.08   -40925.734    4056.7446   -44982.478    710.62129   0.96718052 
   66200    294.22582   -1066.9167    142383.45   -40837.195    4040.4832   -44877.678    710.79967   0.96813579 
[...]
   84600    289.69697   -1045.1766    142589.86   -40919.448    3978.2902   -44897.738    921.18409   0.96673434 
   84700    289.30884   -759.14872    142636.48   -40963.738    3972.9603   -44936.698    921.83984   0.96641837 
   84800    294.41382   -1049.6789    142928.51   -40906.747    4043.0649   -44949.812    924.81868   0.96444379 
   84900    292.03772   -1173.0297    142672.64    -40877.98    4010.4348   -44888.414    925.49232   0.96617343 
   85000    297.47879   -595.14195    142667.98   -40888.241    4085.1549   -44973.395    925.57672     0.966205 
   85100    291.79835   -1199.6693    142500.58   -40899.206    4007.1476   -44906.354    925.45108   0.96734001 
   85200    291.62784   -915.49592    142464.83   -40873.152    4004.8061   -44877.958    925.54018   0.96758279 
   85300    293.94874   -924.30871    142839.05   -40860.078     4036.678   -44896.756    927.94573   0.96504781 
   85400    296.45103   -969.08215    142877.05    -40877.16    4071.0411   -44948.201     930.1643   0.96479116 
   85500    298.72886   -1076.4926    142720.62   -40885.861    4102.3215   -44988.183    932.24224   0.96584863 
   85600    293.64437   -1127.5439    142697.84   -40916.634    4032.4983   -44949.132    934.27205   0.96600283 
   85700    295.22165   -784.64618    142455.41   -40923.326    4054.1584   -44977.485    933.68062   0.96764674 
   85800    298.18996   -912.54029    142538.07   -40905.635    4094.9211   -45000.556    934.65954   0.96708564 
   85900    294.20732   -1147.1266     142617.8   -40897.549     4040.229   -44937.778    936.13509   0.96654499 
   86000    295.00209   -850.64664     142493.5   -40904.721    4051.1433   -44955.864    936.45871   0.96738814 
   86100    292.18685   -842.92549    142689.35   -40897.706    4012.4828   -44910.189    939.34551   0.96606031 
   86200    294.49006   -695.78276    142987.44   -40861.862    4044.1118   -44905.974    940.81684   0.96404636 
   86300    292.46319   -929.51634    142868.34   -40914.045    4016.2777   -44930.323    941.25112   0.96484997 
   86400    291.01823   -892.82324     143237.1   -40856.764    3996.4346   -44853.199    943.07758   0.96236601 
   86500    294.56944   -974.17156    142856.64   -40818.253    4045.2019   -44863.455    942.59314   0.96492903 
   86600    293.97959   -1215.1791    142815.91   -40854.547    4037.1017   -44891.648    943.02876   0.96520418 
   86700    292.18426   -1005.2042    142648.24   -40870.143    4012.4472    -44882.59    943.23549   0.96633868 
   86800    295.02236   -1282.6087    142973.85    -40797.37    4051.4217   -44848.792    944.75078   0.96413793 
   86900    297.41314   -939.41885    143117.25    -40776.81    4084.2533   -44861.063    945.53463   0.96317192 
   87000    291.23574   -1117.6157    143389.75   -40849.513    3999.4215   -44848.935    948.47665    0.9613415 
   87100    298.33625   -908.33333    143567.66   -40881.099      4096.93   -44978.029    950.25706   0.96015022 
   87200    292.82933   -980.94641    143570.79   -40901.109    4021.3057   -44922.415    952.14426   0.96012929 
   87300    299.85062   -850.22288    143581.19   -40784.984    4117.7261    -44902.71    953.53698   0.96005971 
   87400    293.62108   -891.69296    143431.45   -40882.239    4032.1785   -44914.418    954.11844   0.96106203 
   87500     293.2495   -1151.1473       143330   -40936.145    4027.0757   -44963.221    955.24164   0.96174224 
   87600    290.05877     -1115.06    142885.11    -40924.34    3983.2587   -44907.598    955.33115   0.96473676 
   87700    292.11595   -926.06778    142488.24   -40907.349    4011.5091   -44918.858    955.22638   0.96742379 
   87800    295.35472   -956.02724    142682.88   -40792.854    4055.9858    -44848.84    957.40482   0.96610409 
   87900    297.42632   -921.23413    143035.87   -40766.872    4084.4343   -44851.307    960.89725   0.96371992 
   88000    296.22286   -835.79968    142950.66     -40785.1    4067.9077   -44853.008    961.85096   0.96429437 
   88100    300.52972   -929.60953    143030.79   -40798.464    4127.0519   -44925.516    962.14141   0.96375413 
   88200    297.07728   -795.64843    143030.98   -40734.184    4079.6411   -44813.825    962.32692   0.96375286 
   88300    292.62253   -1140.4504    143087.62   -40784.137    4018.4658   -44802.603    963.85059   0.96337134 
   88400    288.44902   -1347.0152    142825.71   -40850.382    3961.1527   -44811.535    964.18616   0.96513795 
   88500    290.24469   -1146.0876    142598.95   -40885.319    3985.8119   -44871.131    964.73312   0.96667276 
   88600    298.48224   -1001.5729    142913.89    -40851.03    4098.9349   -44949.965    966.49914   0.96454248 
   88700    291.76819   -953.04001    142672.66   -40862.582    4006.7334   -44869.316    967.13922   0.96617334 
   88800    295.19081   -1104.0974    142821.64   -40822.479     4053.735   -44876.214    969.46101   0.96516551 
   88900    293.37762   -791.63505    142733.92   -40862.442    4028.8351   -44891.277    969.93297   0.96575863 
   89000     297.2574   -1025.5188    142710.54   -40811.304    4082.1145   -44893.418    972.00165   0.96591685 
   89100    297.70683   -931.18345    142538.52   -40771.037    4088.2864   -44859.323    971.87351   0.96708259 
   89200    289.73319   -1040.8127     142531.3   -40891.799    3978.7877   -44870.587      972.258   0.96713156 
   89300    295.41751   -1262.1691    142515.53   -40877.672    4056.8482    -44934.52    973.05883   0.96723854 
   89400    296.72499   -862.58471    142617.68   -40823.142    4074.8032   -44897.945    973.99363   0.96654581 
   89500    293.71197   -945.03384    142504.29   -40920.351    4033.4267   -44953.777    973.58954   0.96731486 
   89600    298.05453   -903.08519    142526.14   -40846.281    4093.0612   -44939.342    975.53499   0.96716656 
   89700    297.16879   -960.64052    142543.81   -40871.535    4080.8977   -44952.433    976.12609   0.96704664 
   89800    297.81572   -1005.7119    142270.99   -40879.082    4089.7817   -44968.864    974.54408   0.96890108 
   89900    293.82724   -1021.9856    142593.68   -40908.918    4035.0096   -44943.928    978.26413   0.96670848 
   90000    300.92905     -1045.27    142490.48   -40924.957    4132.5358   -45057.493    978.25941   0.96740863 
   90100    297.23245   -1065.3066    142416.08   -40930.981     4081.772   -45012.753     978.9888     0.967914 
   90200    292.37148   -903.94189    142638.02   -41082.346    4015.0182   -45097.364     980.9221   0.96640798 
   90300     290.6535   -871.76149    142506.21   -41075.451     3991.426   -45066.877    981.92188   0.96730182 
   90400    292.57552   -1280.1291    143056.23   -40971.418    4017.8203   -44989.238    986.49444   0.96358273 
   90500    289.56435   -874.42869    142876.02   -40905.111    3976.4691    -44881.58    985.87652   0.96479813 
   90600    294.64409   -1013.9306    143130.44   -40887.634     4046.227   -44933.861    989.28158   0.96308317 
   90700    293.46571   -876.72119     143040.4   -40869.521    4030.0448   -44899.565     990.2373   0.96368939 
   90800     290.7976     -1037.08    142907.23   -40849.326    3993.4047   -44842.731    991.36958   0.96458739 
   90900    292.76475   -908.53653     143340.4   -40960.552    4020.4188   -44980.971    994.49207   0.96167248 
   91000    295.48981   -1080.0966    143135.88    -40922.26    4057.8409   -44980.101    995.23315   0.96304659 
   91100    296.91494   -630.43038     143311.4   -40881.474    4077.4117   -44958.885    997.49978   0.96186705 
   91200    295.64788   -1011.1056    143268.55   -40895.714    4060.0117   -44955.725    997.67944   0.96215473 
   91300    297.58792   -999.62715    143251.84    -40903.47    4086.6535   -44990.123    997.07297   0.96226696 
   91400    295.13892   -758.66721    142922.66   -40970.367    4053.0223   -45023.389    996.96885   0.96448326 
   91500    293.69224   -1164.6912    143015.09    -40992.83    4033.1557   -45025.986    998.07622   0.96385991 
   91600    287.66863   -1092.1424    142892.51    -40977.68    3950.4359   -44928.116    998.52317   0.96468676 
   91700    284.97669   -773.39376    142751.59    -41045.74    3913.4685   -44959.209    999.42963   0.96563911 
   91800     287.4819   -1057.9891    142900.07    -41112.27    3947.8716   -45060.141    1000.5355   0.96463577 
   91900    293.26334   -1217.6309    142823.94    -41021.33    4027.2658   -45048.595    1000.9462   0.96514992 
   92000    299.28862    -1003.699     142798.2   -40941.613    4110.0085   -45051.622    1002.3289   0.96532394 
   92100    300.81278    -1069.222    142636.66   -40907.937    4130.9392   -45038.876    1002.9422   0.96641718 
   92200    295.13896   -896.97641     142712.2   -40848.685    4053.0229   -44901.707    1005.0501   0.96590563 
   92300    298.85816   -867.31088    142971.15   -40855.206    4104.0972   -44959.303    1006.9628    0.9641562 
   92400    290.94108   -907.69736    143275.95   -40850.287    3995.3752   -44845.662    1009.5397   0.96210508 
   92500    293.29598   -1092.9101    143068.26   -40781.363     4027.714   -44809.077    1009.3999   0.96350172 
   92600    303.62946   -1067.7422    142701.88   -40783.274    4169.6195   -44952.893    1008.1985   0.96597546 
   92700    294.33713   -944.08189    142928.65   -40808.488    4042.0117   -44850.499    1010.3121   0.96444286 
   92800    299.81657   -1103.4231    142802.77    -40841.11    4117.2587   -44958.369    1010.3654   0.96529299 
   92900    296.33719   -792.66982     142415.3   -40824.106    4069.4777   -44893.584    1010.7182   0.96791931 
   93000    291.74767   -947.61543    142498.49   -40815.593    4006.4517   -44822.045    1012.6456   0.96735425 
   93100     295.8569   -987.39608    142276.42   -40821.073    4062.8821   -44883.955    1013.9915   0.96886411 
   93200    299.25348   -854.32518    142257.95   -40812.598    4109.5259   -44922.124    1015.8565   0.96898991 
   93300    300.90911   -842.66306    142377.58   -40765.375    4132.2621   -44897.637    1017.7095    0.9681757 
   93400    294.57077   -1088.0104    142236.57   -40852.058    4045.2202   -44897.278    1018.9745   0.96913554 
   93500    290.80579   -802.00227    142475.89   -40926.273    3993.5173    -44919.79    1021.0457   0.96750766 
   93600    296.94969   -937.21155    142598.47   -40967.957    4077.8889   -45045.846    1022.7519     0.966676 
   93700    291.31393   -1317.9929    142643.84    -40934.41    4000.4953   -44934.905     1025.042    0.9663685 
   93800    292.32703   -1115.4003    142484.94   -40822.087    4014.4077   -44836.495    1024.7536   0.96744622 
   93900    295.77843   -888.49017     142747.8   -40899.833    4061.8045   -44961.638    1029.1543   0.96566472 
   94000    294.08219   -852.58984    142873.66   -40956.334    4038.5107   -44994.845    1030.4871   0.96481406 
   94100    290.79665   -976.34805    142731.18   -40998.625    3993.3918   -44992.017    1030.9048   0.96577717 
   94200    291.26875   -927.54334     142991.8   -40960.763    3999.8749   -44960.638    1032.8787   0.96401693 
   94300    292.39843    -779.7118    142873.41   -40934.278    4015.3884   -44949.667    1034.2569   0.96481577 
   94400     296.1646   -1240.6649    142729.79   -40943.634    4067.1076   -45010.742    1036.3169   0.96578655 
   94500    288.25091    -1082.364    142817.54   -40942.936    3958.4322   -44901.368    1039.2554   0.96519321 
   94600    289.86339   -973.90353    142701.41   -41023.733    3980.5756   -45004.309    1040.0722   0.96597864 
   94700    293.81282   -1097.4857    142745.54   -40898.312    4034.8116   -44933.124    1041.6904   0.96568006 
   94800     292.9355   -601.65986    143087.96   -40869.208    4022.7636   -44891.971    1045.8036   0.96336908 
   94900    290.97337   -1233.9983    143249.63   -40838.339    3995.8186   -44834.157    1045.7681   0.96228181 
   95000    293.10119    -1104.254     142861.7    -40822.41     4025.039   -44847.449    1043.7101   0.96489486 
   95100    302.37191   -1148.3521    142643.27   -40803.119    4152.3501   -44955.469    1043.3006   0.96637242 
   95200    299.18624   -1097.3468    142484.19    -40831.53    4108.6026   -44940.133    1044.1844   0.96745129 
   95300    291.74995   -925.85124    142200.57   -40899.378     4006.483   -44905.861    1043.3346   0.96938092 
   95400    297.56229   -695.22765    142453.07   -40897.642    4086.3015   -44983.943    1046.5828   0.96766264 
   95500    295.71612   -882.19811    142399.42   -40911.213    4060.9488   -44972.162    1047.0925    0.9680272 
   95600    292.62166   -1004.5686    142395.43   -41006.356    4018.4539   -45024.809    1047.6606   0.96805435 
   95700    291.11644   -932.18237    142458.08   -40943.086    3997.7833   -44940.869    1048.2132   0.96762864 
   95800    289.02911   -1079.3923    142687.69   -40917.033    3969.1189   -44886.152    1049.4871   0.96607151 
   95900    293.10988   -727.48455    142568.07   -40935.044    4025.1584   -44960.203    1049.1384   0.96688212 
   96000    298.07139   -770.18592    142966.92   -40891.918    4093.2928    -44985.21    1051.8557    0.9641847 
   96100    296.55061   -944.78214    143396.23   -40902.575    4072.4086   -44974.984    1054.9919   0.96129804 
   96200    298.43073   -1044.0432    143697.12   -40890.004    4098.2274   -44988.232    1058.1092   0.95928516 
   96300     295.8628   -1006.3199    143214.37   -40886.357    4062.9631    -44949.32    1056.7371   0.96251873 
   96400    294.37562   -915.24232    143149.18    -40926.94    4042.5403    -44969.48    1058.5217   0.96295711 
   96500    291.51515    -952.9586    143447.91    -40912.28    4003.2585   -44915.538    1060.4534   0.96095175 
   96600    295.02686   -1103.7662     143288.1   -40809.896    4051.4835   -44861.379    1060.7386   0.96202345 
   96700    300.45706   -1035.2166    143331.79   -40756.623    4126.0541   -44882.677    1061.9585   0.96173027 
   96800    295.50135   -854.54282    143303.79   -40767.787    4057.9995   -44825.786    1063.6765   0.96191814 
   96900    292.74063   -894.99178    143228.78   -40811.064    4020.0876   -44831.152    1063.9601    0.9624219 
   97000      294.967   -1017.5681    143205.16   -40789.298    4050.6614   -44839.959    1064.4933   0.96258065 
   97100    299.34924   -1064.4827    143020.99   -40833.372    4110.8409   -44944.213    1063.5785   0.96382018 
   97200    295.89873   -1068.2257    142812.47   -40861.976    4063.4565   -44925.433    1062.8523   0.96522747 
   97300    295.89343    -1017.843    143143.06   -40863.864    4063.3837   -44927.247    1066.1071   0.96299827 
   97400    297.75685    -989.0813     143371.9    -40862.35    4088.9733   -44951.323    1068.8054   0.96146118 
   97500    291.67897   -958.07335    143185.03   -40904.624    4005.5082   -44910.132    1069.3332     0.962716 
   97600    292.88806   -933.30285    143063.03   -40909.961    4022.1122   -44932.073    1070.2708   0.96353695 
   97700    291.02006   -764.87847    143008.59   -40904.166    3996.4597   -44900.626    1071.2238   0.96390375 
   97800    293.43817   -1152.2351    143470.84    -40873.67    4029.6666   -44903.337    1073.5154   0.96079812 
   97900    298.76045   -854.61643    143208.31   -40837.066    4102.7553   -44939.822    1073.2677   0.96255947 
   98000    298.02897   -1063.8433     143038.1   -40786.332    4092.7102   -44879.042    1073.0975   0.96370489 
   98100    292.33195   -853.87601    143199.74   -40872.193    4014.4754   -44886.668    1073.7737   0.96261708 
   98200    298.80413   -1063.0833    142995.11   -40776.824    4103.3552    -44880.18    1073.6285   0.96399465 
   98300    298.41217   -1035.9023    142745.24   -40721.839    4097.9725   -44819.812    1072.4929   0.96568207 
   98400     298.8403   -1157.8085    142643.32   -40804.327    4103.8519   -44908.179    1073.8939   0.96637201 
   98500    298.05855   -1225.9614    142428.46   -40791.714    4093.1164   -44884.831    1074.3968   0.96782985 
   98600    292.26376   -974.59836    142173.66   -40878.242     4013.539   -44891.781    1074.8758   0.96956436 
   98700    294.58979   -868.33757    142256.72   -40874.603    4045.4813   -44920.084    1076.7806   0.96899826 
   98800    293.84278   -1022.7678    142081.44   -40871.989     4035.223   -44907.212    1076.1471   0.97019372 
   98900    291.58237   -841.33017    142325.93   -40871.524    4004.1817   -44875.706     1077.349   0.96852704 
   99000    292.49559   -891.86149    142781.52   -40762.363    4016.7226   -44779.085    1081.2503   0.96543667 
   99100    300.64159   -1236.0206    142694.71   -40799.158    4128.5883   -44927.746    1082.7734   0.96602403 
   99200    296.70373   -1151.9332    142611.62   -40837.401    4074.5112   -44911.912    1082.6101   0.96658688 
   99300    294.91331   -975.13631    142591.32   -40822.764    4049.9242   -44872.688    1083.1243   0.96672448 
   99400    300.03574   -1065.3623    142589.83   -40773.457    4120.2683   -44893.725    1084.8346   0.96673458 
   99500    296.54157   -736.76067    142734.12   -40816.758    4072.2844   -44889.042    1086.1335   0.96575727 
   99600    290.97215   -811.76162    142874.74   -40887.558    3995.8018    -44883.36    1088.4665   0.96480676 
   99700    296.18373    -977.5307    142894.88   -40856.104    4067.3703   -44923.474    1089.6092   0.96467078 
   99800    296.28268   -999.33383    142659.59   -40901.223    4068.7291   -44969.952     1088.185   0.96626182 
   99900    294.00338    -845.3299    142853.55   -40845.255    4037.4285   -44882.683    1089.6404   0.96494989 
  100000    297.76095   -1021.2294    142749.52   -40859.354    4089.0296   -44948.384    1090.3391   0.96565309 
  100100    300.18226   -903.78988    142668.31   -40900.567    4122.2805   -45022.847    1091.0627   0.96620275 
  100200    291.31664   -1165.7031    142826.42   -40856.048    4000.5326    -44856.58    1092.9271   0.96513319 
  100300    288.41731   -1102.3535    142866.05   -40854.224    3960.7172   -44814.941    1094.1871   0.96486548 
  100400     296.0459   -1037.1799    142842.83   -40880.476    4065.4775   -44945.953    1095.5069   0.96502229 
  100500    294.48772   -1328.7107    142457.48   -40927.543    4044.0796   -44971.623    1094.4764   0.96763267 
  100600    292.50642   -1053.3667    142501.27   -40967.929    4016.8712     -44984.8     1096.128   0.96733536 
  100667    293.27278   -844.59818    142978.84   -40868.028    4027.3953   -44895.423    1099.5124    0.9641043 
Loop time of 111.822 on 6 procs for 100000 steps with 4608 atoms

Performance: 386.329 ns/day, 0.062 hours/ns, 894.279 timesteps/s
99.0% CPU use with 6 MPI tasks x no OpenMP threads

MPI task timing breakdown:
Section |  min time  |  avg time  |  max time  |%varavg| %total
---------------------------------------------------------------
Pair    | 93.229     | 93.726     | 94.606     |   5.4 | 83.82
Neigh   | 7.1056     | 7.1404     | 7.1801     |   0.9 |  6.39
Comm    | 7.3293     | 8.1777     | 8.7094     |  17.4 |  7.31
Output  | 0.18004    | 0.18125    | 0.18686    |   0.6 |  0.16
Modify  | 1.8741     | 1.9607     | 2.0384     |   3.5 |  1.75
Other   |            | 0.6361     |            |       |  0.57

Nlocal:        768.000 ave         777 max         757 min
Histogram: 1 0 1 1 0 0 0 1 0 2
Nghost:        1539.50 ave        1549 max        1534 min
Histogram: 2 1 0 0 1 1 0 0 0 1
Neighs:        0.00000 ave           0 max           0 min
Histogram: 6 0 0 0 0 0 0 0 0 0
FullNghs:      21556.3 ave       21955 max       21086 min
Histogram: 1 0 1 1 0 0 0 1 1 1

Total # of neighbors = 129338
Ave neighs/atom = 28.068142
Neighbor list builds = 7123
Dangerous builds = 0

undump              1
unfix               2
unfix               3
unfix               4


################################################
#######         Run Simulation         #########
################################################

reset_timestep      0
log                 log.run_${NAME}
log                 log.run_liq_295K_-1000atm_ML
