
# Define the lattice
#
variable	    lattice_constant equal 6.36339
lattice		    diamond ${lattice_constant} orient x 0 0 1 orient y 0 1 0 orient z -1 0 0
lattice		    diamond 6.36339 orient x 0 0 1 orient y 0 1 0 orient z -1 0 0
Lattice spacing in x,y,z = 6.3633900 6.3633900 6.3633900

# Define region
# multiples of lattice spacing
#
region 		    simbox block 0 9 0 8 0 8

# Create Atoms
#
create_box          1 simbox
Created orthogonal box = (0.0000000 0.0000000 0.0000000) to (57.270510 50.907120 50.907120)
  3 by 1 by 2 MPI processor grid
create_atoms        1 box
Created 4608 atoms
  create_atoms CPU = 0.001 seconds
mass                1 18.015

# Define potential
#
pair_style          sw
pair_coeff          * * /data/emrosky-sim/Freezing_Simulations/Melting/MLmW_fancy/ML_mW.sw mW
Reading sw potential file /data/emrosky-sim/Freezing_Simulations/Melting/MLmW_fancy/ML_mW.sw with DATE: 2019-02-27

# Add velocity/set timestep
#
velocity            all create ${TEMP} 120598 rot yes dist gaussian
velocity            all create 295 120598 rot yes dist gaussian
timestep            5.0

# Define output
#
compute	            1 all msd
thermo              100
thermo_style        custom step temp press vol etotal ke pe c_1[4]

# Neighbor lists
#
neigh_modify        delay 0 every 1 check yes

# Set fixes
#
fix                 1 all momentum 10 linear 1 1 1 rescale
fix                 2 all nve
fix                 3 all temp/csvr ${TEMP} ${TEMP} 500.0 928347
fix                 3 all temp/csvr 295 ${TEMP} 500.0 928347
fix                 3 all temp/csvr 295 295 500.0 928347
fix                 4 all press/berendsen iso ${PRES} ${PRES} 1000.0 modulus 20000
fix                 4 all press/berendsen iso -1000 ${PRES} 1000.0 modulus 20000
fix                 4 all press/berendsen iso -1000 -1000 1000.0 modulus 20000

# Run 0.5 ns equilibration
#
dump		    1 all custom 1000 eq.${NAME}.dump id type x y z vx vy vz
dump		    1 all custom 1000 eq.ice_295K_-1000atm_ML.dump id type x y z vx vy vz
run                 100000
Neighbor list info ...
  update every 1 steps, delay 0 steps, check yes
  max neighbors/atom: 2000, page size: 100000
  master list distance cutoff = 6.0032907
  ghost atom cutoff = 6.0032907
  binsize = 3.0016454, bins = 20 17 17
  1 neighbor lists, perpetual/occasional/extra = 1 0 0
  (1) pair sw, perpetual
      attributes: full, newton on
      pair build: full/bin/atomonly
      stencil: full/bin/3d
      bin: standard
Per MPI rank memory allocation (min/avg/max) = 4.779 | 4.779 | 4.779 Mbytes
Step Temp Press Volume TotEng KinEng PotEng c_1[4] 
       0          295   -614.56618    148418.52    -51846.07    4051.1146   -55897.184            0 
     100    202.16081   -833.09986     148945.5    -50181.53    2776.1919   -52957.722   0.10445114 
     200    230.67412   -914.93119    149291.85   -49195.054    3167.7536   -52362.808   0.11863062 
     300    248.65389   -973.20906    149481.62   -48568.089    3414.6624   -51982.751   0.15208719 
     400    269.68714   -965.80989    149620.67   -48154.395    3703.5034   -51857.899   0.15350074 
     500    285.97315   -931.49291    149748.45   -47856.689    3927.1526   -51783.842   0.14318497 
     600    289.31949   -960.87281    149844.25   -47580.132    3973.1066   -51553.239   0.16440601 
     700    291.55896   -997.64521    149901.13   -47525.671    4003.8602   -51529.531   0.15378353 
     800    290.98913   -999.69297    149902.57   -47427.038     3996.035   -51423.073   0.16221616 
     900    293.43657   -1002.0702    149908.76   -47404.137    4029.6447   -51433.782   0.17737593 
    1000     294.7518   -1014.8386    149884.53   -47455.767    4047.7062   -51503.473   0.15539084 
    1100    294.53635   -976.11418    149898.09   -47399.127    4044.7475   -51443.875   0.16185267 
    1200    299.36254   -943.17704    149902.13   -47394.173    4111.0236   -51505.196   0.16217066 
    1300    293.72373   -1077.6218    149963.02   -47319.027    4033.5881   -51352.615   0.17441381 
    1400    296.28392    -1018.993    149950.78   -47416.096    4068.7462   -51484.842   0.16769841 
    1500    289.27661   -1025.0756    149952.85   -47446.311    3972.5176   -51418.828    0.1594618 
    1600    297.14885   -1002.0822    149925.25   -47370.647    4080.6239   -51451.271   0.17196836 
    1700    291.84714   -1036.8192     149923.4   -47395.231    4007.8177   -51403.049   0.16382636 
    1800     291.4237   -1022.6505    149912.99   -47386.192    4002.0027   -51388.195   0.17852372 
    1900     297.7742   -1046.4382    149955.91   -47300.899    4089.2116   -51390.111   0.16883398 
    2000     301.9681   -992.85028    149973.78   -47248.701    4146.8047   -51395.506   0.16115639 
    2100    292.93713   -1025.2219    149944.84   -47421.873     4022.786   -51444.659   0.17302748 
    2200    299.03884   -988.62641    149956.17   -47347.228    4106.5784   -51453.806   0.15491245 
    2300    297.73503   -985.44215    149949.74   -47279.017    4088.6737    -51367.69   0.17799903 
    2400    297.86248   -993.94862    149959.04   -47305.012    4090.4239   -51395.436   0.17606934 
    2500    300.32835   -982.50693    149966.92   -47362.483    4124.2867    -51486.77   0.15564507 
    2600    292.60405   -1037.2052    149932.76   -47393.412     4018.212   -51411.624   0.17903327 
    2700    307.62198   -951.95017    149906.09   -47366.091    4224.4471   -51590.538   0.14920873 
    2800    291.72037   -968.30638    149921.09   -47261.922    4006.0768   -51267.998   0.18208159 
    2900    303.36051   -991.27507    149942.34   -47287.524    4165.9261    -51453.45   0.17041466 
    3000    299.27489   -1013.4858     149923.6   -47351.457    4109.8199   -51461.277   0.17420311 
    3100    296.56718   -996.96616    149936.06   -47323.913    4072.6361   -51396.549   0.16449085 
    3200    294.36667   -1018.9146    149944.08    -47437.53    4042.4174   -51479.948   0.15988287 
    3300    290.21421   -974.06942    149879.72   -47492.528    3985.3933   -51477.921   0.15754317 
    3400    286.99315   -1048.9683    149908.47   -47429.418    3941.1598   -51370.578   0.16408663 
    3500    294.92725   -1019.2213    149885.08   -47390.525    4050.1156    -51440.64   0.17597278 
    3600    292.81823   -1018.9004    149898.94   -47400.475    4021.1532   -51421.628   0.16885449 
    3700    294.41698   -962.46264    149922.77   -47360.226    4043.1082   -51403.334   0.16192707 
    3800     295.7036   -1005.8203    149935.57   -47351.141    4060.7769   -51411.918    0.1773733 
    3900    299.59766   -978.71484    149940.84   -47358.158    4114.2523    -51472.41   0.16110002 
    4000    295.36029   -1010.2645    149946.87   -47402.987    4056.0624   -51459.049   0.16412394 
    4100    293.26675   -1005.3384    149936.37    -47415.33    4027.3126   -51442.643   0.17224807 
    4200    297.96608   -991.61029    149961.06   -47376.991    4091.8466   -51468.837   0.15050793 
    4300    287.84561   -1017.0343    149931.93   -47511.983    3952.8663   -51464.849   0.17453478 
    4400    299.49877   -975.63987    149980.72   -47399.399    4112.8944   -51512.293   0.15116118 
    4500    295.57914   -1005.8725    149944.18   -47459.345    4059.0676   -51518.413   0.16870333 
    4600     291.8495   -969.08499    149924.05   -47488.202    4007.8501   -51496.052   0.15595395 
    4700    296.91424   -1003.9003    149920.11   -47392.156    4077.4021   -51469.558   0.16198033 
    4800     294.6634   -1000.9866    149937.76   -47286.093    4046.4923   -51332.585   0.16790915 
    4900    301.86514   -996.49452    149973.77     -47254.8    4145.3908   -51400.191   0.16660151 
    5000    296.01007   -1001.8142     149954.7   -47383.666    4064.9855   -51448.652    0.1668106 
    5100    297.53805   -971.27094    149975.09   -47313.774    4085.9687   -51399.743   0.15848384 
    5200    297.68578   -1025.6919     149977.5   -47387.099    4087.9974   -51475.097     0.170572 
    5300    295.47392     -995.065    149941.25   -47492.644    4057.6228   -51550.267    0.1575803 
    5400    297.30357   -975.40152    149944.19   -47462.014    4082.7486   -51544.763   0.14977578 
    5500    292.96231   -1003.7322    149945.19   -47425.087    4023.1319   -51448.219   0.17205818 
    5600    295.23512   -996.22927     149915.7   -47464.491    4054.3434   -51518.834    0.1533205 
    5700    292.90868    -1009.119    149919.53   -47447.225    4022.3954    -51469.62   0.15903619 
    5800    297.71655   -959.50526    149946.75   -47390.426    4088.4198   -51478.846   0.16576094 
    5900    289.33563   -958.47779    149940.74   -47469.584    3973.3281   -51442.912   0.15017351 
    6000    292.60515   -1000.8167    149907.02   -47442.498    4018.2271   -51460.725   0.16634392 
    6100    286.91602   -1007.1205    149915.77   -47524.661    3940.1007   -51464.761   0.15630051 
    6200    290.08973   -992.67193    149906.41   -47504.041    3983.6839   -51487.725    0.1663279 
    6300    294.31406   -1044.7631    149955.69   -47383.472    4041.6949   -51425.167   0.16780001 
    6400    299.29226   -1005.3456    149967.51   -47441.811    4110.0584   -51551.869   0.15540458 
    6500    291.38241   -992.16035    149948.62   -47453.451    4001.4358   -51454.886   0.15765342 
    6600    296.24985   -1008.0628    149939.89   -47459.755    4068.2782   -51528.033   0.15238832 
    6700    293.89554   -979.10592    149930.98   -47516.754    4035.9475   -51552.701   0.16025636 
    6800    296.84032   -1009.6265    149953.76   -47467.045     4076.387   -51543.432   0.15856402 
    6900     301.3502    -944.7892    149991.09   -47392.906    4138.3193   -51531.225   0.15211748 
    7000    299.56444   -950.08703    149953.42   -47389.185    4113.7963   -51502.982   0.16243732 
    7100    296.08616   -1004.1497     149981.6   -47401.085    4066.0304   -51467.116   0.14499167 
    7200    288.72763   -1007.2606    149941.16   -47513.415    3964.9788   -51478.393   0.16819957 
    7300    286.75538   -1004.5021       149923   -47562.772    3937.8946   -51500.667   0.15175568 
    7400    292.06398   -976.31063     149934.3   -47448.136    4010.7954   -51458.932   0.15387765 
    7500    300.71136   -933.21136    149937.41   -47377.093    4129.5463   -51506.639   0.15971595 
    7600    299.61185   -964.55666    149940.64   -47355.112    4114.4473   -51469.559     0.154547 
    7700    289.10744   -1051.8598    149947.93   -47453.378    3970.1945   -51423.573   0.17125699 
    7800    289.46227   -984.68769    149947.52   -47514.741    3975.0672   -51489.808   0.16184569 
    7900    293.81301   -996.31355    149943.81   -47453.126    4034.8141   -51487.941   0.15877179 
    8000    297.82395   -1007.7825    149980.44    -47352.57    4089.8948   -51442.464   0.15627621 
    8100    302.73951   -1000.2378    149972.24   -47314.977    4157.3981   -51472.375   0.16210709 
    8200    296.44797   -1004.6334    149974.89   -47342.541     4070.999    -51413.54   0.16335516 
    8300    297.67496   -982.66151    149978.12   -47303.463    4087.8488   -51391.312   0.16497281 
    8400    294.71685   -1045.8493    149987.95   -47277.018    4047.2263   -51324.245   0.16668308 
    8500    295.44289    -1025.862    149966.74   -47367.866    4057.1967   -51425.063   0.16402191 
    8600    298.14985   -996.63254    149967.68   -47373.149    4094.3702   -51467.519    0.1519797 
    8700    295.14166   -1021.3154    149945.28   -47344.525    4053.0599   -51397.585   0.17199193 
    8800    297.24605   -974.88936    149958.97   -47392.897    4081.9586   -51474.855    0.1498803 
    8900    294.42319   -975.00455    149930.98   -47458.414    4043.1935   -51501.607   0.16582695 
    9000    297.68343   -1021.4125    149946.86   -47378.236    4087.9651   -51466.201   0.15858247 
    9100    294.76483   -1010.6471    149953.25   -47433.013     4047.885   -51480.898   0.15408951 
    9200    298.52647   -968.32181    149957.33   -47318.831    4099.5422   -51418.373   0.16986408 
    9300    293.91756   -1002.5942    149939.49    -47478.51      4036.25    -51514.76   0.15136289 
    9400    293.85996   -1014.3612    149924.31   -47436.285    4035.4589   -51471.744   0.16428038 
    9500      291.911   -1030.6979    149930.13   -47484.034    4008.6947   -51492.729   0.15996664 
    9600    288.10289    -1002.263    149906.87   -47473.969    3956.3994   -51430.368   0.15786275 
    9700    297.42619   -976.31399    149917.16    -47343.68    4084.4325   -51428.113   0.15974366 
    9800    301.76801   -988.89368    149962.37   -47298.372    4144.0569   -51442.428   0.16478995 
    9900    293.38902   -972.71951    149944.21   -47325.893    4028.9916   -51354.885    0.1635085 
   10000    297.86032   -975.39788     149953.3   -47387.014    4090.3942   -51477.408   0.15760769 
   10100    301.39238   -970.60025    149961.76   -47341.065    4138.8986   -51479.964   0.15818613 
   10200    297.42421   -972.23309    149952.93    -47307.93    4084.4054   -51392.336   0.16379764 
   10300    295.78277    -1021.104    149949.12   -47311.377    4061.8641   -51373.241   0.16335288 
   10400    295.90144    -1010.852     149951.5   -47313.447    4063.4937   -51376.941   0.17086679 
   10500    299.95086   -1000.7073    149934.93   -47363.935    4119.1028   -51483.038   0.15401255 
   10600      294.836   -994.62265    149924.24   -47389.087    4048.8624    -51437.95   0.16062362 
   10700    295.59356   -990.67878    149918.73   -47405.753    4059.2658   -51465.019   0.15733485 
   10800    290.32252   -992.41554    149892.78   -47544.947    3986.8806   -51531.827   0.15164437 
   10900    290.22816   -990.39218    149873.83   -47529.204    3985.5849   -51514.789   0.16864728 
   11000     292.0175   -964.99332    149907.44    -47540.87    4010.1571   -51551.027   0.15378459 
   11100    291.41168   -1008.4555    149916.35   -47442.918    4001.8377   -51444.755   0.15680556 
   11200    287.82716   -1000.3225    149902.71   -47553.089    3952.6129   -51505.702   0.16276183 
   11300    291.90827   -970.55935    149916.24   -47467.719    4008.6571   -51476.377   0.15046698 
   11400    292.88246   -1002.1918    149908.23   -47446.786    4022.0352   -51468.822   0.16600878 
   11500    295.58025   -957.35475    149945.85   -47343.045     4059.083   -51402.128   0.15691825 
   11600    299.50606   -1007.6894    149963.37   -47344.731    4112.9945   -51457.726   0.16408333 
   11700    301.91285   -998.35717    149974.16    -47207.55     4146.046   -51353.596   0.15980668 
   11800    299.08778   -1000.7844    149969.13   -47282.616    4107.2505   -51389.867   0.16544754 
   11900    293.63257   -1011.4735    149951.74   -47333.171    4032.3362   -51365.507   0.16623941 
   12000    298.45298   -986.77155    149986.77   -47299.621     4098.533   -51398.154   0.15672889 
   12100    294.87821   -1004.6697    149952.21   -47351.611    4049.4421   -51401.053   0.16789331 
   12200     295.6835    -1044.428    149948.12   -47358.766    4060.5008   -51419.267   0.15645089 
   12300    291.12045    -1040.013    149918.28   -47409.173    3997.8384   -51407.012   0.16989036 
   12400     294.9513   -982.50436    149903.16   -47395.521    4050.4458   -51445.967   0.16167391 
   12500    296.31401   -995.16279    149940.52   -47326.278    4069.1593   -51395.437    0.1625207 
   12600    299.08931   -996.78332    149945.07   -47284.309    4107.2714    -51391.58   0.16526043 
   12700    298.35075   -981.76048    149935.81   -47362.288    4097.1291   -51459.417   0.15986383 
   12800    295.94497   -993.40596     149944.9   -47350.347    4064.0915   -51414.439   0.15566569 
   12900    297.34879   -1023.4417    149894.88   -47416.959    4083.3695   -51500.328   0.16665082 
   13000    295.91362   -1014.9275    149928.77   -47388.966     4063.661   -51452.627   0.15744305 
   13100    295.45022   -1022.5185    149900.68    -47465.75    4057.2973   -51523.048   0.16408688 
   13200    287.33218   -1046.8946    149909.51   -47500.039    3945.8155   -51445.855   0.15878528 
   13300    289.24843   -1006.8184    149886.47   -47584.211    3972.1306   -51556.342   0.15947286 
   13400    288.84459   -1014.8428     149855.5   -47563.528    3966.5849   -51530.113   0.15966025 
   13500    296.53302   -1037.5138    149884.33   -47479.326     4072.167   -51551.493   0.16422414 
   13600    296.16197    -1027.316    149908.65   -47421.292    4067.0714   -51488.363   0.16602012 
   13700    293.83572   -1000.7943    149897.67   -47453.978     4035.126   -51489.104   0.15325306 
   13800    298.28968   -1026.3465    149918.99   -47397.822    4096.2904   -51494.112   0.16835189 
   13900    296.83783   -985.90796    149919.86   -47386.789    4076.3528   -51463.142   0.15084939 
   14000    298.55781   -997.17058    149957.01   -47275.189    4099.9725   -51375.161    0.1683675 
   14100    296.62796   -1015.6659    149970.21   -47361.413    4073.4708   -51434.884   0.16527859 
   14200    293.82947   -994.54097    149961.86   -47376.172    4035.0402   -51411.212   0.15807777 
   14300    298.00497   -1024.7816    149946.89   -47410.894    4092.3806   -51503.275   0.16519573 
   14400    294.63391   -1010.5998    149927.34   -47465.698    4046.0872   -51511.785     0.157209 
   14500    295.48063   -1012.7723    149905.51   -47486.078    4057.7149   -51543.793   0.15780803 
   14600    294.85482   -1037.7622    149921.45     -47437.9    4049.1209   -51487.021   0.16274725 
   14700    293.09554    -1006.574    149930.51   -47386.048    4024.9615   -51411.009   0.16166733 
   14800    296.09908   -981.89965    149955.17   -47359.012    4066.2079    -51425.22   0.16563252 
   14900    293.39006   -1017.3894    149981.22   -47377.359     4029.006   -51406.365   0.16122238 
   15000    293.68547   -1010.2713    149973.43   -47439.401    4033.0627   -51472.464   0.16495127 
   15100    295.17143   -1044.1318    149952.83   -47456.857    4053.4688   -51510.325   0.15733372 
   15200    292.77941   -992.42541    149974.09   -47386.721    4020.6202   -51407.341   0.16422798 
   15300     294.5027   -948.13141    149968.98   -47473.867    4044.2853   -51518.152   0.15650903 
   15400    297.82543   -968.39478    149948.89   -47468.782     4089.915   -51558.697   0.15082001 
   15500    291.81419   -1039.5071    149937.88   -47397.127    4007.3652   -51404.492   0.16866751 
   15600    300.87282   -961.63075    149970.65   -47274.302    4131.7637   -51406.066   0.16420752 
   15700    299.62426   -1026.8777    149972.66   -47289.199    4114.6177   -51403.816    0.1591765 
   15800    300.79943   -987.77155    149998.79   -47296.268    4130.7558   -51427.024   0.16925374 
   15900    297.87143    -1004.071    149987.65   -47318.664    4090.5468   -51409.211   0.15619993 
   16000     294.3376   -983.80773    149967.76   -47362.109    4042.0182   -51404.127   0.16041504 
   16100    297.39627   -1012.7924    149953.54   -47396.711    4084.0216   -51480.733   0.15919093 
   16200    298.99974   -989.93941    149977.41   -47408.843    4106.0414   -51514.885   0.15419184 
   16300    291.96685   -994.28967    149950.83   -47424.765    4009.4616   -51434.226   0.16625535 
   16400    293.02347   -1024.2471    149953.78    -47436.69    4023.9717   -51460.662   0.15311081 
   16500    299.74246   -1008.9312    149969.95   -47353.996    4116.2409   -51470.237   0.16284911 
   16600    298.26462   -998.94063    149984.58   -47280.258    4095.9463   -51376.204   0.15907949 
   16700     301.1353    -1010.092    149975.73   -47319.538    4135.3682   -51454.906   0.17016712 
   16800      298.089   -993.30534    149969.45   -47375.994    4093.5346   -51469.529   0.15364829 
   16900    295.38893   -1021.6117    149973.36   -47402.421    4056.4556   -51458.877   0.16150389 
   17000    289.70284   -995.22108    149949.55   -47444.833    3978.3709   -51423.204   0.15808534 
   17100    301.75774    -1007.079    149956.01   -47399.725    4143.9159   -51543.641   0.15316117 
   17200    297.57491   -1028.7141    149938.72   -47463.455    4086.4747    -51549.93   0.15972251 
   17300    291.61073   -1019.1475    149900.83   -47558.495    4004.5712   -51563.066   0.15980609 
   17400    291.67812   -967.08744    149914.42   -47548.158    4005.4967   -51553.654   0.15075984 
   17500    291.00303   -992.24723    149930.72   -47438.591    3996.2259   -51434.817   0.16508483 
   17600    296.05573   -1008.5312    149931.38   -47451.634    4065.6125   -51517.246   0.15749136 
   17700    293.79526   -1007.3307     149922.4    -47513.36    4034.5705    -51547.93   0.15688803 
   17800    293.63217   -993.47901    149921.83   -47457.865    4032.3307   -51490.195   0.16556594 
   17900    297.16496   -1006.9784    149976.98   -47409.193    4080.8451   -51490.038   0.15116524 
   18000    295.11571   -1029.6654    149971.83   -47308.936    4052.7036    -51361.64   0.16847398 
   18100    298.88962   -1061.4263    149992.46   -47322.835    4104.5291   -51427.365   0.16619026 
   18200    297.46798   -1042.5364    149972.23   -47369.511    4085.0064   -51454.517   0.16276214 
   18300     296.7327   -1028.3744    149967.89   -47369.384     4074.909   -51444.293    0.1649235 
   18400    292.79305   -1001.7853    149959.55    -47472.88    4020.8075   -51493.688   0.15734787 
   18500    298.02403   -994.07411    149953.72   -47408.067    4092.6424   -51500.709   0.15493514 
   18600    298.35716   -1011.9465    149993.46   -47361.441    4097.2172   -51458.658   0.15873051 
   18700    299.61446   -984.04548    149968.74   -47375.098    4114.4832   -51489.581   0.15892349 
   18800    295.43108   -1021.3718    149964.51   -47397.544    4057.0345   -51454.579   0.15920603 
   18900    293.36303   -994.32709    149968.47   -47354.576    4028.6348   -51383.211   0.16611303 
   19000    296.01395   -995.53065    149978.44   -47383.404    4065.0388   -51448.442   0.15901474 
   19100    299.36178   -994.70814    150002.12   -47300.031    4111.0131   -51411.044   0.15909232 
   19200    298.15862   -1013.9794    149988.07   -47327.214    4094.4906   -51421.705   0.16936197 
   19300    299.35605    -963.3734    150020.96   -47215.198    4110.9344   -51326.132   0.15781468 
   19400      296.123   -984.72673    150022.57   -47282.643    4066.5363   -51349.179   0.16701375 
   19500    295.16298   -995.55947    150018.37   -47278.948    4053.3528   -51332.301   0.16259819 
   19600     298.7223   -1037.3516    150031.17   -47282.628    4102.2315    -51384.86   0.16567072 
   19700    293.06683    -1048.262     150000.6   -47332.539    4024.5671   -51357.106   0.16164409 
   19800    300.80199   -990.88075    149998.76   -47282.923     4130.791   -51413.714   0.16504024 
   19900    297.61494   -1009.7712    150013.09   -47370.159    4087.0246   -51457.184   0.15916777 
   20000    295.71007   -1018.0001    149968.84   -47394.986    4060.8657   -51455.852   0.16152786 
   20100    294.06434    -949.9924    149968.49   -47436.645    4038.2656   -51474.911   0.15891061 
   20200    294.04581   -1010.7748    149955.94   -47409.536    4038.0112   -51447.547   0.15800382 
   20300    295.84343   -1027.5108    149961.66   -47375.715    4062.6971   -51438.412   0.16484999 
   20400    293.50716   -1022.8999     149956.5   -47438.434     4030.614   -51469.048   0.16204141 
   20500    292.23538   -996.55922    149938.12   -47476.374    4013.1491   -51489.523   0.16134781 
   20600    289.95075   -1001.7053    149948.04   -47499.441    3981.7754   -51481.217   0.15966067 
   20700    290.50639   -990.71141       149944   -47428.443    3989.4057   -51417.849   0.16448714 
   20800    301.23896   -942.43929    150013.31   -47295.116    4136.7916   -51431.907   0.15472959 
   20900    295.89576   -973.42154    149986.78   -47401.336    4063.4157   -51464.751    0.1680324 
   21000    297.33979   -959.35695    149987.16    -47419.65     4083.246   -51502.896   0.15137007 
   21100    295.92331   -1024.4336    150022.39   -47299.249    4063.7941   -51363.043   0.16936451 
   21200    298.52926   -998.14304    150017.59   -47317.022    4099.5805   -51416.603   0.16215672 
   21300    297.24297   -1022.6807    150014.11    -47312.24    4081.9164   -51394.156    0.1612539 
   21400    297.69388   -971.01338    149978.54   -47345.565    4088.1086   -51433.674   0.15979846 
   21500    299.86102   -993.89676    149982.06   -47249.332     4117.869   -51367.201    0.1629572 
   21600    297.42024    -989.6201    149999.25   -47255.609    4084.3508    -51339.96   0.16864188 
   21700    294.31975   -1019.2669    150004.89   -47395.657    4041.7731    -51437.43   0.15917693 
   21800    292.89847   -1037.8672    149988.62   -47430.058    4022.2551   -51452.313   0.16108365 
   21900    294.51383   -994.60116    149990.07   -47400.254    4044.4382   -51444.692   0.16128275 
   22000    293.99861    -999.9381    149991.78   -47442.034    4037.3629   -51479.397   0.15631953 
   22100    289.85746   -982.47857    149972.37   -47477.994    3980.4941   -51458.488   0.16189571 
   22200    286.93859   -1021.7505    149940.75   -47561.758    3940.4106   -51502.168   0.15915684 
   22300     299.2589   -1003.7685    149968.68   -47453.627    4109.6003   -51563.228   0.15707462 
   22400    291.66441   -1009.6275    149967.38   -47394.583    4005.3083   -51399.891   0.16636177 
   22500     291.8082   -1045.5328    149987.03   -47350.211     4007.283   -51357.494   0.16111758 
   22600    296.14112   -997.17455    149953.59   -47385.504    4066.7852   -51452.289   0.16415274 
   22700    300.74564   -954.45258    149958.72    -47448.23    4130.0171   -51578.247   0.15720355 
   22800    301.31748   -961.44962    149974.96   -47372.399    4137.8699   -51510.269   0.15591667 
   22900    296.88688   -929.07838    149958.25   -47397.624    4077.0263    -51474.65   0.15972188 
   23000    296.47827   -990.84877    149952.38   -47481.547    4071.4151   -51552.962   0.15698075 
   23100    295.32173   -995.58467    149935.11   -47412.868    4055.5327   -51468.401   0.15922671 
   23200    292.41365   -1018.3384     149957.4   -47362.969    4015.5973   -51378.567   0.16895914 
   23300    298.55891   -991.76905       149953   -47360.504    4099.9876   -51460.491   0.15955864 
   23400    292.78187   -995.24652    149946.44   -47405.571    4020.6539   -51426.225   0.16271366 
   23500    300.83826   -987.73227    149973.23   -47297.988    4131.2891   -51429.278   0.16254238 
   23600    295.61944   -1023.3978    149953.37   -47308.919    4059.6211    -51368.54   0.16680954 
   23700    295.43351    -1035.267    149963.28   -47305.665    4057.0678   -51362.732    0.1632672 
   23800    297.87812   -968.94178    149951.34   -47311.677    4090.6387   -51402.316   0.16641288 
   23900    297.00152   -1005.7578    149936.64   -47406.819    4078.6006    -51485.42   0.15988866 
   24000    296.05206   -1022.0846    149945.82   -47353.663    4065.5622   -51419.225   0.16203778 
   24100    302.21711   -968.04798    149946.35   -47273.253    4150.2242   -51423.477   0.16635637 
   24200    294.14898   -994.72189     149947.2   -47409.075    4039.4279   -51448.503   0.16196257 
   24300    294.86511   -966.41071    149935.51   -47450.415    4049.2623   -51499.677   0.15619926 
   24400     293.2761   -1001.0067    149924.84   -47474.223     4027.441   -51501.664   0.16167518 
   24500    291.00325   -1009.5948    149933.16   -47422.869    3996.2289   -51419.098   0.15814055 
   24600    285.87152   -992.44349     149906.8   -47472.661    3925.7569   -51398.417   0.15803089 
   24700    295.37472    -967.0377    149930.66   -47471.073    4056.2605   -51527.333   0.16180262 
   24800    295.23835   -994.70896    149921.39   -47411.826    4054.3877   -51466.214   0.15863023 
   24900    293.65729   -989.38576    149923.83   -47470.051    4032.6757   -51502.727    0.1646576 
   25000     295.9043   -979.09576     149917.9   -47460.063     4063.533   -51523.596   0.15564681 
   25100    288.36993   -972.81874    149908.12   -47513.911    3960.0665   -51473.977   0.15637727 
   25200    288.22067   -1006.2521       149889   -47652.039    3958.0168   -51610.056   0.15395694 
   25300     292.0432   -981.91403    149889.79   -47480.022    4010.5101   -51490.533   0.15848105 
   25400    293.42068   -1003.4987    149903.04   -47526.953    4029.4265   -51556.379   0.15579144 
   25500    295.34462   -983.10357    149930.76   -47409.821    4055.8471   -51465.669   0.16560801 
   25600    297.31932   -978.65553    149975.95   -47327.963    4082.9649   -51410.928   0.15431362 
   25700     294.4953   -1040.0455    149943.02   -47425.768    4044.1838   -51469.952   0.16242836 
   25800     299.6056   -996.96959    149938.63    -47267.67    4114.3615   -51382.032   0.16435239 
   25900    298.16713   -977.89935    149959.26   -47293.455    4094.6075   -51388.063    0.1597838 
   26000    294.06387    -1002.781    149937.04   -47345.964    4038.2592   -51384.223   0.16389737 
   26100    297.62773   -975.39099    149935.45   -47324.227    4087.2001   -51411.427   0.15944183 
   26200     293.9522   -1017.0214    149912.93   -47443.489    4036.7256   -51480.214   0.16374255 
   26300    294.52136   -988.19252     149911.6   -47395.311    4044.5416   -51439.853   0.15859826 
   26400     292.2403   -996.87106    149908.66   -47457.098    4013.2168   -51470.315   0.16273523 
   26500    295.85264   -1020.5558    149929.94     -47369.3    4062.8236   -51432.123   0.16176719 
   26600    300.54679   -980.70106    149945.69   -47307.907    4127.2864   -51435.193   0.15856058 
   26700     299.3671   -1026.8944    149984.36   -47317.245    4111.0862   -51428.331   0.16288626 
   26800     299.5127   -998.33206    149942.53   -47365.476    4113.0857   -51478.562   0.15741669 
   26900    291.03482   -997.18547    149946.55   -47299.722    3996.6624   -51296.385   0.16735006 
   27000    299.09799   -1021.4778    149983.52   -47335.333    4107.3907   -51442.724   0.16291236 
   27100    298.74426   -990.21287    149989.14   -47281.165    4102.5331   -51383.698   0.15705121 
   27200     295.3676   -1015.3995    149966.22   -47352.258    4056.1628    -51408.42   0.16466921 
   27300     302.1818    -969.0344     149966.4   -47175.762    4149.7393   -51325.501   0.16501975 
   27400    296.09422   -1023.4539    149952.05   -47304.008    4066.1411   -51370.149    0.1656336 
   27500    291.93405     -1016.98    149936.18   -47421.885    4009.0111   -51430.897   0.16713965 
   27600    288.75776     -1036.07    149904.62   -47470.566    3965.3925   -51435.959   0.16114442 
   27700    297.44371   -1032.8133     149959.9   -47362.684    4084.6731   -51447.357   0.15965172 
   27800    295.56349   -1002.5071    149968.68   -47339.442    4058.8527   -51398.294   0.16689379 
   27900    292.90038    -986.3314    149956.84   -47401.335    4022.2814   -51423.616   0.15555558 
   28000     290.0887   -1021.0027    149942.79    -47476.74    3983.6698    -51460.41   0.16925524 
   28100    293.20093   -991.76402    149936.94   -47453.355    4026.4088   -51479.764    0.1569422 
   28200    295.38934   -1025.9942     149942.8   -47427.886    4056.4613   -51484.348   0.16279082 
   28300    297.32571   -996.24367    149922.36   -47438.709    4083.0527   -51521.761   0.15667689 
   28400    298.66566   -966.31804    149954.01   -47373.691    4101.4537   -51475.145   0.15930186 
   28500    298.89422   -974.56745     149949.8   -47401.944    4104.5924   -51506.536   0.15949331 
   28600    299.19443   -998.82255    149937.99   -47411.281     4108.715   -51519.996   0.15532615 
   28700    298.42324   -973.44824    149933.54   -47406.151    4098.1245   -51504.275   0.16588897 
   28800    289.50679    -1026.041    149919.23   -47451.531    3975.6786   -51427.209   0.16198057 
   28900    292.36995   -1000.4096    149908.23   -47421.146    4014.9972   -51436.144    0.1630623 
   29000    296.90056    -959.6692    149902.92   -47360.857    4077.2142   -51438.071   0.16630487 
   29100    291.08593   -1016.6961    149904.56   -47359.664    3997.3643   -51357.028   0.16804481 
   29200    300.47512   -992.33428    149942.38   -47291.524    4126.3022   -51417.826   0.15958617 
   29300    300.14619   -978.43398    149943.67    -47297.53    4121.7852   -51419.315   0.17165749 
   29400    294.33585    -1016.425    149932.53    -47309.45    4041.9941   -51351.444    0.1598304 
   29500    300.14257   -980.64171    149931.61    -47357.78    4121.7354   -51479.515   0.16772387 
   29600    296.24022   -981.35298    149961.37   -47326.006    4068.1461   -51394.152   0.16074129 
   29700    293.78556   -977.27063    149943.73   -47403.058    4034.4372   -51437.495   0.15381624 
   29800    290.26201   -1022.3192    149898.33   -47499.583    3986.0498   -51485.633   0.16543581 
   29900    295.02195   -1018.1018    149912.56   -47479.279     4051.416   -51530.695   0.15347884 
   30000    295.79564   -952.77492    149901.35   -47437.756    4062.0408   -51499.797   0.15842506 
   30100    295.03918   -996.83559    149928.79   -47410.342    4051.6527   -51461.995    0.1606878 
   30200    294.90764   -933.17239    149946.01   -47418.162    4049.8463   -51468.009   0.15575738 
   30300    294.51128   -972.33672    149948.36   -47407.705    4044.4032   -51452.108   0.15656428 
   30400    293.61104    -1003.262    149952.62   -47446.776    4032.0406   -51478.817   0.15913022 
   30500    289.36813    -1002.111    149888.21   -47543.682    3973.7745   -51517.457   0.15413444 
   30600    291.80902   -940.09847    149924.94   -47418.036    4007.2942    -51425.33   0.15803474 
   30700    291.51139   -981.24757    149922.24   -47447.692    4003.2069   -51450.899   0.16133602 
   30800    296.14071   -957.05358    149934.38   -47380.088    4066.7796   -51446.867   0.15661268 
   30900    298.81841   -963.06312    149968.12   -47357.346    4103.5512   -51460.897   0.15452365 
   31000    294.73286   -993.13344    149955.87   -47396.835    4047.4461   -51444.281   0.16063955 
   31100     296.5056   -992.17121    149930.02   -47403.895    4071.7904   -51475.686   0.15789044 
   31200    295.75527   -1014.7072    149937.66    -47346.34    4061.4865   -51407.826   0.16120203 
   31300    300.58753   -1022.4138    149947.38   -47283.402    4127.8458   -51411.248   0.16939208 
   31400    290.12396   -972.91787    149949.17     -47404.8    3984.1539   -51388.954   0.15547817 
   31500     296.5937    -985.6396    149929.58   -47351.127    4073.0003   -51424.128   0.15993201 
   31600    296.04692   -1019.8131    149943.01    -47377.15    4065.4916   -51442.641    0.1647876 
   31700    300.29628   -994.44132    149954.49   -47342.716    4123.8462   -51466.562   0.15285231 
   31800    295.41125   -1040.6029    149949.75   -47411.522    4056.7622   -51468.284   0.16982582 
   31900    298.78477   -959.74105    149935.51   -47400.001    4103.0893    -51503.09   0.15251597 
   32000    295.34385   -1000.0164    149951.98   -47351.888    4055.8366   -51407.725   0.16361353 
   32100    293.49111   -964.12291       149981   -47395.275    4030.3937   -51425.668   0.15809467 
   32200    287.52976   -1026.1609    149948.71   -47513.496    3948.5289   -51462.025   0.15629783 
   32300    292.10887   -993.31952    149959.29   -47462.893    4011.4119   -51474.305    0.1555644 
   32400    288.18044   -1012.9225    149946.38   -47552.001    3957.4644   -51509.465   0.15940031 
   32500    298.56959   -994.98471    149963.87   -47408.539    4100.1343   -51508.673   0.15057857 
   32600    295.75966   -971.47144    149972.82   -47366.117    4061.5468   -51427.664   0.16119306 
   32700    290.27155   -977.39094    149965.95   -47451.882    3986.1807   -51438.063   0.15977149 
   32800     297.5894   -1015.4291    150000.77   -47322.911    4086.6737   -51409.585   0.15958474 
   32900    293.15679   -981.40468     149974.5   -47389.669    4025.8026   -51415.472   0.16010322 
   33000    299.48254   -994.59226    149989.53   -47385.081    4112.6715   -51497.753   0.15621561 
   33100    295.96208   -997.94714    149976.59   -47418.785    4064.3265   -51483.112   0.16271394 
   33200    299.69361   -956.83637    149969.57   -47390.442    4115.5701   -51506.012   0.14918181 
   33300    292.15953   -1000.9105    149962.97   -47394.641    4012.1076   -51406.748   0.16796686 
   33400    293.81567   -1012.4565    149962.78   -47414.619    4034.8507    -51449.47   0.15432043 
   33500    293.71948   -1017.2536    149942.34   -47436.315    4033.5298   -51469.845   0.16383322 
   33600    294.55216   -1015.1584    149961.25   -47452.811    4044.9646   -51497.776   0.16086883 
   33700    299.37498   -972.33529     149968.1   -47345.407    4111.1944   -51456.601     0.158206 
   33800     299.0222   -978.12155     149995.2   -47237.464    4106.3498   -51343.814   0.16826184 
   33900     302.0329   -1009.5103    150010.05    -47268.83    4147.6946   -51416.525   0.15879264 
   34000    295.59477   -1010.0575    149963.42   -47412.813    4059.2824   -51472.096   0.15762483 
   34100      289.419   -1027.5463    149955.01   -47433.733    3974.4731   -51408.206   0.16328372 
   34200    296.36263   -987.24834    149944.15   -47430.966    4069.8271   -51500.793   0.15420895 
   34300    295.53502   -980.54979    149955.53   -47465.752    4058.4618   -51524.214   0.15637096 
   34400    294.75809   -997.80803    149957.46   -47384.233    4047.7926   -51432.026   0.16639201 
   34500    297.07234   -1022.1665    149972.77   -47309.853    4079.5732   -51389.426   0.16145982 
   34600    294.65745   -1040.3202    150008.45   -47300.079    4046.4105   -51346.489   0.16338979 
   34700    291.24256   -1001.8943    149984.23   -47417.108    3999.5152   -51416.623   0.15900158 
   34800    295.44831   -1012.0487    149980.52   -47419.311    4057.2711   -51476.582    0.1554282 
   34900    300.52196    -1023.465    149976.44   -47397.684    4126.9454    -51524.63   0.15816787 
   35000    293.10505   -982.21158    149985.54   -47375.685    4025.0921   -51400.777   0.15739464 
   35100    292.72566   -989.64251    149995.46   -47393.139     4019.882   -51413.021   0.16062702 
   35200     297.4025   -993.12176    150001.69   -47333.898    4084.1072   -51418.005   0.15720212 
   35300     298.4309   -1044.5044    149992.72   -47419.781    4098.2298    -51518.01   0.16229135 
   35400    298.95532   -992.34177    150004.02   -47423.646    4105.4314   -51529.077   0.15162388 
   35500    292.22564   -1022.6283    149956.35   -47405.627    4013.0154   -51418.642   0.16415647 
   35600    295.43438   -1010.2318    149972.21   -47377.741    4057.0797    -51434.82   0.15867406 
   35700    294.05296    -1004.656     149982.5   -47392.116    4038.1093   -51430.226   0.15411867 
   35800    301.08832   -997.83113    150011.76   -47220.366     4134.723   -51355.089   0.16612763 
   35900    297.78101   -944.27855    149993.16   -47339.347    4089.3051   -51428.652   0.16020268 
   36000    294.00356   -972.11876     149973.4   -47393.214    4037.4309   -51430.645   0.15715387 
   36100    294.60192   -1010.3824    149966.78   -47441.461     4045.648   -51487.109   0.15643528 
   36200    294.25759   -1001.4455    149965.22   -47477.102    4040.9195   -51518.021   0.15939098 
   36300    292.28565   -1006.1283    149977.94   -47408.956    4013.8395   -51422.795   0.15087694 
   36400    290.29655   -973.87553    149945.29   -47462.052     3986.524   -51448.577   0.16539699 
   36500    291.59339   -1019.4858    149943.54   -47436.376    4004.3331   -51440.709    0.1569718 
   36600    294.04922    -992.3589    149944.39   -47433.422    4038.0579    -51471.48   0.16073818 
   36700    291.00213   -998.22732    149953.14   -47472.374    3996.2134   -51468.587   0.16187533 
   36800    289.68442   -1002.5282     149932.1   -47548.764    3978.1179   -51526.882   0.15427601 
   36900    292.02352    -1005.976    149943.84    -47462.33    4010.2399    -51472.57   0.15788304 
   37000     292.1156   -1020.0623    149944.21   -47451.323    4011.5043   -51462.827   0.16084894 
   37100    290.42801   -968.08988    149927.73   -47492.066    3988.3294   -51480.395   0.15347344 
   37200    292.67616   -1022.4982     149935.2   -47504.935    4019.2022   -51524.138   0.15591262 
   37300    295.31798   -990.54998    149915.91   -47495.548    4055.4813   -51551.029   0.15657381 
   37400    290.89494   -978.00403    149903.38   -47502.193    3994.7415   -51496.934    0.1502438 
   37500    294.93303   -1017.9329    149896.72   -47475.274     4050.195   -51525.469   0.16008058 
   37600    292.90292   -973.68183    149876.82   -47521.245    4022.3163   -51543.562   0.15415095 
   37700    286.98019   -1007.4342    149850.81   -47605.036    3940.9819   -51546.018   0.15884728 
   37800    285.19981   -1007.3882    149846.19   -47620.181    3916.5326   -51536.713   0.15379485 
   37900    287.10684   -1034.3158    149890.55   -47526.785    3942.7211   -51469.506   0.16223328 
   38000    290.83647   -993.72918    149897.53   -47456.831    3993.9386    -51450.77   0.15414365 
   38100    295.32175    -1011.985    149914.52    -47394.32    4055.5331   -51449.853   0.16166769 
   38200    297.02355   -981.88971    149930.38   -47362.785    4078.9032   -51441.689   0.16269213 
   38300    291.71874   -996.39968    149931.67   -47413.996    4006.0545   -51420.051   0.15066524 
   38400    295.83782   -971.19606     149929.4   -47344.265    4062.6201   -51406.885   0.16500798 
   38500    292.67308   -1027.5096    149913.75   -47404.618      4019.16   -51423.778   0.15711286 
   38600    297.74938    -966.5507    149915.26   -47366.309    4088.8707   -51455.179   0.15623833 
   38700    298.08211   -949.62513    149958.85   -47326.587      4093.44   -51420.027   0.16642075 
   38800    295.19804   -986.97087     149945.2    -47367.13    4053.8342   -51420.964   0.15257202 
   38900    296.23357   -1028.5821    149966.09   -47306.837    4068.0548   -51374.891   0.16162438 
   39000    296.67603   -982.60689    149950.34   -47368.133    4074.1309   -51442.264   0.16394209 
   39100    291.88507   -1005.9884    149938.17   -47391.054    4008.3386   -51399.393   0.15706975 
   39200    286.91507   -1053.0432    149929.49   -47523.523    3940.0876   -51463.611   0.16102845 
   39300    289.17245   -1032.6025    149890.12   -47528.697    3971.0873   -51499.784   0.15922402 
   39400    294.06865   -995.39096    149926.78   -47405.744    4038.3248   -51444.069   0.15841509 
   39500    295.98978   -972.91504    149946.28   -47392.414    4064.7068   -51457.121   0.15994202 
   39600    295.32554   -999.90326    149923.51   -47383.952    4055.5851   -51439.537   0.15466117 
   39700    299.93166   -993.22285    149957.21   -47372.588    4118.8391   -51491.427   0.15762377 
   39800    294.10088   -1011.3186     149930.9   -47387.968    4038.7674   -51426.736   0.16383642 
   39900    298.07717    -1017.454    149953.76   -47353.823    4093.3721   -51447.195   0.15883135 
   40000    290.60274   -1000.3002    149956.42   -47424.335    3990.7289   -51415.064   0.15732441 
   40100    294.55767   -1002.9337    149940.03   -47436.149    4045.0403    -51481.19   0.15726549 
   40200    292.24573    -1019.049    149946.86   -47411.995    4013.2913   -51425.286   0.16216865 
   40300    296.94203   -960.24605    149931.31   -47424.222    4077.7837   -51502.006   0.14994585 
   40400    288.20149   -1016.5314     149909.6   -47509.435    3957.7535   -51467.188   0.16417966 
   40500    291.91913   -1006.1863    149926.35   -47364.729    4008.8063   -51373.535   0.15994577 
   40600    291.63409   -1065.7302    149916.91   -47443.691     4004.892   -51448.583   0.16218691 
   40700    295.68497    -994.0586    149903.95   -47439.259     4060.521    -51499.78   0.16060482 
   40800    294.91651   -1021.6823    149929.91   -47416.461    4049.9681   -51466.429   0.15736923 
   40900    293.79501   -1015.9322    149925.54   -47402.751     4034.567   -51437.318   0.16112569 
   41000      292.828   -983.15456    149911.41   -47467.779    4021.2875   -51489.066   0.16117602 
   41100    295.46823   -965.65749    149894.09    -47438.05    4057.5447   -51495.594   0.15708168 
   41200    297.11631   -968.34174    149928.55   -47324.804    4080.1771   -51404.981   0.16509815 
   41300    294.62703   -989.11243    149920.14   -47409.641    4045.9927   -51455.633    0.1628652 
   41400    295.95207   -979.80198    149926.64   -47353.149     4064.189   -51417.338   0.16019863 
   41500     291.7839   -1029.3545    149918.14   -47363.161    4006.9492    -51370.11   0.17029427 
   41600     296.5711   -983.91099    149921.29    -47374.14    4072.6899   -51446.829   0.15807004 
   41700    289.66395   -996.64725    149894.76   -47487.947    3977.8368   -51465.784   0.16236735 
   41800    297.20107   -978.51733    149910.65   -47398.938     4081.341   -51480.279   0.15882197 
   41900    295.42029   -983.31765    149902.15   -47482.814    4056.8863     -51539.7   0.16195929 
   42000    292.49049   -966.61915    149889.42   -47448.121    4016.6525   -51464.773   0.15754413 
   42100    291.73928    -998.3753    149873.88   -47527.983    4006.3365   -51534.319   0.16178106 
   42200    287.52519   -984.43423    149879.88   -47483.809    3948.4661   -51432.275   0.16198208 
   42300    288.04373   -1012.5923    149910.45   -47450.273     3955.587    -51405.86   0.16387019 
   42400    298.07109   -1019.9407    149903.67   -47476.029    4093.2886   -51569.317   0.16420331 
   42500    295.79966   -995.47072    149920.69   -47430.534    4062.0961    -51492.63   0.15828653 
   42600    291.48502   -1021.5633    149924.81   -47471.088    4002.8449   -51473.933   0.16089655 
   42700    292.97633   -985.58404     149920.3   -47543.523    4023.3244   -51566.848   0.15080393 
   42800    297.23396   -957.82941    149913.99   -47455.777    4081.7927    -51537.57   0.15608378 
   42900    292.72615   -969.68298    149904.66   -47471.747    4019.8887   -51491.635   0.15399935 
   43000    287.33719   -1021.3395    149898.36    -47493.21    3945.8843   -51439.095   0.16346545 
   43100    293.40265   -1033.8306    149923.62   -47419.995    4029.1788   -51449.174   0.16455705 
   43200    298.26441    -977.9946    149897.59    -47430.04    4095.9434   -51525.984    0.1544493 
   43300    296.72817   -981.28142    149881.62   -47424.493    4074.8468   -51499.339   0.16475206 
   43400    296.31833   -981.84669    149919.53   -47353.999    4069.2188   -51423.217   0.15866004 
   43500    295.39196   -974.82962    149911.43   -47405.804    4056.4973   -51462.302   0.16180757 
   43600    290.69949   -1039.8119     149914.4   -47454.207    3992.0574   -51446.264   0.16670165 
   43700    293.82668   -1016.1821     149886.2   -47494.263    4035.0019   -51529.265   0.15916715 
   43800    294.59359   -1003.6989    149879.27   -47535.692    4045.5335   -51581.226   0.15970979 
   43900    293.96214   -999.31467    149888.27   -47443.439     4036.862   -51480.301   0.16010017 
   44000    293.13318   -985.47303     149870.3   -47530.276    4025.4783   -51555.754   0.15459977 
   44100    294.80761   -946.36867    149905.77   -47489.534    4048.4725   -51538.007   0.16036192 
   44200    290.07034   -989.17504    149921.36   -47449.268    3983.4176   -51432.685   0.15858683 
   44300     298.7654   -963.54106    149906.04   -47451.153    4102.8234   -51553.976   0.15780678 
   44400      293.958   -983.89415    149871.34   -47456.302    4036.8053   -51493.108   0.15984936 
   44500    290.92305   -1023.3525    149905.46   -47466.573    3995.1276     -51461.7   0.15757746 
   44600    288.88888   -1018.1338    149928.22   -47470.872    3967.1931   -51438.065   0.16353598 
   44700    295.39804   -963.73271     149939.7   -47456.477    4056.5808   -51513.058   0.15440711 
   44800     295.2675   -974.24853    149931.97   -47416.961    4054.7881   -51471.749   0.16424814 
   44900    297.28938   -965.27964    149943.32   -47401.165    4082.5538   -51483.719   0.15230122 
   45000    292.77848   -971.85888    149925.01   -47447.471    4020.6074   -51468.079   0.16224354 
   45100    296.64816   -1053.3809    149922.89   -47325.456    4073.7481   -51399.204   0.16675807 
   45200    293.90803   -1013.2807    149902.13   -47366.243     4036.119   -51402.362    0.1586637 
   45300    294.04064   -1034.9601    149902.14   -47389.834    4037.9401   -51427.774   0.16908171 
   45400    287.52455   -1036.7033    149891.26   -47454.096    3948.4573   -51402.554   0.15758387 
   45500     293.4193   -1000.2613     149906.7   -47389.889    4029.4075   -51419.296   0.16298155 
   45600    293.33492   -1029.0709    149920.25   -47384.221    4028.2487    -51412.47   0.16839798 
   45700    296.11762   -1017.9575    149934.18   -47341.031    4066.4625   -51407.494   0.16153248 
   45800    298.81566   -1016.5667    149913.82   -47416.586    4103.5135     -51520.1   0.16418271 
   45900    298.17146   -988.90662    149924.49   -47273.885     4094.667   -51368.552   0.16402929 
   46000    298.09586    -997.0911    149940.77   -47344.325    4093.6288   -51437.954   0.15685649 
   46100    303.22309   -1011.5008    149947.04   -47246.701     4164.039    -51410.74   0.16949599 
   46200    298.09086   -1006.8265    149950.04   -47303.651    4093.5601   -51397.211   0.16015092 
   46300    303.01317   -999.74073    149956.48   -47296.873    4161.1562   -51458.029   0.16135562 
   46400    299.56183   -954.43676    149913.93   -47334.747    4113.7604   -51448.507   0.15854911 
   46500    293.59609   -1049.8017    149949.94   -47306.741    4031.8352   -51338.576   0.16404206 
   46600    297.44531    -988.3521    149914.21   -47359.338     4084.695   -51444.033   0.16621566 
   46700    299.33523   -948.40969    149950.54   -47299.677    4110.6485   -51410.325   0.15963586 
   46800    293.13107   -1038.3578    149943.12   -47311.134    4025.4493   -51336.584    0.1672035 
   46900    294.30061   -969.18039    149932.26   -47362.601    4041.5102   -51404.111   0.15668508 
   47000    292.44304   -993.83744    149956.81   -47406.582    4016.0009   -51422.583   0.16214149 
   47100    298.60905   -1022.8558    149955.21   -47412.271    4100.6762   -51512.947   0.15563225 
   47200    285.63773   -982.82923    149954.51   -47375.906    3922.5464   -51298.453   0.15941129 
   47300    290.61972   -1004.8282    149955.56   -47501.812     3990.962   -51492.774   0.15828576 
   47400    290.71452   -1017.8282    149969.65    -47440.45    3992.2638   -51432.714   0.15291462 
   47500    291.32581   -982.93892    149964.46   -47446.057    4000.6584   -51446.716   0.16236994 
   47600    295.44561   -1011.3676    149974.86   -47442.832     4057.234   -51500.066   0.15832042 
   47700    299.01738   -1023.7089    149996.88   -47367.939    4106.2837   -51474.222   0.15652429 
   47800    297.26808     -1002.68    150001.48     -47426.4    4082.2612   -51508.661   0.15607007 
   47900    292.94826   -994.65061     149973.3   -47478.642    4022.9389   -51501.581   0.15451602 
   48000    291.87658   -1053.0736    149981.53    -47438.96    4008.2219   -51447.182   0.16181417 
   48100    293.85999   -983.64307    149945.33    -47475.99    4035.4593   -51511.449   0.15860557 
   48200     292.7848   -991.16011    149944.79   -47464.581    4020.6942   -51485.275   0.15721094 
   48300     295.1911   -1011.4448    149956.13   -47417.223    4053.7389   -51470.962   0.15798497 
   48400    293.32118   -1015.5362    149963.12    -47453.01      4028.06    -51481.07   0.15930143 
   48500    290.15723   -1037.5798    149942.79   -47541.765    3984.6109   -51526.376   0.15457149 
   48600    292.53047   -971.59754    149944.37   -47534.057    4017.2016   -51551.258   0.15512028 
   48700    296.97253   -978.10806    149968.37    -47424.32    4078.2026   -51502.522   0.15524317 
   48800    291.62322   -1018.9163    149955.59   -47415.653    4004.7427   -51420.395   0.16121953 
   48900    293.53077   -981.38361    149991.37   -47438.962    4030.9382     -51469.9   0.15802643 
   49000    294.49783   -1002.1256    149959.95    -47477.68    4044.2184   -51521.899   0.16388177 
   49100      295.406   -1022.4916    149993.19    -47387.24    4056.6901    -51443.93   0.15981894 
   49200     294.7154   -1034.7699    149987.54   -47425.698    4047.2063   -51472.905   0.15902797 
   49300    296.43128   -979.71564    149963.49   -47494.204    4070.7698   -51564.974    0.1550203 
   49400    292.34664   -988.32479    149937.93   -47511.447    4014.6771   -51526.124   0.15435641 
   49500    295.18077   -988.32231    149964.84   -47449.476    4053.5971   -51503.073   0.15888599 
   49600    294.80635   -976.71285    149952.21   -47441.984    4048.4553   -51490.439   0.15119917 
   49700    291.13941   -991.79354    149949.44   -47447.248    3998.0987   -51445.347   0.15832019 
   49800    298.94155   -958.21533    149953.23   -47456.832    4105.2423   -51562.075   0.14847749 
   49900    289.55921    -990.0923    149941.63   -47433.555    3976.3984   -51409.953   0.16392287 
   50000     293.5101     -993.134    149936.48   -47443.592    4030.6545   -51474.247   0.15825651 
   50100    298.61851   -1032.4903    149981.03   -47299.129    4100.8061   -51399.936    0.1633686 
   50200    300.75261   -1019.4096    149969.25   -47383.255    4130.1129   -51513.368   0.16200388 
   50300    296.86785   -978.80172    149939.33   -47387.457     4076.765   -51464.222   0.15395868 
   50400     299.3645   -1005.1122    149935.97   -47413.408    4111.0505   -51524.459    0.1607745 
   50500    298.64371   -985.82283    149927.81   -47314.979    4101.1522   -51416.131   0.15968271 
   50600    298.04419   -998.85085    149971.84   -47240.276    4092.9193   -51333.195   0.16436212 
   50700    292.04165   -992.97952    149936.08   -47489.486    4010.4888   -51499.975   0.16017727 
   50800    288.38495   -1008.9709    149931.76   -47465.705    3960.2728   -51425.978   0.15647135 
   50900    289.60774   -1025.7482     149938.2   -47496.189    3977.0649   -51473.254   0.16145742 
   51000    293.24741     -1018.31    149933.57   -47452.811     4027.047   -51479.858    0.1606268 
   51100    295.85646   -1017.9579    149945.65   -47466.755    4062.8761   -51529.631   0.15375336 
   51200    290.00136   -995.28233    149918.47   -47523.247    3982.4703   -51505.717   0.16082999 
   51300    288.49358   -999.38702    149904.21   -47530.321    3961.7646   -51492.086    0.1525325 
   51400    295.02769   -933.85328    149948.68   -47467.635    4051.4948    -51519.13   0.15761937 
   51500    289.04932   -1033.3311    149908.91   -47525.242    3969.3964   -51494.638   0.15797528 
   51600    292.84541   -1039.2747    149921.63   -47441.508    4021.5265   -51463.034   0.16293921 
   51700     295.5722   -1009.6244    149938.45   -47333.303    4058.9723   -51392.276   0.16615945 
   51800    295.82582   -997.20039    149944.75   -47384.091    4062.4553   -51446.547   0.15032821 
   51900    296.02326   -988.83645    149936.45   -47449.719    4065.1666   -51514.886   0.16303941 
   52000    301.21018   -977.38025    149934.01   -47432.043    4136.3965   -51568.439   0.14896596 
   52100     291.4285   -984.43118    149944.38   -47515.024    4002.0686   -51517.093   0.15723342 
   52200    287.43344   -1003.9361    149948.01   -47569.285    3947.2062   -51516.491   0.15846695 
   52300    292.58047   -1011.2714    149938.42   -47543.686    4017.8882   -51561.575   0.14842853 
   52400    284.13001   -1021.2907    149910.35   -47633.155    3901.8415   -51534.997   0.16407109 
   52500    292.47758   -976.20972    149923.97   -47478.142    4016.4753   -51494.617   0.15182359 
   52600    292.58579    -1002.085    149947.68   -47448.583    4017.9613   -51466.544   0.16204667 
   52700    292.08637   -1003.7995    149963.12   -47381.811    4011.1029   -51392.914   0.16144482 
   52800    289.59906   -994.51518    149984.14   -47350.561    3976.9457   -51327.507    0.1562729 
   52900    291.22133   -1010.8153    149962.84   -47377.036    3999.2236   -51376.259   0.16422288 
   53000    296.21226    -993.3924    149961.79   -47327.413    4067.7621   -51395.176   0.16016546 
   53100     285.8475    -1029.895     149941.5   -47469.881     3925.427   -51395.308   0.15920256 
   53200    290.49516   -1007.0292    149928.24   -47517.824    3989.2515   -51507.075   0.15577573 
   53300    297.37284   -971.69096    149921.91   -47479.844    4083.6998   -51563.544   0.15322806 
   53400     293.1177   -984.84329    149938.34   -47410.027    4025.2658   -51435.293   0.16352223 
   53500    299.06425   -1016.6314    149951.73   -47394.379    4106.9273   -51501.306   0.15636566 
   53600    289.47843    -1043.212    149923.71   -47468.852    3975.2891   -51444.141    0.1695649 
   53700    291.70209   -1027.6036    149924.21    -47448.23    4005.8257   -51454.056   0.16429839 
   53800    294.87293   -997.07128    149909.81    -47475.08    4049.3697   -51524.449   0.15264932 
   53900    293.26981   -960.47148    149928.23   -47475.235    4027.3546    -51502.59   0.16444964 
   54000    290.40386   -998.62458     149933.3   -47484.074    3987.9977   -51472.071   0.15087114 
   54100    293.51961   -1017.6239    149939.64   -47460.723     4030.785   -51491.508   0.16310743 
   54200    295.06288   -1005.7335    149971.07    -47410.44    4051.9781   -51462.418   0.15643855 
   54300    293.06687   -1043.2325    149962.54   -47332.931    4024.5677   -51357.498   0.15988504 
   54400    294.72597   -1010.9895    149978.03   -47249.078    4047.3515    -51296.43   0.17504323 
   54500     296.0963   -976.82792    149971.77   -47319.688    4066.1697   -51385.858   0.15916135 
   54600    297.37092   -1018.5457    149959.06   -47336.872    4083.6735   -51420.546   0.16595802 
   54700    297.10929   -1012.3943    149986.35   -47407.881    4080.0807   -51487.961   0.16138886 
   54800    299.83875   -1043.7791    149975.51   -47328.844    4117.5631   -51446.407   0.16189561 
   54900    300.64505   -997.40124    149968.54   -47345.523    4128.6358   -51474.158    0.1635697 
   55000    298.50652   -1008.5988    149948.77   -47377.358    4099.2682   -51476.626   0.16061837 
   55100    297.69751   -1022.6224    149938.15   -47395.345    4088.1584   -51483.504   0.16264561 
   55200    292.66636   -999.94851    149898.67    -47510.56    4019.0677   -51529.628   0.15421689 
   55300    286.83733    -1019.583    149898.12   -47560.224      3939.02   -51499.244   0.15824485 
   55400    291.93524   -1006.5332    149893.42   -47522.544    4009.0276   -51531.572   0.15781199 
   55500    287.61729   -1020.7476    149895.79   -47478.731    3949.7309   -51428.462   0.16173197 
   55600    297.60938   -992.39167    149929.01   -47376.209    4086.9481   -51463.157   0.16715432 
   55700    294.47771   -975.98363    149958.47   -47324.732    4043.9422   -51368.674   0.15622428 
   55800    295.66117   -956.83459    149967.55   -47315.715    4060.1942   -51375.909   0.16070073 
   55900    295.66264   -1005.4734     149962.4   -47331.517    4060.2143   -51391.731   0.16536548 
   56000    294.14492   -1004.7722    149956.72   -47343.002    4039.3722   -51382.374   0.15812578 
   56100    297.34178   -1039.7138     149949.6   -47331.569    4083.2734   -51414.842   0.17281389 
   56200    291.96513   -1016.8326    149951.93   -47368.442     4009.438    -51377.88   0.16075822 
   56300    293.45326   -1017.5184    149942.51   -47445.266    4029.8739    -51475.14   0.16042803 
   56400    295.89362   -1027.1415    149920.75    -47489.87    4063.3863   -51553.257   0.15357058 
   56500    286.59017   -994.93054    149901.73   -47538.692    3935.6259   -51474.318   0.15382124 
   56600    287.22616   -994.28737    149909.89   -47588.256    3944.3596   -51532.616   0.15911715 
   56700    287.32731   -1036.9421    149914.22   -47569.604    3945.7487   -51515.353   0.14987389 
   56800    289.31993    -1009.671    149936.05    -47451.21    3973.1125   -51424.323   0.16711679 
   56900    291.65083   -1000.6708    149919.05   -47549.486    4005.1218   -51554.608    0.1530032 
   57000    289.26528   -977.95255    149917.87   -47534.957    3972.3621   -51507.319    0.1600797 
   57100    294.78217   -972.44946    149944.11    -47455.86    4048.1232   -51503.984    0.1556385 
   57200    297.57734   -973.35328    149974.75   -47407.641    4086.5082   -51494.149   0.15280131 
   57300    290.23241   -1007.8613     149946.7   -47543.658    3985.6432   -51529.301   0.16153941 
   57400     293.2462   -995.67911     149959.4   -47426.245    4027.0305   -51453.276   0.15229756 
   57500    297.29625   -968.84613    149991.78    -47392.84     4082.648   -51475.488   0.15780716 
   57600    296.32722   -1010.3817    149951.73   -47508.194    4069.3408   -51577.535   0.15778351 
   57700    299.88823   -982.78185    149980.68   -47415.345    4118.2426   -51533.588   0.15500093 
   57800    295.03936   -979.89299    150005.16   -47363.692    4051.6552   -51415.347   0.15985004 
   57900    298.76356    -1002.236    149982.12   -47400.388     4102.798   -51503.186   0.15306617 
   58000    292.42709   -1024.1353    149946.29   -47356.812    4015.7819   -51372.594    0.1675336 
   58100    296.80326   -967.38448    149967.95   -47411.872     4075.878    -51487.75   0.15948256 
   58200    296.09257   -979.53167    150014.44   -47305.012    4066.1184    -51371.13    0.1584425 
   58300      293.833   -1017.7761    149999.05    -47374.22    4035.0887   -51409.309   0.16659444 
   58400    296.89451   -982.58406    149968.71   -47420.058    4077.1312   -51497.189   0.15021931 
   58500     294.7301    -973.4632    149964.18   -47426.906    4047.4081   -51474.314   0.16091861 
   58600    296.44096   -1000.0407    149934.03   -47457.372    4070.9028   -51528.275   0.15276245 
   58700    295.57037   -973.35011    149953.24   -47409.857    4058.9473   -51468.804     0.160858 
   58800    298.40355    -946.7288     149941.4   -47451.252    4097.8542   -51549.106   0.15767954 
   58900    294.56265   -998.86198    149944.11   -47366.998    4045.1087   -51412.107   0.15164179 
   59000     299.3106   -1030.4298    149967.87   -47334.742    4110.3103   -51445.052   0.16820406 
   59100      301.511   -1001.2293    149983.03    -47294.15    4140.5275   -51434.678   0.15780723 
   59200    288.62602   -1013.5743    149951.49    -47421.03    3963.5833   -51384.613   0.15876458 
   59300    292.34901   -1039.1504    149958.55   -47401.417    4014.7097   -51416.127   0.16349645 
   59400    301.47363    -970.1672    149956.59   -47379.304    4140.0143   -51519.319   0.15335153 
   59500    293.63491   -972.67905    149951.76   -47491.203    4032.3683   -51523.571   0.15833467 
   59600    292.18006   -992.51268    149961.56   -47466.395    4012.3895   -51478.784   0.15386857 
   59700    291.13768    -984.9437    149951.84   -47395.515     3998.075    -51393.59   0.16101358 
   59800    289.27725   -1020.7657    149942.28   -47516.645    3972.5264   -51489.171   0.15614557 
   59900    290.07066   -991.26515    149944.45   -47506.905    3983.4219   -51490.327   0.15405601 
   60000    296.21277    -976.6792    149960.07   -47471.797    4067.7691   -51539.566   0.15570221 
   60100    293.48855   -988.99513    149957.93   -47430.281    4030.3584    -51460.64   0.15573749 
   60200    293.24754   -989.75434    149966.98   -47401.418    4027.0488   -51428.467   0.16319762 
   60300    297.74108   -961.00359    149981.98   -47359.977    4088.7567   -51448.733   0.15362133 
   60400    294.24448   -1003.5076    149977.24   -47305.428    4040.7394   -51346.167   0.16221971 
   60500    297.23256   -1021.2018    149976.24   -47337.159    4081.7735   -51418.932   0.16586056 
   60600    298.75326   -940.72484    149943.71   -47397.387    4102.6566   -51500.044   0.15177849 
   60700    299.72709   -1026.4646    149974.05   -47221.792    4116.0298   -51337.822   0.17005859 
   60800    301.85994   -976.05727    149997.03    -47245.24    4145.3193    -51390.56   0.15711171 
   60900    296.65687   -989.05522    149986.62   -47345.272    4073.8677    -51419.14   0.15690687 
   61000    296.76621   -992.09792    149942.39    -47385.88    4075.3692    -51461.25   0.16324303 
   61100    297.79044   -992.61545    149956.62   -47364.896    4089.4346   -51454.331   0.15276993 
   61200    300.41966   -998.32856    149940.99   -47307.064    4125.5406   -51432.605   0.16772924 
   61300    288.18214   -1008.8679    149930.48   -47396.886    3957.4877   -51354.374   0.16329812 
   61400    294.78593   -976.09558     149935.3   -47458.062    4048.1748   -51506.237   0.15958529 
   61500      293.612   -971.26137    149932.51   -47391.462    4032.0538   -51423.516   0.16105665 
   61600    293.45648   -1007.3116    149902.05    -47440.41    4029.9181   -51470.328   0.16024235 
   61700    290.91385    -1019.342    149906.95   -47503.046    3995.0012   -51498.047   0.15892689 
   61800    290.16148   -991.02041    149908.69   -47488.246    3984.6692   -51472.915    0.1523394 
   61900    291.84846   -953.32843    149918.96   -47379.779    4007.8358   -51387.614   0.16577315 
   62000    292.88811   -992.11695     149934.8   -47394.498    4022.1129   -51416.611   0.15599908 
   62100    290.27389   -996.01754    149935.75   -47466.729    3986.2128   -51452.942   0.15653598 
   62200    296.80895   -994.49997    149952.56    -47356.87    4075.9562   -51432.826   0.16210615 
   62300    291.82258   -1023.2913    149945.46    -47405.11    4007.4804   -51412.591   0.15720286 
   62400    291.08741   -976.15782    149937.12   -47451.744    3997.3846   -51449.128   0.16377957 
   62500    296.73475   -979.70144    149939.79   -47442.565    4074.9373   -51517.502    0.1547451 
   62600    296.21103   -983.64086    149941.34   -47472.017    4067.7452   -51539.762   0.15223959 
   62700    290.50562   -982.72833     149926.4   -47506.894    3989.3951   -51496.289   0.16324389 
   62800    291.56931   -979.16095    149938.58   -47481.137    4004.0023   -51485.139   0.14930637 
   62900    298.70632   -991.64231     149953.3   -47390.995     4102.012   -51493.007   0.15977199 
   63000    297.85175   -980.22627    149964.96   -47422.185    4090.2765   -51512.461   0.15625953 
   63100    289.32814   -988.22935    149944.41   -47494.448    3973.2252   -51467.673   0.15351304 
   63200    295.13329   -1008.9956    149966.26   -47372.714    4052.9451   -51425.659   0.16069561 
   63300    291.77928   -1001.2192    149952.32   -47471.458    4006.8858   -51478.343    0.1522061 
   63400    282.40982   -1015.5636    149940.52   -47564.661    3878.2188    -51442.88   0.15884034 
   63500      288.279   -1026.4963       149907   -47534.712    3958.8179    -51493.53   0.15314547 
   63600    290.06868   -998.43268    149908.16   -47587.351    3983.3948   -51570.745   0.15269543 
   63700    290.04373   -1009.1476    149897.34     -47546.4    3983.0521   -51529.452    0.1543824 
   63800     285.7353   -987.11391    149886.98   -47620.502    3923.8863   -51544.388   0.15218396 
   63900    291.29068   -994.03051    149875.32   -47506.297     4000.176   -51506.473   0.16254273 
   64000    289.43385   -1009.7467    149921.04   -47415.937     3974.677   -51390.614   0.15926535 
   64100      297.218   -1003.2929    149910.47   -47372.085    4081.5734   -51453.659   0.16393109 
   64200    296.06234   -1027.1976    149941.18   -47363.639    4065.7033   -51429.343   0.16156126 
   64300    292.25688   -1002.0049    149952.78   -47402.976    4013.4444    -51416.42   0.15645155 
   64400    294.45681   -994.02648    149921.25   -47461.318    4043.6552   -51504.974   0.16040744 
   64500    293.13526   -975.59575    149939.19   -47447.678    4025.5069   -51473.185   0.15305996 
   64600    287.95571   -1013.0227    149930.75   -47484.543    3954.3782   -51438.921   0.15649301 
   64700    293.51036   -1007.0208    149941.13   -47492.866     4030.658   -51523.524   0.15375756 
   64800    294.14846   -991.44571    149910.31   -47433.033    4039.4208   -51472.454   0.15566907 
   64900    298.17275   -956.69087    149943.89   -47346.463    4094.6847   -51441.148   0.15840268 
   65000    298.22402   -941.29248    149952.05   -47333.511    4095.3888     -51428.9   0.15676382 
   65100    292.75235   -997.32071    149952.29   -47402.148    4020.2486   -51422.397    0.1576929 
   65200     293.7716   -1019.7568    149922.67   -47417.795    4034.2456   -51452.041    0.1588257 
   65300    293.58024   -994.16858    149937.28   -47353.947    4031.6177   -51385.565    0.1592249 
   65400     293.0544     -975.146    149938.89   -47396.128    4024.3965   -51420.525   0.15947665 
   65500    297.91714   -974.09537       149945   -47330.043    4091.1744   -51421.217   0.15440607 
   65600    294.55112   -1044.1804    149963.99   -47351.219    4044.9504   -51396.169   0.16623204 
   65700    296.26602   -990.95181    149960.21   -47304.232    4068.5003   -51372.732   0.15761369 
   65800    293.67312   -986.42317    149942.06   -47374.705    4032.8931   -51407.598   0.15805266 
   65900    294.17335   -989.29237    149940.16   -47388.924    4039.7626   -51428.687   0.15896787 
   66000    297.90967   -960.62708    149948.65   -47397.892    4091.0719   -51488.964   0.15034119 
   66100    297.77532   -991.83897    149948.32   -47361.248    4089.2269   -51450.474    0.1557989 
   66200    289.37684   -1011.5508     149918.2   -47500.132     3973.894   -51474.026   0.15240052 
   66300    296.28613   -1000.7701     149909.7   -47423.973    4068.7765    -51492.75   0.15869407 
   66400    295.68691   -1017.3197    149922.16   -47427.875    4060.5476   -51488.423   0.15831022 
   66500    289.12004    -1045.518    149922.12   -47463.104    3970.3675   -51433.472   0.16151308 
   66600    295.76883   -1001.1719    149926.46   -47466.808    4061.6727   -51528.481   0.15678681 
   66700    293.23233   -993.32254    149935.92   -47450.655    4026.8399   -51477.495   0.15966754 
   66800    287.67237   -1014.0104    149952.15   -47480.637    3950.4873   -51431.125   0.15746261 
   66900     285.6392   -1032.3543    149938.33   -47484.765    3922.5666   -51407.332   0.16151061 
   67000     286.4883   -996.73798    149903.37   -47592.648    3934.2269   -51526.875   0.15448522 
   67100    290.86689   -1042.5659    149943.32   -47430.144    3994.3563   -51424.501   0.16222473 
   67200    289.06366   -1016.3517    149943.94   -47540.279    3969.5933   -51509.872   0.15014757 
   67300    290.46575   -1032.7296    149942.97    -47460.64    3988.8477   -51449.488   0.16095073 
   67400    295.13059    -981.8929    149946.98   -47435.967     4052.908   -51488.875   0.15250644 
   67500     298.8561   -952.15852    149942.44   -47422.509    4104.0688   -51526.578   0.15165368 
   67600    297.70917   -1007.1051     149936.7   -47274.999    4088.3185   -51363.318   0.16648891 
   67700    296.75741   -1018.8908    149946.38   -47350.644    4075.2484   -51425.892   0.15867766 
   67800    294.57186   -1014.7009    149945.37   -47396.229    4045.2351   -51441.464    0.1588627 
   67900    296.99862   -974.15791    149930.01   -47426.419    4078.5608    -51504.98   0.15219458 
   68000    296.90733   -980.61676    149922.56   -47461.777    4077.3072   -51539.085   0.15149318 
   68100    292.59233    -990.5749     149908.4   -47466.481    4018.0511   -51484.533   0.15360612 
   68200    293.60361   -983.28884    149916.08   -47432.726    4031.9386   -51464.664     0.156026 
   68300    293.38791   -1017.1355    149939.98   -47379.168    4028.9764   -51408.144   0.16075402 
   68400    290.99519   -999.31543    149956.42    -47346.31    3996.1182   -51342.428    0.1630408 
   68500    300.57284   -1022.0469     149955.8    -47346.97    4127.6442   -51474.614   0.15949821 
   68600    293.10683   -1050.5637    149944.86   -47442.398    4025.1165   -51467.515   0.15728335 
   68700    293.14755   -1008.7567    149927.09   -47411.732    4025.6757   -51437.408   0.15693402 
   68800    294.70313   -991.04642    149934.14   -47408.291    4047.0378   -51455.329   0.15791682 
   68900    293.98105   -1023.8242    149932.61    -47412.96    4037.1217   -51450.082    0.1538431 
   69000    295.73533    -1016.958    149928.98   -47405.295    4061.2126   -51466.507   0.15988984 
   69100    294.90887   -1001.9401    149906.11   -47471.891    4049.8631   -51521.754   0.15231857 
   69200     289.7098   -988.10957    149917.23   -47482.291    3978.4665   -51460.757    0.1537549 
   69300    293.67237   -979.69621    149900.11   -47516.444    4032.8827   -51549.327   0.15608759 
   69400    291.16378   -1001.6909    149906.03   -47568.047    3998.4334    -51566.48   0.15019785 
   69500    294.02487   -1000.4734    149896.12   -47421.679    4037.7235   -51459.403   0.15597367 
   69600    297.73509   -1013.1797    149948.47   -47318.692    4088.6745   -51407.366   0.16387345 
   69700    293.95987   -1050.3392    149933.39   -47410.598    4036.8309   -51447.429   0.15461961 
   69800    298.26628   -1045.5314    149876.26   -47410.604    4095.9692   -51506.573     0.165483 
   69900    291.01382   -984.84383    149872.33   -47504.802     3996.374   -51501.176   0.15259587 
   70000    289.67277   -1005.8306    149886.08   -47435.718     3977.958   -51413.676   0.15775068 
   70100    287.74547   -973.74337    149888.19   -47559.871    3951.4911   -51511.362   0.15036354 
   70200    296.52754   -998.76341    149910.12   -47393.788    4072.0917   -51465.879   0.15373445 
   70300    297.70328   -981.75994    149918.47   -47403.551    4088.2376   -51491.789   0.15691333 
   70400    297.61718   -1034.7116    149945.79   -47294.923    4087.0553   -51381.978   0.15608348 
   70500    300.78546   -985.19643    149933.38   -47370.522    4130.5639   -51501.086   0.15575543 
   70600    297.56427   -1002.7838     149911.4    -47423.68    4086.3287   -51510.008   0.14959171 
   70700    296.56099   -978.41422    149891.96   -47391.595    4072.5511   -51464.147   0.15876853 
   70800    296.78104   -993.58009    149918.98   -47427.039    4075.5729   -51502.612   0.15140912 
   70900    290.95548   -1034.0083    149924.07    -47424.17    3995.5729   -51419.743   0.15966766 
   71000    291.28703   -1018.5314    149933.94   -47441.984    4000.1259    -51442.11    0.1611571 
   71100    292.46843   -1033.5494    149932.02   -47434.942    4016.3497   -51451.292   0.15767692 
   71200    293.42267    -1032.826    149938.64   -47474.692    4029.4538   -51504.145   0.15343566 
   71300    291.14606   -994.03643    149928.62   -47524.415    3998.1901   -51522.605   0.15513581 
   71400     291.6619   -971.87659     149925.1   -47463.682    4005.2738   -51468.956   0.15230721 
   71500    286.15109   -1004.0666    149921.18   -47402.986    3929.5961   -51332.583   0.15964778 
   71600    290.52726   -982.02264    149941.71   -47428.227    3989.6923    -51417.92   0.15518656 
   71700     296.7917   -1015.3306    149942.98   -47417.239    4075.7193   -51492.958   0.15658889 
   71800    288.07063   -1013.9688    149918.92    -47592.33    3955.9564   -51548.286   0.15470877 
   71900    287.46501    -1008.943    149914.69   -47532.978    3947.6397   -51480.617   0.15274932 
   72000    296.52626   -957.20547    149914.77   -47498.404    4072.0742   -51570.478   0.15573459 
   72100    298.99688    -985.4318    149960.18   -47363.975    4106.0021   -51469.977   0.15531298 
   72200     299.4216   -968.22845    149984.61   -47248.822    4111.8346   -51360.657   0.16027719 
   72300    296.03064   -1065.2313    150017.37   -47229.558     4065.268   -51294.826   0.16451779 
   72400    296.03168   -992.43236    150005.68   -47349.489    4065.2823   -51414.771   0.15774633 
   72500    296.25103      -1020.3    149982.06    -47345.48    4068.2945   -51413.775   0.16192252 
   72600    293.79549   -979.88228     149981.3   -47282.093    4034.5735   -51316.666   0.15887906 
   72700    292.38966   -1000.1971     149953.1   -47445.045    4015.2679   -51460.313   0.15996228 
   72800    297.75868    -962.3164    149967.89   -47369.013    4088.9984   -51458.011   0.15436292 
   72900    294.26228   -1020.3702    149980.29   -47378.495    4040.9839   -51419.479   0.15712706 
   73000    296.66876   -1008.4126    149959.82   -47390.432     4074.031   -51464.463   0.15487225 
   73100    297.55922   -1027.9881    149995.77   -47352.004    4086.2593   -51438.263   0.15771485 
   73200    297.44212   -999.88972    150005.98   -47334.431    4084.6512   -51419.082   0.15783028 
   73300    300.83825   -957.35447    149998.42   -47311.232    4131.2889   -51442.521   0.15152365 
   73400    296.15283   -990.29306    150030.89   -47291.352     4066.946   -51358.298   0.16036263 
   73500    296.99503   -1039.9425     150022.4    -47296.64    4078.5116   -51375.152   0.15469817 
   73600     296.5118   -1010.4504     149987.4   -47339.244    4071.8756    -51411.12   0.16042928 
   73700    294.00906   -997.83927    149979.82   -47401.205    4037.5065   -51438.712   0.15219391 
   73800     295.0922   -1000.9872     149953.3   -47495.064    4052.3808   -51547.445   0.15214118 
   73900    288.09693   -1028.6501    149947.95   -47473.227    3956.3176   -51429.545   0.15828868 
   74000    299.65864   -969.60879    149968.15   -47396.933    4115.0899   -51512.022    0.1547754 
   74100    304.86052    -941.0464    150025.44   -47228.397    4186.5252   -51414.922   0.15452891 
   74200     296.4797   -1025.4918    149986.54   -47396.635    4071.4347    -51468.07   0.15818773 
   74300    290.66187   -976.93807    149986.59   -47403.278    3991.5409   -51394.818   0.15594826 
   74400    294.90197      -982.08    149967.43   -47438.903    4049.7684   -51488.671   0.15665483 
   74500    294.76205    -966.8963    149951.49   -47455.441     4047.847   -51503.288   0.15430849 
   74600    297.25819    -1059.119    149959.75   -47458.202    4082.1254   -51540.327   0.15148935 
   74700    297.05891   -988.77994    149979.76   -47373.018    4079.3888   -51452.407   0.15808873 
   74800    296.22075     -1038.66    149941.86   -47430.811    4067.8787    -51498.69   0.15425423 
   74900    287.98821   -1023.8413    149914.09   -47428.157    3954.8246   -51382.982   0.16281619 
   75000    291.96838   -1009.2773    149937.67   -47409.757    4009.4826    -51419.24   0.15374569 
   75100    296.84857   -992.42769    149955.77   -47337.832    4076.5003   -51414.332   0.16110464 
   75200    295.39979   -1000.7603    149955.59   -47386.852    4056.6048   -51443.456   0.15643238 
   75300    294.43686   -1012.1919    149924.36   -47441.712    4043.3813   -51485.093   0.15707639 
   75400    292.57798   -1001.8654    149910.51   -47452.605     4017.854   -51470.458   0.16009346 
   75500    296.21297   -990.89133    149911.88   -47449.827    4067.7719   -51517.598   0.14763741 
   75600    291.56548   -1018.3453    149896.99   -47370.729    4003.9497   -51374.679   0.16418947 
   75700    292.99511   -1035.2736    149948.08   -47334.473    4023.5823   -51358.055   0.15832978 
   75800    294.59706   -1010.5205    149967.97   -47355.725    4045.5811   -51401.306   0.15647194 
   75900    296.50561   -1007.5836    149950.54   -47372.053    4071.7906   -51443.844   0.16092107 
   76000     298.3304   -1002.5077    149952.44   -47383.438    4096.8497   -51480.288   0.14878934 
   76100     292.4709   -992.23824    149915.07   -47470.305    4016.3835   -51486.689   0.15494379 
   76200    292.33252   -995.49581     149910.5   -47509.678    4014.4833   -51524.161   0.15575049 
   76300     293.6636   -1010.0181    149923.38   -47448.501    4032.7624   -51481.263   0.15689061 
   76400    296.71114   -990.25229    149934.76   -47445.012    4074.6129   -51519.624   0.15684415 
   76500    291.33439   -1012.2135    149943.81   -47425.926    4000.7763   -51426.702   0.15908577 
[...]
   81900    291.03521   -994.55724    149977.65   -47486.386    3996.6678   -51483.054   0.15213331 
   82000    288.12333   -986.69315    150020.43   -47395.447    3956.6801   -51352.127   0.15354541 
   82100     296.6835   -978.75537    150054.51   -47346.703    4074.2334   -51420.936   0.14841448 
   82200     294.1657   -1015.5873     150045.7   -47358.131    4039.6575   -51397.789   0.15797239 
   82300    293.25735   -1030.7386    150016.62   -47432.283    4027.1835   -51459.467    0.1496158 
   82400    297.48423   -996.94733    150036.95    -47314.38    4085.2296    -51399.61   0.15669245 
   82500    298.44693   -1016.4882    150062.61    -47210.15    4098.4499     -51308.6   0.15980774 
   82600     300.9873   -988.56324    150026.71   -47312.255    4133.3357   -51445.591   0.15057148 
   82700    296.66327   -1004.9907    149992.01   -47397.312    4073.9556   -51471.267   0.15451728 
   82800    291.98702   -1004.0659    149983.29   -47403.885    4009.7386   -51413.623   0.15425701 
   82900    291.19062   -981.35132    149993.15   -47358.159     3998.802   -51356.961   0.15383846 
   83000    298.99982   -1009.0469    150001.47   -47291.619    4106.0425   -51397.661   0.15693354 
   83100    294.51098   -1017.3646    149999.18   -47331.259     4044.399   -51375.658   0.15422711 
   83200    295.42076   -994.02043    149982.47   -47367.207    4056.8927     -51424.1   0.15416649 
   83300    298.57848    -971.3853    149985.96    -47353.97    4100.2564   -51454.227   0.15111077 
   83400    291.96558   -985.83645    149981.04   -47433.245    4009.4442   -51442.689   0.15395724 
   83500     289.4766   -1011.3538    149954.26   -47541.539    3975.2641   -51516.803    0.1521767 
   83600    291.91019   -1020.0334    149947.42   -47485.761    4008.6836   -51494.445   0.15149192 
   83700    289.79728   -978.66369    149955.76   -47515.104    3979.6678   -51494.771   0.15023206 
   83800    292.98784   -990.97272    149947.66   -47477.637    4023.4824   -51501.119   0.14883141 
   83900    292.86722   -986.78904    149953.65   -47476.515     4021.826   -51498.341   0.15555937 
   84000    291.76186   -1035.6366    149970.34   -47498.116    4006.6465   -51504.762   0.15156686 
   84100    296.36078   -993.48549    149991.24   -47427.384    4069.8016   -51497.185   0.15335255 
   84200    298.71158   -996.39456    149997.15   -47376.932    4102.0843   -51479.017   0.15422332 
   84300    296.47578   -1021.4489    149990.19   -47432.294    4071.3809   -51503.675   0.15211953 
   84400    300.77766   -996.26546    149996.42   -47431.135    4130.4569   -51561.592   0.15170292 
   84500    291.42088   -1003.4497     149963.9   -47487.149     4001.964   -51489.113   0.14957092 
   84600    293.18612   -977.00986    149974.75   -47398.193    4026.2053   -51424.398   0.15539316 
   84700    296.25461   -991.18939    149986.09   -47410.315    4068.3436   -51478.659   0.15779698 
   84800    293.21784   -1011.2246    149964.43   -47396.923    4026.6409   -51423.564   0.15451182 
   84900    292.46273   -978.25211    149990.48   -47318.667    4016.2713   -51334.938   0.16493805 
   85000    295.23166   -1017.6118    149991.37   -47388.241    4054.2959   -51442.537   0.15425199 
   85100    296.42834   -1001.5463    149988.95   -47416.023    4070.7294   -51486.753   0.15551249 
   85200    292.73072    -1013.263     149967.4   -47453.046    4019.9515   -51472.998    0.1524548 
   85300    292.12451   -988.85768    149970.27   -47464.167    4011.6267   -51475.794   0.15228199 
   85400    289.94449   -1005.1997    149961.86   -47491.715    3981.6893   -51473.405   0.15413778 
   85500    292.81199   -1037.1557    149971.89    -47436.94    4021.0675   -51458.007   0.15584186 
   85600    293.03813   -1007.3344    149977.41   -47469.822     4024.173   -51493.995   0.15508435 
   85700    296.33636   -979.54261    149989.44   -47411.518    4069.4663   -51480.984     0.151563 
   85800    293.36386   -1009.9555    150028.53   -47402.679    4028.6462   -51431.325   0.15413955 
   85900    293.78591   -1000.0744    150010.27   -47368.148     4034.442    -51402.59   0.15325464 
   86000    291.52816   -975.96695    149978.26   -47422.861    4003.4373   -51426.299   0.15873252 
   86100    292.26765   -1001.1527    150013.18   -47397.625    4013.5924   -51411.218   0.15520958 
   86200    298.47998   -1000.1477     150030.3   -47360.687    4098.9038   -51459.591   0.15434064 
   86300    295.17635   -971.60348    150016.06   -47415.286    4053.5364   -51468.823   0.15256668 
   86400    299.81823   -1007.1939    149995.91    -47467.73    4117.2814   -51585.012   0.14852749 
   86500    292.19436    -990.4294    149987.33   -47509.455    4012.5859   -51522.041   0.14778202 
   86600    298.51827   -976.67515    150006.83   -47337.968    4099.4296   -51437.397   0.15481884 
   86700    295.77165   -1017.6977    150024.45   -47341.151    4061.7113   -51402.863   0.15459916 
   86800    293.44222   -1026.4713    150034.04   -47470.504    4029.7223   -51500.226   0.15539051 
   86900    292.39564   -989.60328    150006.91   -47448.381      4015.35   -51463.731   0.15111006 
   87000    293.29351   -1030.0843    150018.51   -47424.919      4027.68   -51452.599   0.15467374 
   87100    291.22043   -987.63089    149996.06   -47394.409    3999.2113    -51393.62   0.15915145 
   87200    295.69139   -1027.8629    150012.18   -47328.297    4060.6092   -51388.906   0.15696688 
   87300    299.57643   -972.42068    150020.07   -47344.249    4113.9609    -51458.21   0.15619166 
   87400    299.19841   -1008.3326    150004.05   -47399.188    4108.7697   -51507.958   0.15483442 
   87500    296.19076   -1011.2946    149996.19   -47368.985    4067.4669   -51436.452   0.15613695 
   87600    292.21351   -997.97231     150002.8   -47393.813    4012.8488   -51406.662   0.15860529 
   87700    300.96104   -994.53552    150003.79   -47361.656    4132.9751   -51494.631   0.14964413 
   87800    292.38105   -1025.3985    149991.74   -47453.645    4015.1497   -51468.794   0.15624529 
   87900    290.73952   -975.54188    149955.72   -47471.546    3992.6071   -51464.153   0.15329704 
   88000    289.83076   -1026.3966    149959.81   -47438.932    3980.1275    -51419.06   0.16071985 
   88100    295.09482   -984.72754    149984.55     -47411.3    4052.4167   -51463.717   0.15428178 
   88200    286.59301   -989.15058    149962.31   -47509.623    3935.6649   -51445.288   0.15487121 
   88300    294.00894   -1025.2367    149981.77   -47449.124    4037.5047   -51486.629   0.15728153 
   88400     296.4982   -955.83459    150003.95   -47377.489    4071.6888   -51449.178   0.14798305 
   88500    296.40704   -996.90309    149987.27   -47453.835    4070.4369   -51524.272   0.15420829 
   88600    293.33287    -1035.055    149974.62   -47440.537    4028.2206   -51468.758   0.15198424 
   88700    296.21314   -1008.5332    149982.15   -47417.714    4067.7742   -51485.488   0.15746075 
   88800     292.6119   -997.87448    149967.21   -47478.797    4018.3199   -51497.117   0.15252105 
   88900    292.35289   -1007.0676    149952.43   -47416.038    4014.7629   -51430.801   0.15590834 
   89000    294.22848   -1008.7597    149977.76   -47384.354    4040.5196   -51424.874    0.1559988 
   89100    291.49646   -1033.0148    149967.03   -47434.757    4003.0019   -51437.759   0.15816327 
   89200    297.40357   -968.09837    149973.58   -47383.534    4084.1219   -51467.656   0.15313969 
   89300     291.9085   -977.46091    149946.13    -47505.32    4008.6603   -51513.981   0.15430331 
   89400    294.65709   -1006.3445     149986.6   -47405.342    4046.4055   -51451.748   0.15483437 
   89500    291.91318   -996.40166    149970.51   -47508.432    4008.7246   -51517.156   0.15192533 
   89600    290.03557   -1010.2587    149925.07   -47528.543    3982.9401   -51511.484   0.15374901 
   89700    294.85141   -982.66967    149951.39   -47443.194    4049.0741   -51492.268   0.15574101 
   89800    300.10712   -991.31852    149961.09   -47380.171    4121.2486    -51501.42   0.15473106 
   89900    297.71109   -1025.6808    149953.77   -47359.036     4088.345   -51447.381   0.15842129 
   90000    296.81156   -994.62914    149964.34    -47382.56     4075.992   -51458.552   0.15813026 
   90100    287.85567   -1017.5764    149974.98   -47362.899    3953.0045   -51315.904   0.15690114 
   90200    291.07378   -952.95149    149957.42   -47441.193    3997.1975    -51438.39   0.15564468 
   90300    295.53886   -1020.8139    149946.15   -47417.923    4058.5145   -51476.437   0.15608959 
   90400    296.97894   -1009.9063     149952.8   -47400.411    4078.2906   -51478.702   0.15361805 
   90500     296.3348   -960.53315    149971.82   -47412.392    4069.4449   -51481.837   0.15602156 
   90600    288.38894   -997.10037    150007.74   -47435.469    3960.3277   -51395.797    0.1555973 
   90700    291.02934   -1016.3012    149967.12   -47472.932    3996.5872   -51469.519   0.15703106 
   90800    291.56114   -1029.1679    149977.53   -47493.108    4003.8901   -51496.998   0.15608589 
   90900    294.18238   -1006.4724    149980.34   -47466.149    4039.8866   -51506.036   0.15110388 
   91000    294.49814   -997.08864    149959.27   -47485.795    4044.2228   -51530.018   0.15594673 
   91100    284.41935    -1018.068    149925.63   -47592.853    3905.8149   -51498.667   0.15370151 
   91200    296.31197   -973.18236    149923.17   -47535.599    4069.1314    -51604.73   0.15199987 
   91300    291.51525   -993.05236    149909.41   -47463.031      4003.26   -51466.291   0.15698807 
   91400    296.39096   -987.01518     149951.9   -47442.023    4070.2161   -51512.239   0.15639466 
   91500    295.80288   -996.55291    149991.66   -47274.647    4062.1402   -51336.788   0.15747741 
   91600    295.99986   -996.69562    149999.22   -47344.885    4064.8452    -51409.73   0.15842994 
   91700    298.52983   -986.86751    149947.86   -47414.516    4099.5883   -51514.105   0.15269419 
   91800    296.11922   -1022.8509    149956.32   -47388.624    4066.4844   -51455.108   0.15668562 
   91900    295.15273   -1001.8656    149953.17   -47378.485     4053.212   -51431.697    0.1602789 
   92000    296.54705   -999.90439    149948.61   -47424.409    4072.3596   -51496.769    0.1584089 
   92100    294.54957   -995.00489    149954.95   -47403.341    4044.9291    -51448.27   0.15394372 
   92200    291.00603   -960.31482    149954.67   -47436.822     3996.267   -51433.089   0.15733053 
   92300    296.83597   -1010.8059     149997.7   -47308.152    4076.3272    -51384.48   0.16007367 
   92400    295.18929   -989.34324    149960.12    -47355.24    4053.7141   -51408.954   0.15933553 
   92500    297.72544   -979.55489    149964.15   -47347.398     4088.542    -51435.94   0.15575099 
   92600    295.36006   -1004.0983    149971.08   -47260.663    4056.0592   -51316.722   0.15810318 
   92700    289.25867   -1017.1872    149961.44   -47385.727    3972.2713   -51357.998    0.1607834 
   92800    293.72603   -1025.5979    149929.42   -47399.632    4033.6197   -51433.252   0.15173608 
   92900    291.60245   -989.20672    149922.54   -47438.344    4004.4575   -51442.801   0.16039699 
   93000    297.36828   -986.18484    149928.02   -47447.091    4083.6372   -51530.728   0.15242785 
   93100    295.86837   -949.99481    149941.48   -47362.144    4063.0396   -51425.183   0.15584098 
   93200    288.24491    -1013.287    149941.01   -47419.961    3958.3497   -51378.311   0.16084855 
   93300    292.32187    -996.0049    149915.23   -47472.299     4014.337   -51486.636   0.15313651 
   93400    286.92627   -1025.8322    149914.45   -47530.748    3940.2413   -51470.989   0.15795407 
   93500     288.4726   -1012.3202    149933.52   -47532.976    3961.4765   -51494.453   0.15288721 
   93600    290.95686   -1013.3662    149929.34   -47477.798    3995.5918    -51473.39   0.15604415 
   93700    290.45683   -1016.6007    149946.88   -47456.583    3988.7251   -51445.308   0.15862631 
   93800    296.97396    -978.7537    149940.07    -47458.57    4078.2222   -51536.793    0.1471268 
   93900    295.02042   -1001.6389    149927.46   -47535.789     4051.395   -51587.184   0.15281949 
   94000     293.0204   -1012.2712    149914.74   -47496.528    4023.9296   -51520.457   0.15349016 
   94100    291.00621   -1017.5815    149960.67    -47383.67    3996.2695    -51379.94   0.16009986 
   94200    293.66606   -992.17717    149956.39   -47370.296    4032.7961   -51403.092   0.15960017 
   94300    294.48595   -1009.9477    149960.06   -47385.722    4044.0554   -51429.777   0.15785315 
   94400     300.2677   -952.93796    149943.52   -47374.979    4123.4538   -51498.432   0.15562826 
   94500    297.75494   -958.98367    149952.06       -47382    4088.9471   -51470.948   0.15670312 
   94600    299.66309   -970.74234    149963.27   -47388.726    4115.1509   -51503.877   0.15652801 
   94700    292.89277   -979.61392    149950.32    -47428.34    4022.1768   -51450.517   0.15425598 
   94800    291.59075   -994.71327    149954.15   -47474.173    4004.2967    -51478.47   0.15720487 
   94900    286.84351   -999.66911    149909.09   -47492.164    3939.1048   -51431.268    0.1583682 
   95000    295.56737   -981.82146    149931.75   -47453.675     4058.906   -51512.581   0.15237023 
   95100    291.05448   -950.12195    149940.37   -47413.532    3996.9323   -51410.464    0.1587644 
   95200     291.5834   -999.31745    149928.37   -47443.154    4004.1958    -51447.35   0.15872519 
   95300    296.88349   -983.69952    149965.68   -47401.424    4076.9798   -51478.404   0.15069151 
   95400    293.01656   -972.81306     149968.9   -47366.839    4023.8768   -51390.716   0.15940068 
   95500    294.13436   -1015.7397    149985.23   -47387.274    4039.2271   -51426.502   0.15149459 
   95600    296.03043   -988.51437    149979.45   -47374.987    4065.2651   -51440.252   0.15935296 
   95700     293.1371   -1034.4393     149965.7   -47416.422    4025.5322   -51441.954   0.15680068 
   95800     294.5642   -965.12693     149966.9   -47353.447      4045.13   -51398.577   0.15642615 
   95900    294.09353   -982.54732    149959.73    -47375.38    4038.6665   -51414.046   0.15991116 
   96000    295.03019    -974.6538    149970.87   -47342.991    4051.5291    -51394.52   0.15923326 
   96100    294.78265   -999.39701    150006.74   -47290.692    4048.1298   -51338.822   0.16289335 
   96200    297.41789   -1004.8314    150006.94    -47318.46    4084.3185   -51402.778   0.15671155 
   96300    294.30589   -997.02376    149984.57   -47335.949    4041.5827   -51377.532   0.16106211 
   96400    296.06346   -1001.7313    149982.65   -47388.268    4065.7187   -51453.987   0.15097855 
   96500    295.50534    -987.5117    149960.88    -47378.47    4058.0543   -51436.524   0.15945828 
   96600    295.83781    -975.2627    149956.93   -47430.703    4062.6199   -51493.322   0.15665862 
   96700    300.29672   -986.16421    149966.43   -47402.959    4123.8524   -51526.811   0.15001894 
   96800    296.08568   -972.54417    149966.66   -47424.306    4066.0239    -51490.33   0.16282406 
   96900    294.65159   -980.18527    149964.71   -47432.552      4046.33   -51478.882   0.15344874 
   97000    291.45621   -1001.6769    149945.13   -47505.637    4002.4492   -51508.086   0.15462877 
   97100    290.93822   -1032.3141    149947.08   -47469.926    3995.3358   -51465.262   0.15857748 
   97200    296.18255   -1014.9238    149959.58   -47417.404    4067.3541   -51484.758   0.15151446 
   97300    297.50891   -1007.5803    149996.81   -47301.776    4085.5684   -51387.344    0.1652764 
   97400    290.98449    -1032.774    149990.57   -47396.043    3995.9712   -51392.014   0.15747351 
   97500    297.70946   -999.42057    149971.28   -47367.112    4088.3226   -51455.435   0.15808813 
   97600    295.45562   -1011.0546    149986.77   -47304.499    4057.3715   -51361.871   0.16552653 
   97700    301.31341   -964.67958    150000.79   -47265.668    4137.8142   -51403.482   0.15622633 
   97800    294.40874   -1045.7591    149951.15   -47376.545    4042.9951    -51419.54   0.15960906 
   97900     297.1713   -1019.6306    149971.38   -47335.348    4080.9322    -51416.28    0.1637253 
   98000    290.67987   -1024.8803    149941.03   -47425.856     3991.788   -51417.644   0.15991361 
   98100    291.78481   -1012.7751    149912.54   -47407.269    4006.9617    -51414.23   0.15945366 
   98200    294.51814   -980.89619    149935.71   -47401.112    4044.4975   -51445.609   0.15844207 
   98300    300.19489   -991.39531    149943.31    -47336.59    4122.4539   -51459.044   0.16164813 
   98400    295.57588   -1000.2227    149933.02   -47379.578    4059.0229   -51438.601   0.15945743 
   98500    296.95719    -1009.293    149954.42   -47356.428    4077.9919    -51434.42   0.16061031 
   98600     294.0631   -983.75223     149936.5   -47363.474    4038.2485   -51401.723   0.15803963 
   98700    291.48365   -1016.7682    149963.11   -47334.737     4002.826   -51337.563    0.1611586 
   98800    293.60207   -1030.3896    149978.86   -47343.766    4031.9174   -51375.683   0.17001668 
   98900    296.79719   -988.73837    149960.48   -47410.721    4075.7947   -51486.515   0.14958517 
   99000    295.64505   -979.18046    149955.73   -47393.984    4059.9728   -51453.957   0.16150867 
   99100    291.61137    -1009.429    149954.99   -47463.374    4004.5799   -51467.954   0.15668416 
   99200    294.09145   -1014.5561    149979.05   -47472.469    4038.6379   -51511.107   0.15497203 
   99300    299.48367    -1001.253     149980.4   -47393.762    4112.6871    -51506.45   0.16124179 
   99400    297.00397   -1019.7315    149945.65   -47433.266    4078.6344     -51511.9   0.15368309 
   99500    296.02006   -991.45347    149954.18   -47385.838    4065.1226   -51450.961   0.15972106 
   99600    295.67145   -995.55531    149980.99   -47383.208    4060.3354   -51443.544   0.15771316 
   99700    292.78351   -997.71782     149968.1   -47428.924    4020.6764     -51449.6   0.15287182 
   99800    294.62517   -983.35715    149965.01   -47443.894    4045.9672   -51489.861   0.15799421 
   99900    288.62038   -974.48706    149945.86   -47500.426    3963.5059   -51463.932   0.15323179 
  100000    292.51942   -995.94749    149952.85   -47413.019    4017.0498   -51430.069   0.15874065 
Loop time of 51.0433 on 6 procs for 100000 steps with 4608 atoms

Performance: 846.341 ns/day, 0.028 hours/ns, 1959.122 timesteps/s
97.7% CPU use with 6 MPI tasks x no OpenMP threads

MPI task timing breakdown:
Section |  min time  |  avg time  |  max time  |%varavg| %total
---------------------------------------------------------------
Pair    | 37.678     | 37.908     | 38.476     |   4.3 | 74.27
Neigh   | 5.2919     | 5.4254     | 5.6469     |   6.2 | 10.63
Comm    | 4.4873     | 5.0204     | 5.4069     |  13.0 |  9.84
Output  | 0.1746     | 0.17572    | 0.18042    |   0.5 |  0.34
Modify  | 1.8403     | 1.8898     | 1.9298     |   2.1 |  3.70
Other   |            | 0.6238     |            |       |  1.22

Nlocal:        768.000 ave         774 max         761 min
Histogram: 2 0 0 0 0 1 1 0 0 2
Nghost:        1396.17 ave        1406 max        1386 min
Histogram: 2 0 0 0 0 1 1 0 1 1
Neighs:        0.00000 ave           0 max           0 min
Histogram: 6 0 0 0 0 0 0 0 0 0
FullNghs:      21853.0 ave       22036 max       21647 min
Histogram: 2 0 0 0 1 0 0 0 2 1

Total # of neighbors = 131118
Ave neighs/atom = 28.454427
Neighbor list builds = 6366
Dangerous builds = 0

undump              1
unfix               2
unfix               3
unfix               4




################################################
#######         Run Simulation         #########
################################################

reset_timestep      0
log                 log.run_${NAME}
log                 log.run_ice_295K_-1000atm_ML
