

read_data data.ice_${TEMP}K_${PRES}atm_ML group ice
read_data data.ice_295K_${PRES}atm_ML group ice
read_data data.ice_295K_-1000atm_ML group ice
Reading data file ...
  orthogonal box = (-0.072235353 -0.064209203 -0.064209203) to (57.342745 50.971329 50.971329)
  3 by 1 by 2 MPI processor grid
  reading atoms ...
  4608 atoms
  reading velocities ...
  4608 velocities
  read_data CPU = 0.032 seconds
read_data data.liq_${TEMP}K_${PRES}atm_ML add append shift ${X_HI} ${YZ_LO} ${YZ_LO} group water
read_data data.liq_295K_${PRES}atm_ML add append shift ${X_HI} ${YZ_LO} ${YZ_LO} group water
read_data data.liq_295K_-1000atm_ML add append shift ${X_HI} ${YZ_LO} ${YZ_LO} group water
read_data data.liq_295K_-1000atm_ML add append shift 50.9713292026388 ${YZ_LO} ${YZ_LO} group water
read_data data.liq_295K_-1000atm_ML add append shift 50.9713292026388 0.0642092026386187 ${YZ_LO} group water
read_data data.liq_295K_-1000atm_ML add append shift 50.9713292026388 0.0642092026386187 0.0642092026386187 group water
Reading data file ...
  orthogonal box = (-0.072235353 -0.23581881 -0.23581881) to (104.39177 51.271357 51.271357)
  3 by 1 by 2 MPI processor grid
  reading atoms ...
  4608 atoms
  reading velocities ...
  4608 velocities
  read_data CPU = 0.016 seconds

write_data data.icewater_test
System init for write_data ...
WARNING: Communication cutoff is 0.0. No ghost atoms will be generated. Atoms may get lost. (../comm_brick.cpp:167)

# Define potential
#
pair_style sw
pair_coeff * * /data/emrosky-sim/Freezing_Simulations/Melting/MLmW_fancy/ML_mW.sw mW
Reading sw potential file /data/emrosky-sim/Freezing_Simulations/Melting/MLmW_fancy/ML_mW.sw with DATE: 2019-02-27

# Delete water and ice atoms that are overlapping
#
delete_atoms overlap 2.5 water ice
System init for delete_atoms ...
Neighbor list info ...
  update every 1 steps, delay 10 steps, check yes
  max neighbors/atom: 2000, page size: 100000
  master list distance cutoff = 6.0032907
  ghost atom cutoff = 6.0032907
  binsize = 3.0016454, bins = 35 18 18
  2 neighbor lists, perpetual/occasional/extra = 1 1 0
  (1) command delete_atoms, occasional, copy from (2)
      attributes: full, newton on
      pair build: copy
      stencil: none
      bin: none
  (2) pair sw, perpetual
      attributes: full, newton on
      pair build: full/bin/atomonly
      stencil: full/bin/3d
      bin: standard
Deleted 684 atoms, new total = 8532

# set timestep
#
timestep 10.0

# Define output
#
compute 1 all msd
thermo 50
thermo_style custom step temp press vol etotal ke pe c_1[4]

# Neighbor lists
#
neigh_modify delay 0 every 1 check yes

# Set fixes
#
fix 1 all momentum 10 linear 1 1 1 rescale
fix 2 all nph iso ${PRES} ${PRES} ${PCOUPL}
fix 2 all nph iso -1000 ${PRES} ${PCOUPL}
fix 2 all nph iso -1000 -1000 ${PCOUPL}
fix 2 all nph iso -1000 -1000 10000.0
fix 3 all temp/csvr ${TEMP} ${TEMP} ${TCOUPL} 837492
fix 3 all temp/csvr 295 ${TEMP} ${TCOUPL} 837492
fix 3 all temp/csvr 295 295 ${TCOUPL} 837492
fix 3 all temp/csvr 295 295 5000.0 837492


# Fix ice atoms in place
#
velocity ice set 0.0 0.0 0.0
fix 4 ice setforce 0.0 0.0 0.0

# Run 1.0 ns equilibration of water
#
dump 1 all atom 1000 eq.all.${NAME}.dump
dump 1 all atom 1000 eq.all.coexist_295K_-1000atm_ML.dump
run 100000
Neighbor list info ...
  update every 1 steps, delay 0 steps, check yes
  max neighbors/atom: 2000, page size: 100000
  master list distance cutoff = 6.0032907
  ghost atom cutoff = 6.0032907
  binsize = 3.0016454, bins = 35 18 18
  1 neighbor lists, perpetual/occasional/extra = 1 0 0
  (1) pair sw, perpetual
      attributes: full, newton on
      pair build: full/bin/atomonly
      stencil: full/bin/3d
      bin: standard
Per MPI rank memory allocation (min/avg/max) = 4.590 | 4.600 | 4.607 Mbytes
Step Temp Press Volume TotEng KinEng PotEng c_1[4] 
       0    136.84688   -1862.5886    277141.89   -83218.424    3479.9191   -86698.343            0 
      50    164.56972   -1482.6061    275364.87    -82893.59    4184.8912   -87078.481   0.87764079 
     100    168.53432   -576.34415    272373.49   -82625.744    4285.7081   -86911.452    1.9140598 
     150    177.78249   -693.59207    271236.37   -82311.999    4520.8827   -86832.882    2.9524627 
     200    178.56384   -576.93735    271841.82   -81999.215    4540.7519   -86539.967    4.0714179 
     250    182.22372   -999.62154    273424.49   -81700.652    4633.8199   -86334.472    5.1375148 
     300    188.97974   -1339.8986    274490.73   -81386.463    4805.6208   -86192.084    6.4121574 
     350    198.92592   -1355.4087    274314.23   -81073.991     5058.545   -86132.536    7.7844314 
     400    200.12418   -708.39355    273490.22   -80894.493    5089.0158   -85983.509    9.2980241 
     450    206.76934   -644.25189    273171.23   -80675.937    5257.9975   -85933.935    10.791663 
     500    206.51987   -983.50992    273821.83   -80453.529    5251.6537   -85705.183    12.383748 
     550    205.87386   -992.93625    274538.45   -80245.483    5235.2261   -85480.709    13.940839 
     600    210.97172   -1398.3624    274974.47   -80025.524    5364.8611   -85390.385    15.569306 
     650    217.88344   -1007.5904     274775.5   -79857.032    5540.6213   -85397.653    17.334511 
     700    218.66319   -1011.0626    274797.35    -79619.08    5560.4497    -85179.53    19.223283 
     750    227.14868   -1020.7292    274990.33    -79460.41    5776.2297    -85236.64    21.203358 
     800    226.40464   -972.21683    275091.68   -79282.013    5757.3094   -85039.323    23.214272 
     850    229.19429   -789.73214    275230.74   -79143.037    5828.2481   -84971.286     25.23238 
     900    229.06249   -1127.8646    275593.18   -78988.009    5824.8965   -84812.906    27.617012 
     950    232.64852   -887.93617    275600.05   -78840.008    5916.0868   -84756.094    29.855871 
    1000    235.93429   -1007.2712    275689.29   -78650.173    5999.6417   -84649.815    32.066474 
    1050    238.02471    -900.1063    275677.83   -78533.315    6052.7995   -84586.115    34.413191 
    1100    248.72774   -880.78495     275664.3   -78375.966      6324.97   -84700.936    36.701494 
    1150    245.71186   -1111.6641    276029.61   -78209.887    6248.2782   -84458.165    39.272772 
    1200    247.50198   -1150.4082    276321.93   -78113.901    6293.7997   -84407.701     41.66977 
    1250    246.96616   -910.93437    276479.17   -77999.904    6280.1743   -84280.078    44.136392 
    1300    252.11217   -992.62014    276733.64   -77930.619    6411.0336   -84341.653    46.771291 
    1350    258.90084   -1226.1093    276895.18   -77767.602    6583.6647   -84351.266    49.427958 
    1400    253.34126   -895.32622    276997.17   -77657.319    6442.2885   -84099.608    51.913607 
    1450    257.26775   -916.80685    277131.89   -77539.538    6542.1363   -84081.675    54.605072 
    1500     256.9328   -937.94741    277293.66   -77501.456    6533.6187   -84035.075     57.39621 
    1550    258.17105   -1080.2292    277312.93   -77384.213    6565.1067   -83949.319    60.162249 
    1600    260.56086   -901.17536    277005.74   -77305.221    6625.8779   -83931.099    62.718932 
    1650      262.572   -1102.9522    277108.43   -77239.894    6677.0198   -83916.914    65.530289 
    1700    266.50984   -1159.5909    277685.35   -77160.292     6777.156   -83937.448    68.307677 
    1750    262.62846   -1002.7701    278190.06   -77039.302    6678.4555   -83717.758    71.066204 
    1800    264.04645   -1214.3418    278345.11   -76992.555     6714.514   -83707.069    73.767149 
    1850    269.08159   -1056.0501    277899.95   -76894.527    6842.5539   -83737.081    76.615643 
    1900     274.8042   -905.65493    277220.76   -76846.811    6988.0758   -83834.886    79.098694 
    1950    274.43877   -846.67001    277048.82   -76785.971    6978.7832   -83764.754    82.220365 
    2000    272.77066    -785.1923    277576.43   -76668.833    6936.3643   -83605.197    85.063752 
    2050    275.69505   -1020.5138    278470.21   -76619.148    7010.7296   -83629.878    88.193302 
    2100    272.82339   -1287.7375    278856.82   -76564.726    6937.7052   -83502.431    90.959114 
    2150    279.01585   -798.49343    278328.75    -76473.27     7095.175   -83568.445    93.149797 
    2200    281.73495   -895.43326    277779.22   -76421.605      7164.32   -83585.925    95.453149 
    2250    281.72831   -1093.6535    277704.36   -76398.585     7164.151   -83562.736    98.360248 
    2300    277.49218   -951.15437     278119.3   -76370.248    7056.4293   -83426.677    101.88466 
    2350    278.72406   -1051.9979    278792.49   -76294.506    7087.7551   -83382.261    105.31977 
    2400    279.35539   -1015.2117    279340.21    -76286.11    7103.8095    -83389.92    108.17645 
    2450    279.43835    -907.2243    279368.61   -76308.789    7105.9191   -83414.708    110.96375 
    2500    278.25282   -1202.1693    279072.13   -76317.872    7075.7719   -83393.644    113.86104 
    2550     282.6503     -658.497    278299.22   -76242.266    7187.5967   -83429.863     116.4043 
    2600    282.09459   -812.34261     278023.3   -76249.331    7173.4653   -83422.797    118.92656 
    2650    285.98776   -1026.6234    278042.16   -76255.647     7272.466   -83528.113    121.94526 
    2700    283.69859   -1021.2557    278408.49   -76209.733     7214.254   -83423.987    125.37648 
    2750    278.44153   -1055.7394    279001.28    -76144.05    7080.5705    -83224.62    128.55474 
    2800    281.39122   -1095.4552    279106.67   -76174.351    7155.5791    -83329.93    132.27742 
    2850    282.36368    -1076.184    278810.25   -76132.598    7180.3082   -83312.907    134.87837 
    2900    285.58588    -1137.882    278402.18   -76095.438    7262.2462   -83357.684    138.06799 
    2950     286.4715   -828.86201    278083.17   -76089.576    7284.7671   -83374.343    141.11837 
    3000    283.82881   -1032.0428    278468.05   -76085.639    7217.5653   -83303.204     144.6147 
    3050    286.69227   -1318.9234    279019.22    -76045.45     7290.381   -83335.831    148.33928 
    3100    291.62538   -775.60862    278882.88   -75980.514    7415.8265    -83396.34    151.15675 
    3150    286.50893   -858.18731    278789.81   -75928.905    7285.7187   -83214.623    154.27869 
    3200    289.89934   -1082.1066    278898.25   -75887.354    7371.9345   -83259.289    157.32972 
    3250    289.11859   -1179.1421    278858.16   -75854.423    7352.0805   -83206.504    159.78402 
    3300    290.76269   -1071.5865    278947.67   -75870.962     7393.889   -83264.851    162.69986 
    3350    284.97654   -995.36823    279322.84   -75886.986    7246.7511   -83133.737    166.13039 
    3400    284.88869   -1269.8296    279858.28   -75881.634    7244.5174   -83126.152    170.44335 
    3450    284.14227   -1028.6097     279569.1   -75936.869    7225.5363   -83162.405    173.87786 
    3500    291.35236   -760.26126    278725.24   -75955.466    7408.8837   -83364.349    176.95867 
    3550    292.54587   -770.24214    278198.67   -75948.676     7439.234    -83387.91    179.98877 
    3600     293.6033   -1036.2379    278485.47   -75931.527    7466.1237   -83397.651     183.5851 
    3650    290.19018   -914.97734    279018.51   -75897.498    7379.3303   -83276.828    186.94863 
    3700    286.48454   -1175.6384    279486.11   -75843.603    7285.0986   -83128.702    190.17406 
    3750    291.21401   -1235.5788    279551.17   -75740.221    7405.3658   -83145.586    194.04683 
    3800    296.69875   -1352.0829    279286.16   -75741.347    7544.8387   -83286.186    197.21567 
    3850    294.78656    -931.2106    278786.32   -75705.576    7496.2131   -83201.789     200.1865 
    3900    295.38212   -837.54997    278590.06   -75675.346    7511.3577   -83186.704    203.83498 
    3950    289.18709   -555.94402     279046.5   -75659.513    7353.8225   -83013.335    207.59149 
    4000    290.89199   -1405.2402    279802.72   -75705.748    7397.1769   -83102.925    211.74327 
    4050     294.7957   -1181.5276    279947.61   -75709.855    7496.4455   -83206.301    215.67697 
    4100    290.48468   -1112.7067    279590.87   -75699.125    7386.8193   -83085.944     218.8699 
    4150    291.68657   -755.99703    278972.32   -75754.028    7417.3826   -83171.411    221.54523 
    4200    293.78583   -979.40681    278549.54   -75721.525    7470.7652    -83192.29    224.05434 
    4250    293.39067   -1042.0264    278591.56   -75699.849    7460.7166   -83160.566    226.69437 
    4300    294.90096   -803.74159    278988.92   -75676.023    7499.1222   -83175.145    230.06651 
    4350    291.65322   -734.72546    279406.91   -75670.873    7416.5345   -83087.407    232.57598 
    4400    291.90528   -1085.2971    279751.32   -75678.453    7422.9443   -83101.397     234.6675 
    4450    292.10496   -1008.4195    279570.78   -75662.131    7428.0219   -83090.153    237.36602 
    4500    292.40449   -926.31949    279338.01   -75640.012    7435.6387   -83075.651    241.00222 
    4550     293.1319   -846.81259    279066.15   -75634.577    7454.1363   -83088.713     243.5741 
    4600    294.89042   -766.79165    279173.58   -75613.863    7498.8541   -83112.717    246.80101 
    4650    292.13977   -1221.1177    279366.97   -75611.161    7428.9072   -83040.068    249.98276 
    4700     295.8406   -823.08108    279147.95   -75612.513    7523.0166    -83135.53    252.96246 
    4750    293.41181   -980.11779    279257.11   -75642.497    7461.2541   -83103.751    256.04901 
    4800    292.69133   -1109.8113    279665.95   -75603.064    7442.9328   -83045.996    259.60952 
    4850    294.74901   -914.31082    279840.75   -75554.353    7495.2582   -83049.611    262.23972 
    4900      299.295   -1312.6315     279803.9   -75568.019    7610.8596   -83178.879    264.48571 
    4950    301.68918   -793.46186    279335.72   -75591.042    7671.7418   -83262.784     267.5946 
    5000    294.07554   -914.61037    279249.43   -75589.518    7478.1324   -83067.651     270.1747 
    5050    297.09048   -749.09156    279236.52   -75601.417    7554.8001   -83156.217    273.09973 
    5100    293.77871   -937.73903    279427.96   -75575.128    7470.5841   -83045.712    277.40522 
    5150    293.32558   -1078.7547    279642.76   -75597.255    7459.0615   -83056.316    281.48421 
    5200    294.46262   -980.39854    279393.41   -75550.553    7487.9754   -83038.529      284.366 
    5250       295.49   -746.91594     279159.2   -75536.715    7514.1011   -83050.816    287.22422 
    5300     299.8759   -844.48335    279106.31   -75492.908    7625.6315   -83118.539    291.80943 
    5350    296.39395    -995.0022    279265.62   -75484.805    7537.0877   -83021.893    295.62422 
    5400    298.34504   -906.13587    279449.35   -75495.502    7586.7027   -83082.205     299.7469 
    5450    299.96235   -978.83238    279694.93    -75474.24    7627.8298    -83102.07    302.60846 
    5500    300.42036   -1106.8828    279820.48   -75474.394    7639.4766    -83113.87    305.96332 
    5550    297.17459   -1119.4705    279412.47   -75512.472    7556.9389    -83069.41    309.12326 
    5600    298.02637   -964.53903    278934.46   -75483.601    7578.5991     -83062.2    313.01718 
    5650    296.56278   -991.07173     278942.9   -75475.604    7541.3811   -83016.985    316.42932 
    5700    298.88575   -1210.7035    279352.49   -75417.087    7600.4525   -83017.539    320.63865 
    5750    299.18393   -939.35695    279639.54    -75444.48    7608.0351   -83052.515    323.98391 
    5800    298.67163   -1309.7628    279796.31   -75457.254    7595.0077   -83052.261    327.61539 
    5850    294.74418   -1360.1575    279580.63    -75447.42    7495.1354   -82942.555    329.53451 
    5900     296.5856   -809.54265    279074.57   -75415.944    7541.9614   -82957.905     330.9289 
    5950    301.25824   -921.93522    278739.92   -75399.245    7660.7834   -83060.028    333.58841 
    6000    305.04493   -869.53417    278913.43   -75454.454    7757.0763    -83211.53     337.8772 
    6050    294.36979   -852.65881     279383.2   -75491.506    7485.6149   -82977.121    341.98587 
    6100    295.60761     -1343.68     279896.5   -75477.678    7517.0917    -82994.77    345.48275 
    6150    292.52699   -1121.7101    279756.69   -75443.886    7438.7538    -82882.64    348.81491 
    6200    297.97159   -1006.6151    279169.25   -75451.859    7577.2062   -83029.065    351.93862 
    6250    300.86815    -883.1494    278914.43   -75411.999    7650.8636   -83062.862    354.27825 
    6300    300.08012   -1269.2782    279299.37   -75414.527    7630.8246   -83045.352    357.56396 
    6350    294.70866   -973.60396    279733.63   -75439.727    7494.2322   -82933.959    361.74093 
    6400    296.66493   -1186.4228     280025.2   -75365.005    7543.9786   -82908.984    364.85867 
    6450    300.05413   -922.21352    280041.56   -75363.494    7630.1636   -82993.658    368.66149 
    6500    298.26159   -1056.9873    279838.13   -75363.445    7584.5807   -82948.026    373.16923 
    6550    302.25091   -912.94731    279253.85   -75376.255    7686.0261   -83062.282    376.46973 
    6600    296.97066   -1000.6881    279085.94   -75467.864    7551.7532   -83019.617    379.72351 
    6650    296.93625   -1113.2472    279318.44   -75506.186    7550.8783   -83057.065    382.98645 
    6700    295.87994   -910.01615    279290.52   -75515.599     7524.017   -83039.616      387.059 
    6750    294.21476   -873.87689    279251.61   -75545.259    7481.6725   -83026.931    390.63406 
    6800    294.86969    -775.5682    279350.58   -75554.437     7498.327   -83052.764    394.40063 
    6850    292.99088   -866.22473    279660.26    -75555.95    7450.5502     -83006.5    398.67087 
    6900    296.05642   -1291.8332     279814.3    -75571.65    7528.5046   -83100.155    401.88857 
    6950    294.92334    -1353.827    279721.04   -75553.199    7499.6913    -83052.89    404.90823 
    7000    298.61997   -972.59808    279277.72   -75549.079    7593.6941   -83142.773    407.62545 
    7050    294.02722   -941.25663    279058.21   -75534.511    7476.9036   -83011.415    410.92008 
    7100     294.0607   -583.15797    279162.04   -75491.982     7477.755   -82969.737    414.13776 
    7150    295.49575   -825.49966    279616.28   -75498.178    7514.2472   -83012.425    418.03531 
    7200    294.26821   -1099.7271    279940.06   -75460.031    7483.0319   -82943.063    421.53018 
    7250    293.74779   -835.18463    279569.67   -75428.189     7469.798   -82897.987    423.17817 
    7300    299.44743   -1072.2685    278996.62   -75425.504    7614.7356    -83040.24    425.44492 
    7350    301.70774   -1095.0036    278867.59   -75449.843    7672.2138   -83122.057    428.11576 
    7400    299.41703   -991.16281    278989.17   -75452.162    7613.9625   -83066.124    432.22633 
    7450    297.87795   -1005.6515    279316.32   -75418.743    7574.8249   -82993.568    435.21243 
    7500    293.08541   -1012.1823    279568.38   -75441.791    7452.9541   -82894.745    437.89143 
    7550    295.85398   -1198.0473    279680.63   -75489.002    7523.3568   -83012.359    440.32622 
    7600     298.4636   -1310.1684     279489.5   -75500.531    7589.7177   -83090.249    442.90866 
    7650    298.78608   -816.89608    279188.79   -75480.261    7597.9181   -83078.179    445.40318 
    7700     296.8741   -751.14532     279378.5   -75482.173    7549.2978    -83031.47     449.4853 
    7750    292.09897   -1127.4546    279824.17   -75489.332    7427.8696   -82917.201    453.06427 
    7800    295.54055    -1016.209    279787.02    -75542.77    7515.3866   -83058.157    456.10831 
    7850    300.85999   -1162.7976    279264.02   -75537.971    7650.6562   -83188.627    458.58935 
    7900    295.21109    -791.9804    278834.21   -75495.103    7507.0085   -83002.112    462.23264 
    7950    300.41383   -815.28007    279052.85   -75516.156    7639.3107   -83155.466    464.68223 
    8000     293.8956   -1088.7387    279496.52    -75504.09    7473.5567   -82977.647    467.64395 
    8050    295.25383     -1397.22    279762.03   -75522.344    7508.0955   -83030.439    471.54641 
    8100    298.96189   -1002.8864    279584.97   -75570.173    7602.3888   -83172.562    473.56721 
    8150    295.59791   -967.97101    279506.72     -75613.4     7516.845   -83130.245    476.79248 
    8200     291.7909   -805.90412    279206.17    -75576.05    7420.0356   -82996.086    479.13708 
    8250    299.88147   -938.95646    278977.94   -75581.838    7625.7731   -83207.611    481.81067 
    8300    298.39551   -1051.1969    279188.87   -75563.403     7587.986   -83151.389    485.78674 
    8350    294.31571   -1258.0376    279690.54   -75619.857    7484.2396   -83104.097    489.98307 
    8400    298.93828   -1247.8667    279821.26   -75632.484    7601.7884   -83234.272    494.16008 
    8450    291.38412   -1245.1182    279650.45    -75625.88    7409.6915   -83035.572    497.18338 
    8500    296.02106   -1039.7365    279237.99   -75579.366    7527.6055   -83106.972    500.39227 
    8550    297.08416   -559.36496    278816.94   -75536.666    7554.6393   -83091.305    502.20466 
    8600    296.36738   -555.07836    278991.81   -75540.797    7536.4122   -83077.209    505.18237 
    8650    290.62565   -962.58579    279873.56   -75477.338    7390.4041   -82867.742    509.83076 
    8700    294.60137   -1306.1059    280342.97   -75444.765    7491.5039   -82936.269    513.44555 
    8750    297.15782   -1131.2542    280112.18   -75430.444    7556.5125   -82986.956    516.58093 
    8800    298.23958   -982.80345    279456.47   -75422.894    7584.0209   -83006.915    519.07226 
    8850    297.65145   -965.41804    278972.91   -75402.906    7569.0653   -82971.971    521.46131 
    8900      303.722   -953.49638    279176.54   -75414.388     7723.435   -83137.824    523.85462 
    8950    293.79097   -1025.6952    279829.94   -75374.333     7470.896   -82845.229    528.40547 
    9000    297.45882    -984.3319    279780.41   -75389.653    7564.1666    -82953.82    529.77027 
    9050    300.59649   -1083.5507    279400.41   -75375.598    7643.9555   -83019.554    531.19419 
    9100    299.33574   -842.46415    279034.27   -75393.089    7611.8955   -83004.984    533.94164 
    9150    295.68407   -739.42311    279179.94   -75408.242     7519.036   -82927.278     536.7445 
    9200    298.36826   -1173.1756    279795.48   -75353.419    7587.2931   -82940.712    539.06623 
    9250    306.46599   -1089.5485    280105.19   -75339.038    7793.2127   -83132.251    543.70943 
    9300     299.9351   -1005.2748    280022.72   -75399.296    7627.1367   -83026.433    546.53002 
    9350    301.21981   -1002.0888    279588.41   -75414.502    7659.8061   -83074.308    548.94532 
    9400    302.35071   -643.79206    279141.33   -75467.819    7688.5641   -83156.384    551.53552 
    9450    295.04989   -686.81061    278999.08   -75474.371    7502.9095    -82977.28    553.08402 
    9500    296.55633   -832.86672    279218.47   -75459.234    7541.2172   -83000.451    555.88406 
    9550    297.77672   -837.10633    279623.46   -75457.093    7572.2507   -83029.343    559.59087 
    9600    296.54519   -960.11435    279732.28   -75450.053    7540.9338   -82990.987    561.59777 
    9650     295.1556   -1096.0627    279496.93   -75407.735    7505.5975   -82913.333    563.22008 
    9700     299.6344    -816.3556    279220.26   -75413.151    7619.4902   -83032.642    565.32786 
    9750    298.20867   -1043.8109    279302.68   -75500.206    7583.2348   -83083.441    567.68314 
    9800    295.90998   -1066.0266    279507.61    -75472.77     7524.781   -82997.551    570.26335 
    9850    299.77725   -1139.9072    279560.15   -75470.569    7623.1227   -83093.692    572.92047 
    9900    298.63419   -914.90546    279372.18   -75427.281    7594.0555   -83021.337    575.53331 
    9950    296.69166   -918.05544    279257.45    -75438.81    7544.6584   -82983.469    576.87985 
   10000    300.18005   -1061.7742    279364.39   -75456.354    7633.3658   -83089.719    579.39027 
   10050    304.21398   -1052.5104    279723.39   -75454.266    7735.9456   -83190.211    581.39123 
   10100    296.80831   -964.23765    279829.94   -75444.068    7547.6248   -82991.693    584.14152 
   10150    297.72615   -1024.7508    279664.34   -75438.653    7570.9647   -83009.617    586.23321 
   10200     297.9099   -1159.5805    279646.03   -75474.591    7575.6373   -83050.229    587.93606 
   10250    298.97263   -1109.6099    279456.56   -75424.044    7602.6619   -83026.706    590.77215 
   10300    304.26683   -928.93298    279029.73   -75403.697    7737.2895   -83140.987     592.8495 
   10350    302.21507   -1221.2952    279093.87   -75435.755    7685.1148    -83120.87    594.73104 
   10400    298.11117   -1020.7864    279416.78   -75458.335    7580.7555   -83039.091    598.51353 
   10450     301.6341   -883.00672    279683.37   -75430.261    7670.3413   -83100.602    601.41971 
   10500    300.42501   -1197.3159    279737.64   -75411.793    7639.5949   -83051.388    604.17865 
   10550    301.43591   -1011.3466    279455.21    -75393.26    7665.3013   -83058.561    606.31827 
   10600    298.18615   -856.50896    279070.09   -75393.443    7582.6622   -82976.105    608.56973 
   10650    303.18209    -1054.872    279091.73   -75424.688    7709.7053   -83134.393    611.45236 
   10700    298.58206   -957.68577    279281.79   -75482.437    7592.7299   -83075.167    615.03896 
   10750    300.90681    -1090.111    279747.88   -75467.355    7651.8467   -83119.201    618.22017 
   10800    299.79208   -1241.1538    279926.87   -75471.535    7623.4999   -83095.035    621.82388 
   10850    294.98157    -888.2742    279665.52   -75479.897    7501.1721   -82981.069    622.87365 
   10900      297.426   -957.82893    279323.23   -75488.689    7563.3323   -83052.022    623.17695 
   10950    294.04417   -410.65842    278884.16   -75532.511    7477.3345   -83009.846     625.6932 
   11000    298.62994   -1021.7526    278954.03   -75562.449    7593.9475   -83156.397    628.22491 
   11050    295.15751     -1141.95    279277.61   -75550.046    7505.6461   -83055.692    631.17109 
   11100    293.53755   -900.95811    279488.23   -75587.253    7464.4517   -83051.705    634.40339 
   11150    298.48879   -1022.7229    279519.72   -75585.248    7590.3581   -83175.606    637.19834 
   11200    295.22782   -969.21066    279277.29   -75599.283    7507.4341   -83106.717    640.82424 
   11250    296.54682   -1030.2652    278959.42   -75591.922    7540.9751   -83132.897     644.4477 
   11300    292.30999   -736.24296    278916.93   -75618.821    7433.2356   -83052.056    648.10655 
   11350    293.13822   -1180.2155    279230.22    -75619.24     7454.297   -83073.537    651.08789 
   11400     295.5593   -883.76324    279376.91   -75637.664    7515.8634   -83153.528    654.80773 
   11450    294.84098   -1157.6459    279621.84   -75591.226    7497.5969   -83088.823    659.07338 
   11500    294.57634   -913.78001    279720.92   -75512.666    7490.8673   -83003.533    661.55689 
   11550     293.9165   -1234.3901    279924.31   -75493.882     7474.088    -82967.97    663.09947 
   11600    296.50921   -980.89526    279757.69   -75540.897    7540.0188   -83080.916    665.86201 
   11650    298.22919   -969.57799    279406.11    -75635.65    7583.7568   -83219.407     669.1394 
   11700    290.21683   -1179.2347    279494.89   -75598.262     7380.008    -82978.27    671.95287 
   11750    294.57197   -1060.0282    279388.13   -75644.689    7490.7563   -83135.445    674.33036 
   11800    288.97444   -827.66706    279201.45   -75681.858     7348.415   -83030.273    676.82392 
   11850    293.03598   -959.27007    279174.07   -75690.122    7451.6972   -83141.819    680.25744 
   11900    292.28838   -1328.9876    279323.99   -75668.018    7432.6862   -83100.704    682.97459 
   11950    297.26434   -965.51118    279270.04   -75648.987    7559.2213   -83208.208    685.85676 
   12000    294.77554   -1047.7403     279361.6   -75669.321    7495.9329   -83165.254    690.06909 
   12050      295.681   -1326.9593    279273.37   -75699.789    7518.9581   -83218.747    692.48758 
   12100    290.65547   -678.39781    278939.54   -75670.334    7391.1624   -83061.496    693.04625 
   12150    294.63216   -839.48618    278960.68   -75624.359    7492.2867   -83116.646    696.35629 
   12200    291.38334   -980.89938    279341.71   -75581.059    7409.6715    -82990.73    699.48265 
   12250    291.70853   -898.57268    279829.46   -75604.334     7417.941   -83022.275    702.86187 
   12300    298.09551   -1246.1166    280106.94   -75502.781    7580.3573   -83083.138    704.71762 
   12350    297.45194   -1228.3294    279877.58   -75556.464    7563.9919   -83120.456    705.55109 
   12400    296.41359     -1062.28    279217.19   -75526.171    7537.5873   -83063.758    707.35481 
   12450     300.3427   -973.80308    278736.97   -75517.126    7637.5018   -83154.628    708.40151 
   12500    298.08525   -751.97612    278590.61   -75541.917    7580.0965   -83122.014    708.86426 
   12550    296.66886    -1000.752    279128.78   -75529.071    7544.0786    -83073.15    712.19852 
   12600    291.11823   -1256.4847    279822.34    -75535.94      7402.93    -82938.87    716.23623 
   12650    292.86061   -1072.7237     280112.2    -75544.52    7447.2376   -82991.757    719.98939 
   12700    297.54936   -1510.7228    279851.54   -75566.798     7566.469   -83133.267     722.7793 
   12750    296.97218   -1049.0787    279007.12    -75564.68    7551.7919   -83116.472    724.35542 
   12800    293.45752   -873.15582    278562.66   -75594.305    7462.4164   -83056.721    724.90034 
   12850    291.10091   -859.89056    278954.95   -75625.192    7402.4897   -83027.682    728.50885 
   12900    295.42519   -943.59386    279729.87   -75584.866    7512.4531   -83097.319    731.45854 
   12950    292.52878   -1429.4179    280305.56   -75569.348    7438.7994   -83008.148    735.61992 
   13000    298.17243   -1385.6957    279818.82   -75542.739    7582.3134   -83125.053    737.90981 
   13050    298.76551   -869.50035    278902.51   -75532.011    7597.3949   -83129.406    739.41829 
   13100    299.51266   -864.24545    278593.76   -75495.969    7616.3944   -83112.363     740.8827 
   13150    293.15862   -790.62764    279017.13   -75513.707    7454.8158   -82968.523    744.50051 
   13200    299.76152   -948.07224    279619.45   -75532.143    7622.7229   -83154.866    748.67571 
   13250    297.46713   -1201.8641    279988.92   -75504.963    7564.3781   -83069.341    753.23588 
   13300    292.39276    -1021.451    279672.03   -75512.773    7435.3404   -82948.113    755.49777 
   13350    293.97923   -830.97998    278890.35     -75523.7    7475.6833   -82999.383    756.64588 
   13400    301.50685   -592.41325    278488.32   -75585.714    7667.1053   -83252.819    757.90195 
   13450    299.75483   -794.82837    278851.58   -75554.958    7622.5526   -83177.511    761.05295 
   13500    294.96641   -1380.3157    279676.54   -75526.351    7500.7865   -83027.137    764.90915 
   13550    293.19335   -1354.0424    280061.14   -75498.765    7455.6988   -82954.464    767.55629 
   13600    295.82603   -1215.7144    279732.27   -75527.905    7522.6462   -83050.551    770.21335 
   13650    299.49937   -911.80756    278844.58   -75563.122    7616.0565   -83179.178    772.04096 
   13700    296.43272   -797.86818     278420.1   -75574.052    7538.0737   -83112.126    773.79726 
   13750    301.43834   -766.54073    278544.61   -75570.989     7665.363   -83236.352    776.71887 
   13800    299.08482   -1018.1086    279183.97   -75539.601    7605.5147   -83145.116    778.01255 
   13850    293.92728   -935.01694    279670.44   -75533.124    7474.3621   -83007.487    782.02297 
   13900    288.49326   -827.22373     279718.3   -75546.651    7336.1789    -82882.83    785.49809 
   13950    295.62021   -1221.3427    279414.75   -75558.822    7517.4123   -83076.234    788.52039 
   14000    296.79814   -1089.9709    278918.35   -75573.697    7547.3662   -83121.063    790.66857 
   14050     296.9105   -1083.5854    278985.09   -75583.597    7550.2234    -83133.82     795.1859 
   14100    297.00886   -1145.7787    278923.88   -75556.175    7552.7246   -83108.899    798.89602 
   14150    294.19159   -1143.6911    279201.89   -75560.218    7481.0835   -83041.301    801.58035 
   14200    295.11905   -1166.3831    279486.24   -75589.013     7504.668   -83093.681    803.50969 
   14250    291.61553     -924.575    279560.91   -75625.676    7415.5761   -83041.252    806.37003 
   14300    291.75194   -1033.5712    279565.76   -75624.136    7419.0449   -83043.181    808.20816 
   14350    292.02805   -782.76522    279299.59   -75650.499    7426.0661   -83076.565    810.22614 
   14400    299.37369    -751.1752    278942.09   -75651.732    7612.8604   -83264.592    812.95758 
   14450    293.84957   -782.81285    278960.83   -75638.289    7472.3861   -83110.675    816.56231 
   14500    295.28729   -1115.9652    279365.67   -75588.438    7508.9462   -83097.384     821.3456 
   14550    296.77622    -1062.099    279760.06    -75595.23    7546.8088   -83142.039    824.68711 
   14600    294.38737   -1018.8564    279826.49    -75605.14    7486.0621   -83091.202    827.60422 
   14650     298.4507   -1174.5716    279707.66   -75590.299    7589.3896   -83179.689    830.31315 
   14700     295.9821   -866.35658    279212.11   -75548.823    7526.6148   -83075.438    832.44596 
   14750    297.79193    -825.7782     278800.1   -75572.411    7572.6376   -83145.048    834.70857 
   14800    296.26006   -755.47079    279128.35   -75570.676    7533.6832   -83104.359    837.71898 
   14850    289.85476    -896.5593    279957.05   -75554.881     7370.801   -82925.682    843.04353 
   14900     295.0068   -1194.4504    280347.29   -75552.371    7501.8135   -83054.184    847.63626 
   14950    292.75044   -996.72339    279861.73   -75615.534    7444.4361    -83059.97    849.83094 
   15000     289.5689   -1030.6109    279036.13   -75630.251    7363.5316   -82993.782    851.13065 
   15050     292.5029   -860.42019    278390.48   -75679.354    7438.1413   -83117.495    852.51599 
   15100     295.0655   -783.58751    278498.64   -75682.634    7503.3062    -83185.94    855.05484 
   15150    293.94525   -1385.3965    279623.55   -75686.506    7474.8192   -83161.325    859.74525 
   15200    288.60736   -1110.1216    280006.32   -75711.216    7339.0804   -83050.297    862.80206 
   15250    292.78046   -1248.1174    279912.77   -75690.237    7445.1995   -83135.436    865.35908 
   15300    285.21013   -711.45681    279298.66   -75696.857    7252.6912   -82949.548    865.76826 
   15350    291.58376   -934.89048    279045.28   -75704.943    7414.7681   -83119.711    866.95481 
   15400    291.38971   -990.63357    278951.03   -75736.566    7409.8337     -83146.4    868.24376 
   15450    287.41077   -778.81731    278816.09   -75841.838    7308.6519    -83150.49    870.36663 
   15500    288.93918   -998.65711    278817.47   -75853.967    7347.5184   -83201.486    873.85605 
   15550    286.09259   -1011.3402    278790.68   -75874.398    7275.1315    -83149.53    876.55812 
   15600    289.19817   -1032.2557    278857.34    -75817.26    7354.1044   -83171.364     879.0046 
   15650    293.26911   -843.30308    279094.46   -75765.884    7457.6254    -83223.51    881.84385 
   15700    292.51202   -1204.6868    279398.03   -75715.824    7438.3732   -83154.197    886.88628 
   15750     296.5014   -1245.9701     279435.4   -75674.078    7539.8204   -83213.899    888.66051 
   15800    293.94167   -935.36338    279108.82   -75696.397    7474.7282   -83171.125    889.34313 
   15850    294.16152   -826.76924    278804.43    -75695.37    7480.3187   -83175.689    890.07737 
   15900     285.4478   -737.50945    278828.14   -75696.038    7258.7351   -82954.773    894.09914 
   15950    290.24126   -828.49593    279368.99   -75705.791    7380.6294    -83086.42     898.1579 
   16000    296.14737   -1333.7082    279767.69   -75663.829    7530.8174   -83194.646    901.45576 
   16050    294.46136    -1104.713    279333.31    -75688.91    7487.9434   -83176.853    904.54665 
   16100    295.29586   -946.31828    278894.02   -75707.342    7509.1642   -83216.506    907.93834 
   16150    292.70425   -874.95937    278786.01   -75692.483    7443.2614   -83135.745    909.77773 
   16200    295.57874   -772.11822     278874.5   -75609.038    7516.3577   -83125.396    913.40074 
   16250     294.9399    -1018.101    279140.17   -75596.915    7500.1123   -83097.027    918.37234 
   16300    294.07827    -758.0602    279246.83   -75573.411    7478.2018   -83051.613    922.21136 
   16350    293.88484   -831.74448    279527.17   -75526.074     7473.283   -82999.357    925.72377 
   16400    296.92213   -1226.7837    279888.13   -75571.676    7550.5192   -83122.196    930.50299 
   16450    295.54944   -930.75893    279707.46    -75556.48    7515.6125   -83072.093     932.6823 
   16500    291.67086   -982.20853    279382.66   -75556.681     7416.983   -82973.664    933.43061 
   16550    293.56426   -1137.3079    279258.76   -75637.112     7465.131   -83102.243    934.99886 
   16600    295.54616   -1220.9679    279093.87   -75624.486    7515.5292   -83140.015    936.05259 
   16650    294.71713   -1005.9235    278947.96   -75673.003    7494.4476    -83167.45    937.06675 
   16700    299.09006   -1112.0082    279212.41    -75644.79    7605.6479   -83250.438    939.62722 
   16750    294.33794    -1028.356    279859.24   -75604.581     7484.805   -83089.386    942.99824 
   16800    290.70687   -1253.2015    280119.34   -75564.506    7392.4695   -82956.975    945.77578 
   16850    294.80426   -1018.7954    279499.95   -75553.335    7496.6633   -83049.998    946.22514 
   16900    296.00225   -984.32184    278782.36   -75588.377    7527.1273   -83115.505    947.83392 
   16950    298.77752   -983.90025    278520.49   -75584.916    7597.7004   -83182.616    948.92833 
   17000    290.90006   -1040.7682    279006.22   -75590.593     7397.382   -82987.975    952.58928 
   17050    295.11027   -884.86532    279785.22   -75564.153    7504.4447   -83068.598    956.17187 
   17100    299.47712   -1238.8727    280257.19   -75545.241    7615.4908   -83160.732    959.14259 
   17150    294.71387    -1133.532    280210.94   -75557.208    7494.3646   -83051.572    961.69221 
   17200    295.59718   -1181.2357    279677.38   -75584.919    7516.8266   -83101.746    964.30816 
   17250    295.90159   -1242.1306    279112.21   -75602.729    7524.5676   -83127.296    966.44894 
   17300    301.24452   -693.43671    278696.02   -75636.861    7660.4344   -83297.295    968.13031 
   17350    295.99441   -1080.9148     278918.6   -75664.929    7526.9279   -83191.856    970.85641 
   17400    292.08609   -936.99869    279183.56   -75672.653     7427.542   -83100.195    974.96962 
   17450    294.50637   -1020.4536    279255.39   -75660.417    7489.0881   -83149.505    978.57368 
   17500    290.14275   -886.73522    279052.33   -75729.783    7378.1244   -83107.907    980.01281 
   17550    291.33748   -864.21378    278740.03    -75735.11    7408.5055   -83143.615    983.14973 
   17600      296.518   -900.86434    278814.99   -75739.041    7540.2424   -83279.284     987.3168 
   17650    293.05607   -932.78807    279243.99   -75704.266     7452.208   -83156.474    991.93133 
   17700    291.40287   -1155.3539    279631.42   -75724.384    7410.1681   -83134.552    996.95631 
   17750    287.88033   -1090.2922    279877.36   -75732.168    7320.5926   -83052.761    1001.7019 
   17800    293.25966   -1082.1006    279467.78    -75762.04     7457.385   -83219.425    1003.0115 
   17850    292.86489   -1093.0361    278639.11   -75810.999    7447.3463   -83258.346    1004.5994 
   17900    291.99185   -758.21812    278113.14   -75771.251    7425.1455   -83196.397    1005.4992 
   17950    292.66382   -874.16997    278695.53   -75807.229    7442.2332   -83249.462    1008.2763 
   18000    289.95344   -1206.0012    279525.95   -75782.878    7373.3103   -83156.188    1012.2709 
   18050    288.77458   -873.75636    279660.23   -75810.704    7343.3327   -83154.037    1015.7289 
   18100    292.14216   -1181.5212    279406.45   -75819.299    7428.9678   -83248.267    1017.8532 
   18150    288.79208   -1014.4894    279000.88   -75834.798    7343.7776   -83178.575    1019.5271 
   18200    291.80816   -1173.8072    278685.53    -75842.93    7420.4745   -83263.405    1019.9706 
   18250    287.26143   -900.94108    278500.76   -75879.708    7304.8544   -83184.563    1021.9596 
   18300    288.25827   -1287.6223    279004.65   -75841.241    7330.2034   -83171.444     1026.017 
   18350    289.37868   -1061.1577    279419.92   -75799.991    7358.6944   -83158.686    1028.1205 
   18400     287.9466   -823.12558    279611.94    -75821.21    7322.2777   -83143.488    1029.7572 
   18450     290.7114   -1011.9653     279358.6   -75806.608    7392.5847   -83199.193    1030.5344 
   18500    291.52545   -1206.3769    279096.12   -75774.283    7413.2853   -83187.568    1032.6125 
   18550    290.98871   -935.28228    278947.88   -75747.917    7399.6365   -83147.554    1035.0233 
   18600    293.27045   -959.87714    278962.15   -75752.445    7457.6594   -83210.104    1037.1607 
   18650    292.65055   -869.69888    279366.68   -75714.668    7441.8958   -83156.564    1039.4535 
   18700    288.96998   -1324.0584     279745.3   -75638.296    7348.3015   -82986.597    1040.7185 
   18750    294.32109   -977.04616    279710.38   -75630.141    7484.3764   -83114.518    1042.2983 
   18800    299.57819   -1226.5039     279437.1   -75577.252    7618.0607   -83195.313    1042.5118 
   18850    292.92078    -893.6793    278759.43   -75592.214    7448.7676   -83040.981      1040.69 
   18900    296.66927   -896.74498    278515.28   -75636.563    7544.0891   -83180.652    1040.9009 
   18950    290.92432    -871.8733    278853.14   -75684.192    7397.9991   -83082.191    1042.5685 
   19000    298.85591   -1377.1857    279603.76   -75649.655    7599.6939   -83249.348    1047.1248 
   19050    292.51909   -1111.3405    279678.44   -75672.621     7438.553   -83111.174    1051.0491 
   19100    296.23179   -946.41819     279263.5   -75661.544    7532.9641   -83194.508    1051.2495 
   19150     291.3915    -1068.872    279087.57    -75645.58    7409.8791   -83055.459    1052.7426 
   19200    290.31224   -912.91133    279111.95   -75630.086    7382.4342    -83012.52    1057.0071 
   19250    293.95982   -1149.6075    279391.31   -75610.834    7475.1896   -83086.024    1059.2388 
   19300    294.90645   -1169.3505    279529.45   -75611.956    7499.2618   -83111.217    1062.0804 
   19350    289.96899   -1255.4112    279456.07   -75594.946    7373.7058   -82968.651    1064.1701 
   19400    292.80408     -886.623    278852.67   -75582.862    7445.8001   -83028.662    1064.9778 
   19450    303.12582    -890.2732    278448.35   -75565.493    7708.2744   -83273.767    1067.2261 
   19500    298.75726   -1090.0017    278766.48   -75561.547    7597.1851   -83158.732    1071.8872 
   19550    293.71945    -1083.828    279531.31   -75593.426    7469.0773   -83062.503    1077.1625 
   19600    297.94272   -1192.7529    280003.23   -75604.882    7576.4721   -83181.354    1081.2714 
   19650    295.75474   -1240.8106       279744   -75591.793    7520.8332   -83112.627    1083.3198 
   19700    292.47221   -754.63224    279044.15   -75606.946    7437.3609   -83044.306    1084.3977 
   19750    293.26539   -736.56768    278709.13   -75596.601    7457.5308   -83054.132    1085.3456 
   19800    293.83498    -727.8527    278767.45    -75590.52     7472.015   -83062.535      1089.05 
   19850    288.46046   -865.87121    279223.65   -75587.921    7335.3448   -82923.266    1092.7674 
   19900    294.19915   -1196.3014    279691.66   -75566.848    7481.2756   -83048.124    1096.5086 
   19950    297.27028   -901.57767     280118.9   -75564.603    7559.3724   -83123.975    1100.9483 
   20000    297.47963   -901.76974    280094.78   -75575.701    7564.6959   -83140.396    1103.6566 
   20050    299.40646   -1114.1523    279568.32   -75604.772     7613.694   -83218.466    1103.3947 
   20100     298.2277   -1122.3693    278822.44   -75635.695    7583.7187   -83219.414    1103.9657 
   20150    289.84689   -833.07838    278240.21   -75696.632    7370.6008   -83067.233    1104.8412 
   20200    293.48209   -856.48119    278453.05   -75680.722    7463.0413   -83143.763     1109.471 
   20250    295.99206   -720.51181    279056.61   -75675.688     7526.868   -83202.556    1113.7932 
   20300    293.57155   -1278.1218    280039.69    -75662.67    7465.3162   -83127.987    1118.8421 
   20350    295.12256   -1073.5994    280265.21   -75618.981    7504.7573   -83123.739    1121.4886 
   20400    291.13462    -850.6344    279637.07   -75613.398    7403.3469   -83016.745     1122.327 
   20450    293.71731   -1274.9761    279265.94   -75632.818    7469.0228    -83101.84    1123.4126 
   20500    295.22622   -1003.1337    278963.48   -75666.841    7507.3932   -83174.234    1126.9724 
   20550     292.6246   -921.36932    278947.26    -75632.22    7441.2359   -83073.456    1129.8771 
   20600     290.3819   -910.50237    279194.95   -75622.011    7384.2057   -83006.217    1133.4927 
   20650    293.34132   -833.54565    279483.55   -75637.978    7459.4616    -83097.44    1136.9629 
   20700    293.90049   -1150.1674    279530.56   -75655.067    7473.6809   -83128.748    1140.3525 
   20750    294.55449   -1000.3112    279243.06   -75614.882    7490.3117   -83105.194    1144.3054 
   20800     294.0784   -906.58126    279052.02   -75648.311    7478.2049   -83126.516    1148.8465 
   20850    294.60011   -1072.6085    279248.43   -75616.093    7491.4717   -83107.564    1152.5005 
   20900    296.76429   -1209.1722    279601.38   -75614.657    7546.5054   -83161.162    1156.7858 
   20950     289.0304   -1023.6699     279675.6   -75636.621    7349.8381    -82986.46    1159.1369 
   21000    293.99592   -804.24033    279381.05   -75613.061    7476.1077   -83089.169    1161.1043 
   21050    289.22607   -1035.4226     278982.7   -75638.762    7354.8138   -82993.576     1162.724 
   21100    292.26517   -775.98327    278809.73   -75646.218     7432.096   -83078.314    1165.3581 
   21150    289.97071   -822.10296    279092.96    -75635.59    7373.7493    -83009.34    1168.8208 
   21200     293.7028   -1081.4523    279522.18   -75604.211    7468.6538   -83072.864    1173.9116 
   21250    291.71497   -1128.2226    279589.01   -75608.314    7418.1047   -83026.418    1177.2504 
   21300    292.33829   -919.56976    279287.87    -75605.04    7433.9553   -83038.995    1179.0323 
   21350    294.20347   -840.63628    278888.53   -75617.673    7481.3854   -83099.059    1180.8011 
   21400    293.66842   -678.88088    278813.42   -75608.827    7467.7795   -83076.606    1183.2143 
   21450    296.25406   -865.46994    279349.62   -75559.031    7533.5307   -83092.561    1187.8969 
   21500    299.23318   -1276.7105    279799.87   -75560.213    7609.2875     -83169.5    1190.1965 
   21550    293.99842   -1243.3624    279773.95   -75540.805    7476.1713   -83016.976    1193.7429 
   21600    297.97014   -953.32848    279226.93   -75539.984    7577.1692   -83117.153    1194.6929 
   21650    293.95623   -621.81829     278781.2   -75503.297    7475.0984   -82978.396    1194.5035 
   21700    300.55571   -961.92805    279062.42   -75470.297    7642.9185   -83113.215    1199.4481 
   21750    293.09419   -1073.9207     279726.7   -75484.836    7453.1772   -82938.013    1205.5691 
   21800    297.12171   -1233.2178    279972.43   -75455.523    7555.5942   -83011.117    1210.6391 
   21850    297.03995   -1177.7104     279916.4   -75437.434    7553.5152   -82990.949     1212.451 
   21900    300.23183   -851.31527    279486.24   -75466.209    7634.6824   -83100.891    1211.6095 
   21950    300.61974   -1053.2329    279259.41   -75476.997    7644.5466   -83121.543    1213.5885 
   22000    301.58374   -592.46871    279064.87   -75477.864    7669.0605   -83146.924    1217.7925 
   22050    296.96572    -965.2137    279367.11   -75446.321    7551.6275   -82997.948    1220.7157 
   22100    299.97837   -980.71175    279872.53   -75425.687    7628.2372   -83053.924    1226.1799 
   22150    301.72822   -1159.9018    280143.43   -75453.615    7672.7345    -83126.35    1230.3623 
   22200     298.7597   -1247.7028    279989.02   -75397.803    7597.2472    -82995.05    1232.7174 
   22250    295.68172   -958.38191    279421.57   -75394.944    7518.9765    -82913.92    1234.0258 
   22300    296.23429   -865.86716    279020.57   -75337.369    7533.0279   -82870.397    1236.0455 
   22350    301.08472   -1141.2869    279455.16   -75352.873    7656.3707   -83009.244    1240.8792 
   22400    299.31142   -969.60448    279969.33   -75377.339     7611.277   -82988.616     1243.543 
   22450    301.08722   -1288.1348    280079.82   -75376.724    7656.4344   -83033.158    1245.7971 
   22500    300.60408   -1016.6179    279579.71   -75360.673    7644.1484   -83004.821    1246.1336 
   22550    302.12411   -922.69532    279370.34    -75375.44    7682.8018   -83058.242    1246.9419 
   22600    298.42082   -972.82906    279458.95   -75431.703    7588.6297   -83020.333    1249.3101 
   22650    298.73322   -1113.0516    279444.27   -75397.116    7596.5739    -82993.69     1252.916 
   22700    301.24995   -878.62137    279388.34   -75428.673    7660.5724   -83089.246    1256.6156 
   22750    295.53424   -786.54517    279447.75   -75416.975    7515.2261   -82932.201     1259.114 
   22800    293.85068   -1070.0301    279565.94   -75423.651    7472.4143   -82896.066    1260.6835 
   22850    301.61123   -1291.8412     279530.1   -75430.104    7669.7596   -83099.864    1263.3982 
   22900    293.09418   -886.87314    279281.42   -75460.667    7453.1771   -82913.845    1262.3548 
   22950    297.03033    -797.7624    279241.74   -75476.175    7553.2706   -83029.446    1263.0466 
   23000    299.37475   -1068.0669    279504.84   -75507.069    7612.8876   -83119.956    1266.7486 
   23050    298.95543   -1141.9642    279741.88   -75446.077    7602.2244   -83048.301    1269.6876 
   23100    300.97696   -1084.3861    279774.43   -75435.607    7653.6305   -83089.238    1272.3356 
   23150    295.45667   -1002.1122    279470.31   -75445.001    7513.2535   -82958.255    1272.1607 
   23200    296.66771   -852.16519    279050.18   -75448.571    7544.0495    -82992.62    1273.0051 
   23250    298.68473   -1149.1069    279101.72   -75466.642    7595.3409   -83061.983    1274.1917 
   23300    298.49803   -883.67722    279233.61   -75486.013    7590.5932   -83076.606    1276.9548 
   23350    300.94511   -1198.1159    279508.68    -75494.47    7652.8207   -83147.291    1280.2852 
   23400    298.70532    -1202.901    279825.67   -75508.873    7595.8644   -83104.738    1285.3898 
   23450    292.93933   -965.30199    279667.88   -75511.797    7449.2394   -82961.036    1289.8843 
   23500    293.74109   -1098.5719    279386.82   -75556.886    7469.6276   -83026.514    1290.9693 
   23550    298.20753   -1017.7451    279288.92   -75550.291     7583.206   -83133.497    1292.4176 
   23600    298.06545   -751.56771    279231.64   -75524.766     7579.593   -83104.359    1296.9103 
   23650    298.83098   -1099.3323    279405.11   -75491.751    7599.0598    -83090.81    1299.9286 
   23700    301.25143   -1204.5159    279550.74   -75443.334    7660.6101   -83103.944    1302.2209 
   23750    299.17122   -856.65379    279363.61   -75441.198    7607.7119    -83048.91    1304.4373 
   23800    299.03794   -1086.5762    279250.03    -75415.35    7604.3226   -83019.673    1307.0395 
   23850    296.78071   -1027.5889    279226.85   -75433.586    7546.9228   -82980.509    1309.3201 
   23900    297.90034    -824.6607    279364.55   -75445.328    7575.3942   -83020.722    1315.6504 
   23950    294.55312   -1023.2345    279476.46   -75494.505    7490.2769   -82984.782    1317.5967 
   24000    299.97628   -1162.7296    279251.36   -75519.048    7628.1839   -83147.232    1319.6471 
   24050    294.37828    -864.1011    278775.65   -75483.334    7485.8309   -82969.165    1319.3094 
   24100    302.50618   -745.39036    278820.16   -75448.356    7692.5175   -83140.873    1323.2836 
   24150    295.87497   -964.86667    279335.37    -75460.73    7523.8906   -82984.621    1329.3306 
   24200     296.3694   -1180.7868    279828.36   -75473.684    7536.4636   -83010.147    1333.1063 
   24250    298.57492   -1319.6817    279931.15    -75501.16    7592.5485   -83093.709    1335.3993 
   24300    294.96723    -1008.292    279413.79   -75484.812    7500.8073   -82985.619     1335.976 
   24350    292.93172   -982.82422    278885.49    -75509.33    7449.0459   -82958.376    1335.6041 
   24400    297.48162   -682.66651    278869.59   -75477.655    7564.7466   -83042.401    1337.1774 
   24450    299.22676   -1183.5513    279609.21   -75535.697    7609.1243   -83144.821     1342.126 
   24500    296.44036   -1080.2015    279933.01   -75537.521     7538.268   -83075.789    1345.1753 
   24550    297.72881   -1045.1346    279702.98   -75514.505    7571.0324   -83085.538    1349.1442 
   24600    295.32047   -676.10397    279026.65   -75508.861      7509.79   -83018.651    1350.1009 
   24650    298.15003   -899.89168    278598.49   -75508.461    7581.7437   -83090.205    1352.5855 
   24700    298.79938   -856.79092    278874.07   -75458.609    7598.2561   -83056.865    1357.6707 
   24750    298.71399   -907.99289    279591.43   -75438.914    7596.0848   -83034.999    1362.3073 
   24800    295.91667   -957.88612    280049.59   -75361.686    7524.9509   -82886.637    1365.0889 
   24850    298.54522   -1058.4283    279980.47   -75328.094    7591.7932   -82919.888    1367.7108 
   24900    298.61916   -963.81795    279595.57   -75308.235    7593.6733   -82901.908    1368.6795 
   24950    298.30702   -812.11955    279368.01   -75347.566    7585.7359   -82933.302    1371.3559 
   25000    296.73575   -937.75777    279477.39   -75388.426    7545.7797   -82934.206    1374.2145 
   25050    297.93244   -1091.8562    279628.48    -75415.67    7576.2106   -82991.881    1376.3026 
   25100    293.49379   -1158.2076    279720.15   -75364.639    7463.3388   -82827.978    1378.9539 
   25150    301.51268    -918.4154    279560.58   -75408.886    7667.2536    -83076.14    1381.1495 
   25200     297.8171   -1096.0496    279437.68   -75435.917    7573.2775   -83009.195    1382.7582 
   25250    299.18388   -1050.0971    279495.15   -75494.569    7608.0337   -83102.603    1386.1619 
   25300    298.86996   -600.99057    279429.35   -75541.179     7600.051    -83141.23    1391.0472 
   25350    298.41203   -919.57083    279496.49   -75585.059    7588.4062   -83173.465    1394.4222 
   25400    293.60572   -1062.9783    279560.42   -75603.062    7466.1852   -83069.247    1396.6694 
   25450    297.88236   -1343.9705    279436.57   -75545.655     7574.937   -83120.592    1398.1584 
   25500    299.67173   -826.40374    279005.08   -75560.468    7620.4394   -83180.908    1401.3194 
   25550    293.94491   -710.56752    278889.14   -75592.582    7474.8106   -83067.393    1404.7294 
   25600    292.61088   -1330.1747    279457.94   -75594.982    7440.8871   -83035.869    1409.2054 
   25650    298.54306   -1150.7103    279702.42   -75603.547    7591.7381   -83195.285    1412.2536 
   25700    292.72795   -1179.2423    279539.06   -75581.282     7443.864   -83025.146    1413.3316 
   25750    292.35735   -930.32928     279251.5   -75573.425      7434.44   -83007.865     1415.371 
   25800    293.89486   -827.37721    279190.03   -75579.083    7473.5378   -83052.621    1418.5491 
   25850    298.06395   -1144.8132    279194.84   -75573.018    7579.5548   -83152.573    1418.8716 
   25900     294.7982   -881.82556    279066.18   -75520.138    7496.5092   -83016.647    1420.2421 
   25950    295.99329    -1214.405    279250.64   -75549.591    7526.8994   -83076.491    1423.0793 
   26000    298.62158   -930.15838    279335.85   -75526.085    7593.7349    -83119.82    1426.1552 
   26050    289.41914    -900.7164    279569.23   -75600.863    7359.7234   -82960.586    1429.0711 
   26100    291.25264   -1082.1506    279605.83   -75627.523    7406.3479   -83033.871    1432.1011 
   26150    292.21859   -991.72712    279410.84   -75630.504    7430.9115   -83061.416    1433.0435 
   26200    296.01248   -1295.5256    279192.59   -75626.777    7527.3874   -83154.165    1434.6728 
   26250    296.63936   -768.01978    278761.49   -75629.675    7543.3284   -83173.003    1436.5687 
   26300    297.60172   -873.14533    278625.76   -75661.724    7567.8005   -83229.525    1439.1571 
   26350    290.57419   -1140.9422    278880.37    -75681.09    7389.0956   -83070.186    1443.5215 
   26400    291.91688   -1030.4884    279536.82    -75662.11    7423.2392   -83085.349    1449.3456 
   26450    293.63463   -1232.8581    280172.81   -75619.083    7466.9203   -83086.004    1457.4238 
   26500     290.9806   -1191.6648    279909.02   -75623.211    7399.4302   -83022.641    1458.2192 
   26550    300.56781   -1068.2749    279037.61   -75632.976    7643.2263   -83276.202    1457.1806 
   26600    300.22492   -535.35907    278510.74   -75656.726    7634.5067   -83291.233    1457.5153 
   26650    294.77392   -835.30649    279044.97   -75639.023    7495.8916   -83134.915    1461.7272 
   26700     295.9221   -1061.6724    279849.22   -75590.675    7525.0892   -83115.764    1467.1493 
   26750     296.6836   -1513.1687    280283.69   -75590.591    7544.4536   -83135.044    1470.5108 
   26800    290.63366   -1115.6121    279731.55   -75646.127    7390.6079   -83036.735    1471.1659 
   26850    294.13885   -921.12657    278764.13   -75650.642    7479.7423   -83130.384    1472.4153 
   26900     297.1687   -832.26732    278511.84    -75616.61    7556.7891   -83173.399    1474.6743 
   26950    294.53743   -1022.6133    279195.24   -75641.767    7489.8778   -83131.645    1481.0155 
   27000    296.27727   -1246.3455    279870.78   -75631.596    7534.1207   -83165.717    1485.5759 
   27050    294.40104   -1148.5646    280103.81   -75638.141    7486.4096   -83124.551    1489.4541 
   27100    292.47932   -1247.1276     280022.4   -75595.361    7437.5417   -83032.902    1492.7998 
   27150    290.80956   -976.87313    279382.28   -75629.833    7395.0808   -83024.914    1494.7742 
   27200    292.72583   -839.62683    278682.48   -75618.931    7443.8101   -83062.741    1494.3777 
   27250    298.28808   -968.44883    278466.35    -75615.63    7585.2543   -83200.885    1497.5692 
   27300    295.50033    -720.6545    278560.27   -75612.117    7514.3637   -83126.481    1500.1792 
   27350    294.20967   -801.30705    279373.73   -75575.932    7481.5433   -83057.475    1504.8056 
   27400    297.38162   -1219.0089    280093.18   -75521.787    7562.2036   -83083.991     1509.905 
   27450    294.86979   -1298.6637       279955   -75546.493    7498.3295   -83044.822    1513.3256 
   27500    295.85993   -942.61539    279240.86   -75543.872     7523.508    -83067.38    1514.1309 
   27550    295.51372   -641.36281    278554.87   -75556.779    7514.7042   -83071.483    1513.1689 
   27600    294.04347   -814.72658    278628.71   -75562.815    7477.3169   -83040.132     1515.356 
   27650    295.51607   -1073.4398    279423.79   -75572.577    7514.7639   -83087.341    1522.4083 
   27700    293.13265    -1366.422    280230.59   -75568.355    7454.1554    -83022.51    1529.8076 
   27750    294.61045   -1454.3147    280078.13   -75538.627    7491.7346   -83030.361    1531.1272 
   27800    293.66647   -1036.2286     279088.6   -75556.906      7467.73   -83024.636    1531.2302 
   27850    296.52237   -599.61942    278314.71    -75529.79    7540.3534   -83070.143    1532.6349 
   27900    292.94833   -893.97696    278529.18   -75545.452    7449.4683   -82994.921    1537.2226 
   27950    296.02637   -1128.7068    279335.84   -75551.951    7527.7406   -83079.691    1542.2375 
   28000     297.2259   -1227.8138    280055.51   -75547.077    7558.2437    -83105.32    1547.6165 
   28050    290.04248   -984.21231    280120.55   -75526.408    7375.5746   -82901.983    1550.7783 
   28100    291.26287   -1248.9071    279591.69    -75553.35    7406.6082   -82959.958    1551.1425 
   28150    294.66984   -674.04799    278674.88   -75551.727    7493.2451   -83044.973    1549.7384 
   28200    299.91927    -721.6888     278368.8   -75565.516    7626.7343   -83192.251    1551.8027 
   28250    289.53939   -796.78107    278862.83   -75617.526    7362.7814   -82980.308    1557.2855 
   28300    292.23411   -1212.0648    279446.49   -75596.186     7431.306   -83027.492    1563.8883 
   28350    292.08533   -988.88553    279524.24   -75587.655    7427.5227   -83015.178     1565.539 
   28400    295.07217   -1131.6949    279326.29   -75544.669     7503.476   -83048.145    1567.5005 
   28450    293.24177   -872.81728    279013.77   -75548.113    7456.9302   -83005.044    1567.8038 
   28500    300.50439   -720.29664     278947.2    -75569.61    7641.6134   -83211.223    1570.7772 
   28550    296.72972    -1215.153       279306   -75581.187    7545.6262   -83126.813    1574.6371 
   28600    292.27146   -1028.7522    279430.53   -75558.704    7432.2558    -82990.96    1578.5678 
   28650    296.99817   -1027.9683    279509.74   -75578.708    7552.4528   -83131.161    1580.5034 
   28700    290.06085   -1008.2642    279582.14   -75582.594    7376.0415   -82958.635    1581.4447 
   28750    289.97568   -1061.5018    279433.84   -75585.336    7373.8758   -82959.212    1583.5047 
   28800    295.44509   -923.86906    279089.44   -75601.302    7512.9589   -83114.261    1582.6097 
   28850    299.78735   -1054.9668    278809.51   -75588.031    7623.3796    -83211.41     1582.938 
   28900    295.33954   -776.57582    278810.17   -75639.597    7510.2749   -83149.871    1585.2192 
   28950    297.09733   -1062.7881    279230.64   -75659.859    7554.9742   -83214.834     1590.651 
   29000    291.98863   -1101.6639    279536.29   -75674.039    7425.0638   -83099.103    1595.1601 
   29050    291.71036   -1175.8788    279365.82   -75668.044    7417.9875   -83086.032    1597.9523 
   29100    291.54269   -1024.9681    278918.02   -75696.418    7413.7237   -83110.141    1599.8372 
   29150    292.33214   -758.84787     278658.6   -75704.341     7433.799    -83138.14    1603.1948 
   29200    297.30031   -829.44514    279092.97    -75714.72    7560.1359   -83274.856    1607.6804 
   29250    290.43701   -1068.3934    279783.76   -75713.837    7385.6071   -83099.445    1612.7238 
   29300    285.67395   -1063.2421    279875.12   -75723.845    7264.4859   -82988.331    1615.8681 
   29350    294.76922   -1251.9546    279446.03   -75727.092    7495.7721   -83222.864    1615.4523 
   29400    294.75326    -947.6882    278775.89   -75715.505    7495.3662   -83210.871    1616.8843 
   29450    296.62772   -856.09299    278416.29   -75693.102    7543.0326   -83236.135     1620.534 
   29500    291.44875   -665.98001     278816.1   -75672.486    7411.3351   -83083.821    1625.5799 
   29550    295.36228   -1170.6732    279789.18   -75605.094    7510.8532   -83115.947    1633.1135 
   29600    293.90914   -1448.3729    280268.66   -75596.079    7473.9008    -83069.98     1637.452 
   29650     295.6951   -1418.7516    279893.66    -75582.06    7519.3165   -83101.377    1639.3169 
   29700    294.44097   -863.60777    278977.88   -75601.416     7487.425   -83088.841    1637.4255 
   29750    297.36029   -610.09608    278528.11    -75557.99    7561.6611   -83119.651    1638.9546 
   29800    296.71185   -850.84305    278897.25   -75527.196    7545.1718   -83072.368    1643.7268 
   29850    295.27023   -872.28951    279707.74   -75483.001    7508.5124   -82991.513    1652.6311 
   29900    296.10039    -1223.101    280210.69   -75484.468    7529.6227   -83014.091    1658.8891 
   29950    304.17825   -1237.5493    279931.06   -75492.724    7735.0371   -83227.761    1660.9898 
   30000    297.22703   -1094.0051    279357.02    -75476.79    7558.2725   -83035.063    1662.3061 
   30050    301.73232   -774.02719    279133.49   -75472.811    7672.8387    -83145.65    1664.7103 
   30100    298.61082   -1030.5786    279251.45   -75483.254    7593.4612   -83076.716    1668.5575 
   30150    301.77369   -1012.9613    279426.02   -75466.952    7673.8909   -83140.843    1671.0686 
   30200    296.94531   -824.14462    279702.76   -75487.674    7551.1086   -83038.782    1674.8541 
   30250    296.79915   -1364.1348    279820.94   -75507.507    7547.3917   -83054.898    1678.6542 
   30300    291.62235   -1221.0988    279596.12   -75556.197    7415.7495   -82971.947    1682.3573 
   30350    290.52713   -1145.3535    279445.24   -75574.719    7387.8989   -82962.618    1685.7176 
   30400    295.35498   -1225.1585    279126.34   -75612.836    7510.6676   -83123.504    1687.0188 
   30450    296.92311    -733.7324    278666.02    -75649.62    7550.5441   -83200.164    1687.6261 
   30500    291.86776    -818.1859    278639.67   -75638.502      7421.99   -83060.492    1688.8148 
   30550    294.48006   -934.30182    279041.39   -75568.813     7488.419   -83057.232     1694.195 
   30600    297.79416   -1427.6427    279800.01    -75536.79    7572.6942   -83109.484    1700.7826 
   30650    295.94059   -1331.3625    280254.75   -75487.113    7525.5594   -83012.672    1705.8272 
   30700     296.2522   -941.75694    279997.92   -75483.653    7533.4832   -83017.136    1705.5039 
   30750    296.49149   -1066.2739    279555.76   -75478.252    7539.5681   -83017.821    1704.5815 
   30800    302.96637   -749.57157    278993.24   -75496.402    7704.2198   -83200.622    1705.0049 
   30850    299.10047   -893.07508    278878.71   -75462.382    7605.9128   -83068.294    1707.9684 
   30900    298.65241   -1148.5818    279322.99   -75443.313     7594.519   -83037.832    1712.9668 
   30950    293.56678   -1138.4863    279888.46   -75469.308     7465.195   -82934.503    1716.7299 
   31000    295.10535   -902.69324    279985.35   -75470.127    7504.3196   -82974.447    1720.8643 
   31050    293.94968   -1214.2722    279743.88   -75501.552    7474.9318   -82976.484    1722.7905 
   31100    301.34327   -795.81019    278887.15   -75481.461    7662.9456   -83144.406    1723.9875 
   31150     300.5627   -628.13554    278446.64   -75460.887    7643.0963   -83103.983    1724.2853 
   31200     298.2383   -860.78437    278993.43   -75486.806    7583.9884   -83070.794    1729.2265 
   31250    297.30958   -1032.3108       280005   -75496.084    7560.3717   -83056.455    1735.6152 
   31300    298.24808   -1342.8658    280574.21   -75477.824    7584.2371   -83062.062    1741.6004 
   31350    297.31276   -1053.8126    279837.21   -75500.008    7560.4525    -83060.46    1741.4049 
   31400    295.11562   -885.41019     278877.3   -75520.104    7504.5809   -83024.685    1740.1082 
   31450    298.04611   -899.59515    278540.29   -75530.028    7579.1012   -83109.129    1740.4617 
   31500    296.86404   -816.26702    278995.46   -75573.053     7549.042   -83122.095    1745.1497 
   31550    294.24101   -1255.5003    279844.46   -75633.235    7482.3401   -83115.575     1752.698 
   31600     293.3939   -1275.9177    279805.93   -75576.034    7460.7986   -83036.832    1755.9021 
   31650    295.85856   -1021.4508    279317.23   -75556.905    7523.4733   -83080.379    1756.3254 
   31700    295.90594   -509.31129    279028.99   -75528.234    7524.6782   -83052.913    1759.8598 
   31750    298.39072   -841.83189    279270.72   -75497.157    7587.8644   -83085.021    1764.5612 
   31800    297.23848   -736.14602    279688.42   -75545.173    7558.5636   -83103.737    1768.2077 
   31850    293.75297    -1120.177    279946.65   -75513.166    7469.9297   -82983.096    1772.1252 
   31900    292.40571   -1059.8143    279617.92   -75492.911    7435.6697   -82928.581    1774.6095 
   31950    297.11717   -1069.2395    279092.98   -75488.558    7555.4789   -83044.037    1775.3822 
   32000    298.20073   -886.27685    278897.27   -75480.775     7583.033   -83063.808    1779.2362 
   32050    296.65679   -1099.7546    279256.02   -75502.644    7543.7718   -83046.416    1785.3823 
   32100    298.97709   -1082.7079     279896.9   -75512.978    7602.7752   -83115.754    1792.8754 
   32150    300.93484   -1490.4272    280019.78   -75555.159    7652.5596   -83207.719    1795.5954 
   32200     299.1923   -1192.5674    279253.68   -75576.111    7608.2478   -83184.358    1795.2064 
   32250    301.67199     -1020.52    278637.12   -75517.297    7671.3046   -83188.601    1793.6911 
   32300    298.81069   -727.46323    278356.52   -75516.313    7598.5438   -83114.857    1794.2621 
   32350     297.6851   -675.54402    278827.25   -75564.742    7569.9208   -83134.662    1798.0263 
   32400    292.55059   -1218.9109    279595.35   -75587.113     7439.354   -83026.467    1803.2185 
   32450    291.78239   -1044.1112     279933.9    -75524.46    7419.8191   -82944.279    1806.4228 
   32500    292.32345   -977.06436    279738.75   -75501.871     7433.578   -82935.449    1807.0984 
   32550    295.54851   -986.10121    279431.61   -75493.048     7515.589   -83008.637    1808.7296 
   32600    297.89311   -1020.7173     279209.9   -75517.784    7575.2104   -83092.995    1810.2417 
   32650    294.80252   -821.26388    279048.46   -75509.315     7496.619   -83005.934     1809.298 
   32700    294.23528   -825.32016    279073.58   -75515.607    7482.1943   -82997.801    1811.9481 
   32750    295.68188   -652.80731    279478.41   -75520.803    7518.9805   -83039.784    1817.5176 
   32800    293.10906   -1079.9636    279930.33   -75485.089    7453.5555   -82938.644    1823.1446 
   32850    296.43845   -1476.2639     279913.3   -75471.856    7538.2194   -83010.076    1824.8722 
   32900    300.07923   -877.49036    279355.24   -75453.826     7630.802   -83084.628     1825.166 
   32950    295.86672   -790.51258    279199.51   -75476.588    7523.6808   -83000.269    1826.4018 
   33000    298.93263   -842.64755    279523.94   -75482.221    7601.6447   -83083.865    1828.6761 
   33050    295.85182   -1068.5275    279869.73   -75467.096    7523.3019   -82990.398    1831.4409 
   33100    300.58894    -1106.841    279692.36    -75474.83    7643.7636   -83118.594    1833.0337 
   33150     292.8308   -736.87372    279453.91   -75462.176    7446.4796   -82908.655    1835.6757 
   33200    296.53462   -834.97206    279333.29   -75495.144     7540.665   -83035.809    1837.6104 
   33250    294.48731   -872.42598    279412.01   -75444.147    7488.6035   -82932.751    1840.0096 
   33300    299.30667   -878.33172    279550.95   -75426.375    7611.1563   -83037.531     1843.381 
   33350    298.67574   -823.73216    279572.91   -75420.056    7595.1122   -83015.168    1846.6479 
   33400    296.49164   -648.86381    279497.33   -75420.434    7539.5722   -82960.006    1847.8338 
   33450    296.13331   -1075.9748    279779.06   -75384.861    7530.4599   -82915.321    1850.6622 
   33500     294.4814   -1274.5104    279921.43   -75343.335    7488.4531   -82831.788    1851.5074 
   33550    306.10189   -1101.1665    279316.35   -75300.685     7783.954   -83084.639    1850.3078 
   33600    305.63693   -1068.2844    278896.97   -75323.313    7772.1302   -83095.443    1849.1093 
   33650     293.6454   -589.46137    279110.83   -75311.883    7467.1941   -82779.077    1853.2798 
   33700    305.19787   -1273.6612     280002.1   -75319.774    7760.9652   -83080.739    1859.9551 
   33750     300.0549   -1259.5996    280429.16    -75362.38    7630.1832   -82992.564    1864.7339 
   33800    300.72879   -1192.3369    280213.13   -75397.468    7647.3197   -83044.788    1865.7382 
   33850    300.81599   -1159.4784     279693.8   -75448.342    7649.5373   -83097.879    1865.9305 
   33900    297.11601   -924.91975    279162.08    -75453.76    7555.4493    -83009.21    1867.4121 
   33950    296.86578   -778.77391     279055.4   -75455.752    7549.0862   -83004.838    1871.8289 
   34000    300.21111   -762.27505    279160.37   -75455.374    7634.1556    -83089.53    1876.2717 
   34050    291.23761   -1018.3899    279684.14   -75484.706    7405.9658   -82890.672     1881.808 
   34100    294.66192   -1100.5202    279758.35   -75490.897    7493.0435   -82983.941     1884.066 
   34150    290.58823   -882.76788    279494.58   -75517.857    7389.4526   -82907.309    1883.7244 
   34200    300.17762   -1104.7812    279281.33   -75507.108     7633.304   -83140.412    1882.4418 
   34250    294.17101   -959.60819    279135.46   -75587.228      7480.56   -83067.788    1883.8073 
   34300    294.08506    -707.7969    279135.67   -75612.529    7478.3744   -83090.903    1886.3415 
   34350    292.72265   -1057.8427    279277.78   -75589.267    7443.7292   -83032.996    1891.3496 
   34400     291.8325   -1139.8155    279478.33   -75627.432    7421.0933   -83048.525    1894.4568 
   34450    297.58561   -1051.0523    279300.52   -75608.924    7567.3909   -83176.315    1895.1528 
   34500    295.07412   -877.30388    279052.59   -75654.017    7503.5255   -83157.543      1897.22 
   34550    292.72174   -688.00899    279112.22     -75598.9    7443.7062   -83042.606    1900.1628 
   34600    293.85629   -737.19577    279281.06   -75577.349     7472.557   -83049.906    1903.7346 
   34650    293.25249    -836.7699    279487.81   -75580.527    7457.2028    -83037.73    1907.3027 
   34700    293.25718   -871.59623    279839.94   -75549.007     7457.322   -83006.329    1911.1724 
   34750    287.30201    -1020.363    280084.01   -75643.198    7305.8863   -82949.084    1915.1317 
   34800    291.65882   -1088.9123    279725.43   -75622.149     7416.677   -83038.826     1915.423 
   34850    300.11637   -681.61394    278821.46   -75678.171    7631.7464   -83309.918    1914.1485 
   34900    295.33139   -1223.1279    278694.78   -75656.291    7510.0678   -83166.359    1915.8491 
   34950    295.63814   -1073.0312    278846.98   -75683.058    7517.8681   -83200.926    1919.8491 
   35000    294.71266   -1315.0877    279426.56   -75652.412     7494.334   -83146.746    1924.0154 
   35050      294.684   -991.27572    279611.03   -75689.329     7493.605   -83182.934    1927.2338 
   35100    294.29821    -978.4593    279316.25    -75690.53    7483.7946   -83174.324    1931.7463 
   35150    295.06273   -988.94514    279142.71   -75684.442    7503.2358   -83187.678    1934.2309 
   35200     292.0474   -881.85864    278951.65   -75655.127    7426.5582   -83081.685    1936.9618 
   35250    298.08106   -1083.3508    279128.18   -75669.329    7579.9898   -83249.319    1938.9349 
   35300    293.71459   -1101.4421     279380.3   -75601.011    7468.9537   -83069.965    1941.9398 
   35350    294.90104    -929.4042    279161.95   -75605.653    7499.1243   -83104.777    1944.6193 
   35400    292.65822   -980.28129    279121.19    -75574.71    7442.0909   -83016.801    1947.9031 
   35450    296.10389   -1171.5173     279236.2   -75611.102    7529.7118   -83140.813     1949.757 
   35500    292.95944    -867.4452    279338.99   -75608.568    7449.7508   -83058.319    1952.7789 
   35550    288.47163   -890.14505    279497.89   -75611.353    7335.6288   -82946.982     1956.384 
   35600    294.01103   -1018.7785    279666.05   -75551.415    7476.4918   -83027.907    1959.2918 
   35650    300.55756   -1144.7934    279896.82    -75557.79    7642.9656   -83200.755      1962.96 
   35700    300.41741    -1186.204     279792.7   -75568.457    7639.4015   -83207.858    1965.8608 
   35750    295.24581   -827.16987    279151.57   -75553.761    7507.8914   -83061.652    1967.7124 
   35800    290.30784   -794.48548     278803.7   -75554.743    7382.3225   -82937.065    1969.3155 
   35850    298.73881   -1070.0748     279202.4   -75556.659    7596.7159   -83153.375    1975.4195 
   35900    298.26504   -1144.0972    279679.59   -75502.753    7584.6685   -83087.421    1979.9659 
   35950    297.03419   -1262.2283    279762.51   -75522.676    7553.3687   -83076.045    1982.2185 
   36000    297.31366   -810.69011    279453.64   -75524.508    7560.4755   -83084.983    1981.5224 
   36050    295.05118   -823.13634    279325.03   -75579.262    7502.9421   -83082.204    1981.8764 
   36100    291.73412   -973.82387    279431.07   -75528.698    7418.5917    -82947.29    1984.5999 
   36150    297.74545   -1116.5953    279474.44    -75545.28    7571.4556   -83116.736    1987.1649 
   36200    293.80017   -952.32628    279311.73   -75572.628    7471.1299   -83043.758    1990.4348 
   36250    294.39868   -832.65136    279298.62   -75593.663    7486.3497   -83080.013     1992.127 
   36300     297.4121   -1045.7842     279560.6    -75602.52    7562.9788   -83165.498    1994.5666 
   36350    290.02291   -1076.6062    279714.16   -75616.945    7375.0768   -82992.022    1996.1151 
   36400    292.96419   -1009.4011    279359.57   -75621.765    7449.8716   -83071.637    1996.1909 
   36450    296.54848    -957.0531    278823.58   -75573.929    7541.0174   -83114.946    1994.1575 
   36500    296.43419   -994.98162    278969.15   -75509.968     7538.111   -83048.079    1995.4035 
   36550    299.04793   -1201.4496    279539.56   -75513.601    7604.5767   -83118.178    1999.3991 
   36600    291.79642    -1234.581    280074.18   -75563.276    7420.1759   -82983.452    2004.3156 
   36650    296.09748   -1215.2108    279846.89   -75572.049    7529.5488   -83101.598    2007.1795 
   36700    293.54664   -931.85767    279100.15   -75622.051    7464.6828   -83086.734    2005.5926 
   36750    298.53439   -597.72246    278734.25   -75622.104    7591.5179   -83213.622    2005.5305 
   36800    296.21887   -1158.3797    279306.33   -75621.014    7532.6358    -83153.65    2008.7692 
   36850     296.4931   -1189.1286    279787.01   -75599.618    7539.6091   -83139.227    2012.6925 
   36900    297.63809   -1037.0132    279671.94   -75590.916    7568.7256   -83159.641    2014.7352 
   36950    291.88577   -899.84795    279163.29   -75601.917    7422.4479   -83024.365     2014.824 
   37000    296.25031   -862.53372    278743.53   -75617.223    7533.4353   -83150.658    2013.2299 
   37050    299.69921   -833.81154    278847.19   -75618.847    7621.1384   -83239.986    2017.0403 
   37100    301.12714   -985.29798     279200.6   -75552.538    7657.4495   -83209.987    2022.6187 
   37150     298.7179   -976.87305    279746.42   -75533.118    7596.1842   -83129.302    2027.1986 
   37200     295.6197   -1314.5776    280111.86   -75536.621    7517.3993    -83054.02    2031.4455 
   37250    295.56136    -1023.684    279538.78    -75566.07    7515.9156   -83081.986    2032.2547 
   37300    294.57363   -924.50527    278806.02   -75605.629    7490.7984   -83096.427    2030.4352 
   37350      297.945   -811.03917    278631.12   -75586.738      7576.53   -83163.268    2031.1565 
   37400    297.82538   -961.49486    279297.63   -75546.444    7573.4881   -83119.932    2035.4984 
   37450    296.42825   -1407.4892    279971.62   -75521.299    7537.9602    -83059.26    2041.5393 
   37500    293.39103   -1044.6398    280051.49   -75479.443    7460.7258   -82940.168    2045.6434 
   37550    293.68594   -844.10766    279527.83   -75550.694    7468.2252   -83018.919    2044.0167 
   37600    296.37963   -1063.1109    278950.87   -75577.274    7536.7236   -83113.997    2043.2152 
   37650    296.71121   -677.57773    278653.19   -75588.817    7545.1556   -83133.973    2045.2545 
[...]
   90850    287.10574   -1042.1384    279401.04   -75660.225    7300.8952    -82961.12    4693.1744 
   90900    297.21545   -1412.7425    279673.61   -75646.107    7557.9782   -83204.085    4696.0509 
   90950    292.83553    -954.6723    279541.39   -75648.526    7446.5999   -83095.126    4692.6984 
   91000    290.24284   -1071.2523    279290.86   -75664.126    7380.6694   -83044.796    4688.6618 
   91050    288.23273    -953.3786    279161.47   -75704.592    7329.5538   -83034.146    4691.1339 
   91100     293.0487   -999.74762     279461.4     -75647.5    7452.0204   -83099.521    4692.8618 
   91150    291.04581   -739.16895    279523.31   -75611.845    7401.0884   -83012.933    4696.6124 
   91200    295.62059   -825.25702    279452.99   -75641.482    7517.4219   -83158.904    4697.3976 
   91250    292.45995    -682.5943    279148.83   -75608.336     7437.049   -83045.385    4694.1848 
   91300    292.20615    -981.3893       278920   -75618.877     7430.595   -83049.472     4695.287 
   91350    294.63496   -789.10116     278833.5    -75632.77     7492.358   -83125.128    4698.9067 
   91400    297.03072   -948.62399    278886.49   -75665.127    7553.2805   -83218.407    4702.8857 
   91450    293.78916   -922.15608    279240.82    -75608.95    7470.8498     -83079.8    4710.6762 
   91500    292.31895   -1196.6951    279808.33   -75653.568    7433.4635   -83087.031    4716.9584 
   91550    293.92418   -1113.0826    279987.48   -75612.634    7474.2833   -83086.918    4718.5089 
   91600    293.92225   -1184.7383    279711.02   -75629.992    7474.2344   -83104.227    4719.9286 
   91650    296.01899   -990.71184    279473.03    -75604.18    7527.5528   -83131.732    4717.0054 
   91700     292.0791   -1002.9478    279567.72   -75620.775    7427.3642   -83048.139    4720.4502 
   91750    295.40601   -960.86874    279375.31   -75595.138    7511.9653   -83107.103    4717.3797 
   91800     294.2031   -988.15076    278988.18   -75625.765    7481.3761   -83107.141    4713.8082 
   91850    293.17137   -785.64886    278754.26   -75632.756      7455.14   -83087.896    4715.8531 
   91900    296.30193   -1279.2029    278904.82   -75607.341    7534.7478   -83142.089    4720.8562 
   91950    298.68308    -822.4517    279331.24   -75596.371    7595.2989    -83191.67    4727.1117 
   92000     294.2419   -853.22477    279765.99   -75646.345    7482.3627   -83128.707    4739.3285 
   92050    290.57227   -1218.7722    279983.83   -75644.359    7389.0467   -83033.406    4742.8783 
   92100    296.38306   -1129.5145    279485.27   -75629.446    7536.8108   -83166.256    4740.7446 
   92150    286.22035   -725.21109    278620.99   -75666.242    7278.3804   -82944.622    4730.6893 
   92200    292.23404   -643.78444    278380.03   -75644.386    7431.3043    -83075.69    4729.5922 
   92250    299.07228   -1137.7399    279025.32    -75622.67    7605.1959   -83227.866    4739.8583 
   92300    295.22615   -1095.7454    279658.43   -75593.434    7507.3916   -83100.825    4747.4567 
   92350    294.66602   -1348.9817    279947.29   -75547.537     7493.148   -83040.685    4749.9569 
   92400    293.79692   -998.33317    279448.45   -75570.542    7471.0473   -83041.589    4745.0116 
   92450    299.99149    -1023.589    278675.07   -75597.846    7628.5708   -83226.417    4739.4643 
   92500    296.61186   -775.62694     278427.6   -75652.352    7542.6291   -83194.981    4740.3282 
   92550    285.75076   -930.29355    279158.71   -75676.041    7266.4391    -82942.48    4748.0193 
   92600    294.59534   -1272.0888     279857.3   -75636.925    7491.3505   -83128.275    4755.1773 
   92650    295.49799   -988.32679    279774.57   -75608.267    7514.3043   -83122.572    4759.3879 
   92700    292.79187   -984.04296    279408.17   -75614.423    7445.4896   -83059.912    4757.0922 
   92750     294.1478    -781.9215    278861.99   -75594.262    7479.9699   -83074.232    4748.5994 
   92800    297.75463   -1073.7788    279105.37   -75592.229    7571.6891   -83163.918    4750.1238 
   92850    297.31113   -852.45874    279618.86    -75537.07    7560.4112   -83097.482    4754.5198 
   92900    298.14379   -1087.4794    279966.26   -75521.252     7581.585   -83102.837    4758.9775 
   92950    298.14772    -1110.504    279926.42   -75491.471    7581.6849   -83073.155     4763.278 
   93000    295.62771   -992.52674    279769.95   -75424.932    7517.6028   -82942.535    4762.4771 
   93050    296.79813   -1023.1651    279677.13   -75401.951     7547.366   -82949.317    4765.6612 
   93100    302.69632   -1107.4586    279400.51   -75439.778    7697.3526   -83137.131    4766.0263 
   93150    301.13984   -973.26067    279095.82   -75473.917    7657.7725   -83131.689    4766.8463 
   93200    298.58125   -967.42098    279043.48   -75532.024    7592.7094   -83124.733    4770.2116 
   93250     300.3787   -827.25485    279076.95   -75527.489    7638.4173   -83165.906    4768.1107 
   93300     300.5428   -850.07923    279522.21    -75521.93    7642.5903   -83164.521     4773.822 
   93350    290.60758   -1363.0794    279916.71   -75516.871    7389.9445   -82906.815     4783.716 
   93400      294.555   -1006.1784    279673.46    -75474.75    7490.3247   -82965.075    4781.1396 
   93450    294.77544   -684.09121    279315.06   -75494.078    7495.9303   -82990.008    4778.5173 
   93500    299.29329   -959.66438    279359.62   -75523.762    7610.8162   -83134.578     4782.256 
   93550    294.86457   -985.05601    279563.95    -75481.13    7498.1968   -82979.327    4786.2628 
   93600    298.49119    -940.7687    279604.87   -75471.819    7590.4192   -83062.238    4791.0337 
   93650    297.00528   -902.92566     279394.6   -75453.398    7552.6336   -83006.032    4790.2717 
   93700    298.86511    -1304.634    279331.28   -75415.121    7599.9278   -83015.049    4791.4901 
   93750    302.57603   -842.49338    279413.75   -75463.183    7694.2938   -83157.476    4794.8331 
   93800    289.25654   -826.11056    279737.85   -75474.349    7355.5885   -82829.937    4801.2265 
   93850    299.75638   -1071.9231    279736.37   -75488.696    7622.5922   -83111.288    4807.0838 
   93900    297.62407   -846.20898    279303.97   -75480.936    7568.3689   -83049.305    4806.0146 
   93950    298.38227   -965.06977    278912.04   -75497.403    7587.6495   -83085.052    4803.7375 
   94000    297.36225   -885.28965    278863.39   -75546.802    7561.7112   -83108.514     4806.272 
   94050    293.69903   -880.85774     279119.1   -75609.806    7468.5579   -83078.364    4809.5708 
   94100    290.57073   -1284.2013    279475.52   -75615.511    7389.0074   -83004.519    4818.7127 
   94150    293.21532     -1200.39    279507.63   -75649.885    7456.2575   -83106.143    4823.1614 
   94200    297.19872   -814.79481    279309.49   -75616.458    7557.5526   -83174.011    4823.9019 
   94250    291.68036   -814.91994    279140.58    -75564.22    7417.2245   -82981.445    4825.1309 
   94300    288.09182   -828.62668    279035.77   -75558.749    7325.9707    -82884.72     4825.836 
   94350    292.78085   -1044.0291    279208.24   -75578.085    7445.2094   -83023.294    4828.0467 
   94400     292.9206   -871.42362    279674.69   -75575.202     7448.763   -83023.965    4836.0971 
   94450    297.81949   -1204.6269    279724.48   -75563.427    7573.3383   -83136.765    4840.5237 
   94500    297.18333    -1095.274    279225.16   -75599.403    7557.1613   -83156.564    4834.6162 
   94550     296.6789   -980.93057    278898.33   -75589.609     7544.334   -83133.943    4836.5514 
   94600    301.48964   -791.86553    278912.43    -75581.85    7666.6677   -83248.518    4837.8868 
   94650    291.05403   -1178.4702     279462.3   -75586.894    7401.2974   -82988.191    4848.5763 
   94700    292.04444   -1080.7806    279696.22   -75564.218    7426.4829   -82990.701    4853.2097 
   94750      295.943   -1095.8557    279526.33   -75616.904    7525.6205   -83142.525    4850.6902 
   94800    291.78046   -760.60552    279023.38    -75661.53      7419.77     -83081.3    4844.5803 
   94850    290.23116   -840.96426    278702.45   -75710.438    7380.3724   -83090.811    4846.5639 
   94900     286.9982   -725.37303    278987.85   -75707.088    7298.1606   -83005.249    4855.2961 
   94950    295.48649   -1034.0493    279704.44   -75648.038    7514.0119    -83162.05    4866.6244 
   95000    294.03275   -1156.0296    279851.36   -75711.159    7477.0442   -83188.203    4868.7606 
   95050    293.45776   -969.49105    279452.17   -75734.897    7462.4227    -83197.32    4865.5921 
   95100    292.36643   -831.14337     279006.2   -75701.885    7434.6709   -83136.556    4863.3595 
   95150    297.10208   -999.00601    278991.38   -75680.398    7555.0952   -83235.493    4865.5584 
   95200    292.71159   -1135.2206    279319.72   -75690.134    7443.4481   -83133.582    4870.7443 
   95250    290.97075   -1071.7038    279624.75   -75703.087    7399.1798   -83102.266    4879.8007 
   95300    286.22834   -828.38375    279503.83   -75731.975    7278.5836   -83010.558    4880.9439 
   95350    292.00303    -1302.854     279146.3   -75725.667      7425.43   -83151.097    4879.6304 
   95400    294.27392   -728.49374    278512.91    -75688.92     7483.177   -83172.097    4874.7667 
   95450    295.40582   -642.58775    278525.23   -75682.416    7511.9603   -83194.376    4882.4504 
   95500    291.85303   -888.51563    279085.01   -75650.723    7421.6155   -83072.338    4889.6029 
   95550     293.7817    -1089.155    279596.92   -75588.353    7470.6601   -83059.013    4898.9747 
   95600    296.77768   -1066.3001    279831.43   -75599.234    7546.8459    -83146.08    4905.8469 
   95650    295.98651   -1087.2527    279649.55   -75565.109     7526.727   -83091.836    4908.6015 
   95700    296.99946   -1257.7964    279161.88   -75566.983    7552.4857   -83119.468    4904.9288 
   95750    292.75471   -760.59596    278779.38   -75564.484    7444.5445   -83009.028    4901.7812 
   95800    290.63499   -936.90869    278862.55   -75551.445    7390.6417   -82942.087    4906.8235 
   95850    297.46548   -936.31146    279415.55   -75542.791     7564.336   -83107.127    4915.7252 
   95900    299.97604   -1500.6569    280030.74   -75534.871    7628.1779   -83163.049    4925.1559 
   95950    289.05712   -981.69828    280100.75   -75515.275    7350.5175   -82865.792    4927.6594 
   96000    299.31426   -1016.5655     279536.7   -75517.166    7611.3493   -83128.515    4922.5759 
   96050    292.04976   -512.66392    278802.94   -75517.764    7426.6181   -82944.382    4914.3177 
   96100    294.02795   -985.05564    278895.47   -75584.202    7476.9222   -83061.124    4915.0472 
   96150    293.33111   -1014.4446    279363.46   -75596.412    7459.2021   -83055.614    4920.3313 
   96200    292.06498   -983.49787    279715.66   -75575.748    7427.0052   -83002.753    4924.2747 
   96250    295.50637   -1114.9052    279798.26   -75596.461    7514.5173   -83110.979    4926.1695 
   96300    292.72811   -936.83353     279452.8   -75565.298    7443.8683   -83009.166    4923.4254 
   96350    297.49892   -1069.0158    279128.62   -75589.126    7565.1865   -83154.312    4922.2551 
   96400    286.70588   -920.78015    279179.28   -75608.886    7290.7272   -82899.613    4926.6868 
   96450    296.20838   -1082.6715    279478.07   -75571.354     7532.369   -83103.723    4933.7985 
   96500    299.86051   -1014.4831    279419.63    -75560.08      7625.24   -83185.321    4936.1659 
   96550    293.04244   -800.30249    279247.63   -75586.511    7451.8613   -83038.373    4939.0662 
   96600    291.71082    -888.6604    279048.74   -75658.814    7417.9991   -83076.813    4939.0249 
   96650    293.52461   -782.71117    278868.99   -75688.592    7464.1226   -83152.715    4937.0838 
   96700    298.44687   -1150.0422    278914.02   -75699.847    7589.2921   -83289.139     4939.769 
   96750    292.05032   -1089.4341    279179.84   -75733.987    7426.6325    -83160.62    4943.6054 
   96800    290.62527   -1186.1604    279473.75   -75752.593    7390.3944   -83142.987    4948.4074 
   96850    288.79981   -1235.8767    279449.04   -75741.864    7343.9743   -83085.839    4953.2862 
   96900     293.0482   -736.56951    279008.31   -75724.696    7452.0077   -83176.704    4951.8497 
   96950    295.83869   -932.96399    278879.68   -75720.242    7522.9681    -83243.21    4952.9753 
   97000    293.45178   -939.58092    278818.26   -75644.898    7462.2705   -83107.168    4955.4753 
   97050    298.10622   -1003.2983    278853.37   -75648.499    7580.6297   -83229.129    4959.6955 
   97100    292.06655   -975.98836    279101.15   -75647.319    7427.0452   -83074.364    4965.3129 
   97150    294.49112   -1088.6128    279229.36   -75682.227    7488.7002   -83170.927    4968.1898 
   97200    295.54137     -970.654    279177.51   -75662.879    7515.4073   -83178.286    4970.2055 
   97250    295.45727    -1084.715    279145.16   -75664.129    7513.2687   -83177.398    4973.3229 
   97300    293.36073   -929.04492    279075.19   -75611.547    7459.9552   -83071.502    4973.5866 
   97350    300.64435   -1064.7094    279115.87   -75585.574    7645.1726   -83230.746    4977.1041 
   97400    297.78768   -892.37712    279364.27   -75565.812    7572.5294   -83138.342    4985.8174 
   97450    295.30476   -1034.5287     279820.5   -75541.904    7509.3906   -83051.294     4996.262 
   97500     298.6923   -1085.5212     280140.2   -75555.945    7595.5332   -83151.478    5006.4741 
   97550    292.00751   -1174.7834    280206.74   -75544.884    7425.5439   -82970.427    5008.0393 
   97600    293.33426   -1214.8136    279702.56   -75532.377    7459.2822    -82991.66    5004.0006 
   97650    295.98776   -600.42566    279082.19   -75529.965    7526.7589   -83056.724    4999.3047 
   97700    295.90692   -1086.8302    278893.77   -75536.014     7524.703   -83060.717    4997.6878 
   97750     294.7729   -1051.7221    279041.84    -75529.14    7495.8656   -83025.006    4997.8676 
   97800    294.39417   -1421.3043    279551.67   -75547.058     7486.235   -83033.293    5006.6108 
   97850    293.89911   -1069.5942    279832.41   -75571.079    7473.6458   -83044.725    5013.3562 
   97900    296.78412   -982.93793    279650.32   -75563.941    7547.0097   -83110.951    5014.2183 
   97950    296.73232   -1219.9285    279144.18   -75556.507    7545.6924   -83102.199    5011.5752 
   98000    300.36705   -563.02488    278777.53   -75547.257     7638.121   -83185.378     5009.976 
   98050    296.53114   -1056.2345    279318.54   -75556.672    7540.5765   -83097.249    5017.9014 
   98100    293.91203   -1078.7672    279913.14    -75542.57    7473.9745   -83016.545    5027.8714 
   98150    294.80149   -994.84564    279984.39   -75563.389    7496.5927   -83059.981    5031.5618 
   98200    295.36292   -1154.7445    279670.52   -75534.011    7510.8695   -83044.881    5032.7044 
   98250    298.65907   -836.25889    279371.51   -75479.053    7594.6881   -83073.741    5030.3397 
   98300    297.28837   -1035.5767    279365.79   -75481.281    7559.8324   -83041.113    5033.5134 
   98350    296.65307   -826.05028     279247.5   -75431.087    7543.6771   -82974.764    5037.0508 
   98400    300.99192   -1202.6566    279337.53   -75463.545    7654.0109   -83117.556    5039.1662 
   98450    298.61353   -1193.8808    279468.19    -75492.53    7593.5303    -83086.06    5041.5991 
   98500    291.12655   -955.66967    279352.15   -75533.253    7403.1415   -82936.395    5046.5484 
   98550    290.86846    -689.8702    279337.69   -75524.162    7396.5785   -82920.741    5048.3399 
   98600    293.31869    -1350.834       279819   -75509.177    7458.8863   -82968.063    5059.2995 
   98650    294.80741   -1224.2814    280089.71   -75449.892    7496.7434   -82946.635    5064.0712 
   98700    297.61808   -1013.0938    279759.17   -75468.827    7568.2167   -83037.044    5061.6709 
   98750    299.37618   -904.22811    279372.31   -75436.866    7612.9238    -83049.79    5056.1998 
   98800    298.33064   -868.22816    279376.43   -75458.421    7586.3365   -83044.757    5058.4869 
   98850     294.5983   -1278.2291    279807.04   -75466.173    7491.4259   -82957.599    5066.4471 
   98900    297.94382     -1033.85    279757.67    -75470.68    7576.4999    -83047.18    5067.9999 
   98950     297.2579   -1001.7797    279473.88   -75455.667    7559.0576   -83014.725    5064.1229 
   99000    300.75601   -808.52331    279124.28   -75477.354     7648.012   -83125.366    5062.9082 
   99050    296.75733   -994.40804    279046.41   -75525.649    7546.3284   -83071.977    5063.6949 
   99100    301.65184   -1083.4137    279119.96   -75482.953    7670.7922   -83153.745    5066.0269 
   99150    299.48094     -1178.36    279313.52   -75546.531    7615.5877   -83162.119    5067.7055 
   99200    295.61252   -1156.6372    279316.62   -75610.402    7517.2167   -83127.619     5069.557 
   99250    293.27187   -886.15552    279288.41   -75642.889    7457.6955   -83100.584    5069.6605 
   99300    291.93251   -1001.3592    279293.13   -75666.173    7423.6367    -83089.81    5073.1194 
   99350    290.94425   -1122.3603    279184.71   -75710.164    7398.5059    -83108.67    5074.9941 
   99400    290.16803   -1220.4309    279255.77   -75738.715    7378.7672   -83117.482    5079.3475 
   99450    292.02729   -1149.0019    279223.99   -75725.546    7426.0468   -83151.592    5077.6896 
   99500    292.72834   -637.07196    278953.73   -75726.101    7443.8739   -83169.975    5075.1301 
   99550    289.53868   -1207.7545    278950.28   -75749.305    7362.7633   -83112.068    5072.4837 
   99600    289.78424   -983.36732    279010.29   -75755.726    7369.0078   -83124.733    5075.0166 
   99650    292.22851   -1083.4131       279164   -75703.551    7431.1638   -83134.714    5078.4805 
   99700    296.68816   -963.09188    279444.49   -75687.895    7544.5693   -83232.465    5085.2081 
   99750    296.35276   -1023.3998    279625.45   -75654.501    7536.0403   -83190.541    5091.8936 
   99800    294.56853   -1148.5736     279517.9   -75681.959    7490.6687   -83172.628    5091.4299 
   99850    292.65006   -988.84275    279077.34   -75728.821    7441.8834   -83170.705    5087.4884 
   99900    293.42474   -821.13602    278881.15   -75709.317    7461.5831     -83170.9     5088.847 
   99950    291.36838   -582.90725     278947.2   -75688.587    7409.2912   -83097.878    5096.0839 
  100000    292.21678    -1098.658    279370.68   -75689.414    7430.8654   -83120.279    5104.9873 
Loop time of 247.972 on 6 procs for 100000 steps with 8532 atoms

Performance: 348.427 ns/day, 0.069 hours/ns, 403.272 timesteps/s
99.4% CPU use with 6 MPI tasks x no OpenMP threads

MPI task timing breakdown:
Section |  min time  |  avg time  |  max time  |%varavg| %total
---------------------------------------------------------------
Pair    | 71.237     | 128.97     | 194.32     | 434.9 | 52.01
Neigh   | 30.972     | 36.417     | 40.033     |  61.2 | 14.69
Comm    | 7.1967     | 76.159     | 139.29     | 604.8 | 30.71
Output  | 0.14741    | 0.15044    | 0.16365    |   1.5 |  0.06
Modify  | 5.1544     | 5.2038     | 5.2694     |   1.6 |  2.10
Other   |            | 1.076      |            |       |  0.43

Nlocal:        1422.00 ave        1459 max        1394 min
Histogram: 2 0 0 1 0 1 1 0 0 1
Nghost:        2007.33 ave        2057 max        1974 min
Histogram: 2 0 1 0 0 2 0 0 0 1
Neighs:        0.00000 ave           0 max           0 min
Histogram: 6 0 0 0 0 0 0 0 0 0
FullNghs:      39341.7 ave       39937 max       38093 min
Histogram: 1 0 0 0 0 1 0 1 1 2

Total # of neighbors = 236050
Ave neighs/atom = 27.666432
Neighbor list builds = 20835
Dangerous builds = 0

# Create data file for import to other simulations
#
write_data data.${NAME}
write_data data.coexist_295K_-1000atm_ML
System init for write_data ...

Total wall time: 0:04:08
