LAMMPS data file via write_data, version 29 Oct 2020, timestep = 100000

8522 atoms
1 atom types

-0.26421238146443926 104.59877526810928 xlo xhi
-0.12489486093297586 51.028330056191464 ylo yhi
-0.12489486093297586 51.028330056191464 zlo zhi

Masses

1 18.015

Atoms # atomic

2082 1 1.3064010732827087 50.70863320572901 1.7742458106172534 0 -1 1
2700 1 22.18417062050448 49.56154173331553 -0.028625682768740904 0 -1 1
1987 1 5.82603582895417 0.9309666582500893 0.4366101921229478 0 0 1
2115 1 15.510884602775906 1.3234754755406777 3.220828834076022 0 0 0
2086 1 13.77598422444946 50.835035271926415 1.647084711886248 0 -1 1
2626 1 25.113478187369097 1.4398260870827213 0.3226378235790263 0 0 1
2707 1 26.704638143410634 -0.055254853523575787 2.190460573853342 0 0 1
2628 1 31.556933197391494 0.9369533070507989 0.42902903605467946 0 0 1
1991 1 2.8122789470706353 4.106030388828949 0.5338996043639622 0 0 1
2088 1 4.55224033673339 2.847051116264742 2.210229134966147 0 0 1
2095 1 9.15364686317551 4.188701519521391 0.47484520084064186 0 0 1
2089 1 11.075600896861328 2.7931768809797406 2.175962107329239 0 0 1
2092 1 17.624902489035744 2.575390061430151 1.9500472740725652 0 0 1
2091 1 15.786234449685956 4.55722399155682 0.6750544396577255 0 0 1
2709 1 23.521427340077953 2.7582663336598814 1.8346010358451663 0 0 1
2767 1 25.234083206520914 4.263586777014394 3.3404322317766897 0 0 0
2711 1 29.95328639578198 2.7106533695035258 1.8815506987246993 0 0 1
2710 1 28.488158876307736 4.732814325813198 0.20049955019322646 0 0 1
2093 1 1.3641770763475705 6.312363400213648 1.6646706417034354 0 0 1
2096 1 7.965218922463443 6.074705162252174 2.014712432526907 0 0 1
2000 1 6.327266021435514 7.672928100045354 0.2255122910508679 0 0 1
1639 1 9.452086992385993 7.6836295802841725 3.323530655711279 0 0 0
2099 1 14.182095024694407 6.262969615107205 1.8573329504616791 0 0 1
2083 1 12.481668699709116 7.5586202557596875 0.3192674997050342 0 0 1
2712 1 20.5193220475177 6.03105988812483 1.8144719001675265 0 0 1
2199 1 18.974729541832218 8.18383941524282 0.5287282947042308 0 0 1
2719 1 25.070095970533977 7.523257879395313 0.3776216239558423 0 0 1
2714 1 26.702712317191715 5.7698048702328375 1.899926671388068 0 0 1
2716 1 33.180206027678715 5.833536682137305 2.240387650745778 0 0 1
2715 1 31.941451164430866 7.425878789784664 0.39468531159920206 0 0 1
2004 1 2.846504144936662 10.842035718317236 0.27948047138410465 0 0 1
2101 1 4.725809201738536 9.115618183276553 2.0192370534181863 0 0 1
2006 1 9.187602349998796 10.67866436181676 0.6187713548101063 0 0 1
2085 1 11.241499857243136 9.312858563293108 1.8778722268541466 0 0 1
2078 1 17.210821904025753 9.476639288750194 2.2277432844460145 0 0 1
1897 1 15.9980623062503 10.587201562519269 0.18138422775171126 0 0 1
2718 1 23.840163950851952 9.177070816285386 2.113164891414076 0 0 1
2641 1 22.234322435226005 10.94890893555252 0.585413419489611 0 0 1
2758 1 25.67460598508251 10.832944829378091 3.2564737355463818 0 0 0
2720 1 30.349905909083773 8.935073542941817 2.146518122762175 0 0 1
2724 1 28.893800019582315 10.758849697097336 0.4540280461273666 0 0 1
2036 1 1.43021180901057 12.502790225178082 1.9675115948293103 0 0 1
1395 1 -0.16178260274791262 14.267284320532571 0.3529354911677892 0 0 1
2100 1 7.745844363342929 12.233124770896968 2.328539205203784 0 0 1
2012 1 6.273783700876753 13.85747836885131 0.5163182306556037 0 0 1
1821 1 14.479663599386937 12.329614829327799 1.8106226641265535 0 0 1
2070 1 12.629278258958038 13.98026028024148 0.23581529216301533 0 0 1
2721 1 20.526483804880172 12.647776449709784 2.0387356792399283 0 0 1
2208 1 22.478666708483726 14.149028639356615 3.092537767037928 0 0 0
2723 1 27.43460262803122 12.435561088168493 2.110656793398905 0 0 1
2649 1 25.865235567133244 14.051228484254953 0.4056539774334261 0 0 1
2725 1 33.38592979844093 12.358102544454614 2.145672145987742 0 0 1
2653 1 31.89093260928034 13.946563712293873 0.4178582271225061 0 0 1
1803 1 4.605001650138532 15.74962940396838 1.931258991284115 0 0 1
1594 1 11.033820522312292 15.330616451862094 1.758862313421485 0 0 1
2013 1 9.523806551628734 17.181716378424387 0.21953550520533055 0 0 1
2090 1 17.42658510177638 15.618080004052851 2.178472378879105 0 0 1
1521 1 15.857800776449196 17.18855727530637 0.34818290824621373 0 0 1
2728 1 24.067576507141496 16.13237480300265 1.622514170626504 0 0 1
2655 1 22.205157706871162 17.310549254491693 0.1755804880193999 0 0 1
2730 1 30.209488982830052 15.614022425768075 2.028194124701736 0 0 1
2729 1 28.663990092326888 16.8982873972577 0.2041477466750683 0 0 1
2002 1 1.5358073594237225 18.681452522587982 1.8097627279200867 0 0 1
1393 1 2.980127911351401 20.436429478459797 3.327974402597289 0 0 0
2067 1 7.786024030818956 18.96376812488519 1.6075422746866193 0 0 1
2068 1 6.07612343457309 20.565503562117655 0.2404430178668187 0 0 1
2003 1 14.207904491584737 18.626840781759963 1.9780232104629096 0 0 1
1885 1 12.589450039970316 20.023815487450523 0.608646349465028 0 0 1
2731 1 20.672958980619903 18.857976345861957 1.970671812094818 0 0 1
2177 1 19.01466923684059 20.34773297669917 0.4075030172594094 0 0 1
2732 1 25.392613570751216 20.06364197849697 0.525798764876397 0 0 1
2733 1 27.26441287837705 18.757108585096397 2.035718798496541 0 0 1
2762 1 28.56106529066718 20.564104081216488 3.3359270682666833 0 0 0
2734 1 33.548320687666944 18.772115800816742 2.103300316140575 0 0 1
1935 1 4.641249233720632 22.283101230421096 1.7265582886000683 0 0 1
1891 1 11.174426947559532 21.84527752394065 2.070829780681948 0 0 1
2026 1 9.321539430862998 23.335591312835557 0.30588897777529545 0 0 1
1875 1 17.474307391547402 21.990155594472203 2.0965004134265235 0 0 1
2034 1 15.935950550647505 23.285080966774768 0.2542598093550234 0 0 1
2736 1 23.563781721952935 22.028164509485006 1.7494070603188814 0 0 1
2738 1 30.11893131929289 22.35041077708565 1.6781447319352636 0 0 1
2156 1 32.05443641407704 23.5283611204738 3.226639336763142 0 0 0
2661 1 31.850454002399616 20.605300536311923 0.40234599248106484 0 0 1
2087 1 1.0382901822367776 25.04161698512537 1.9496020441274884 0 0 1
2029 1 2.6790181607841443 23.777708768250967 0.1776183086270523 0 0 1
2080 1 7.927645078224849 25.04983615417869 2.1501759440434354 0 0 1
2073 1 14.213523104209823 25.205254701897257 1.8117837958842669 0 0 1
2740 1 20.669363149160567 25.14634833618199 1.4957590463835844 0 0 1
2748 1 22.539073713678647 26.521820992236446 3.319123328940601 0 0 0
2330 1 25.242793411220298 23.722680416382406 3.1616122614370616 0 0 0
2741 1 27.15097050431445 25.437850187742637 1.777590015232016 0 0 1
2742 1 33.24294155033372 25.407460140081913 1.763183208593958 0 0 1
1835 1 2.484260820121042 29.59109201867685 0.3567362540592636 0 0 1
2098 1 4.901961136864127 28.494869233875274 1.5918885414751034 0 0 1
2039 1 6.638607654109405 26.899732879235728 0.4107547653909084 0 0 1
1606 1 9.61072566293869 26.786790423910528 3.3289546756676067 0 0 0
2060 1 11.199929190978459 28.43168636078908 1.9319939119162624 0 0 1
2033 1 12.429020456298483 26.645803396092205 0.3144681787915692 0 0 1
1864 1 15.768559918108618 27.011504962149665 3.1254867195786824 0 0 0
1990 1 17.456372260394595 28.42152343068076 1.563770793993506 0 0 1
2743 1 23.949722215004346 28.41570557025403 1.771371069598363 0 0 1
2744 1 30.08365933364579 28.456352198487682 1.5184070253703577 0 0 1
1919 1 0.8632872506449503 31.46160888300138 1.7079320407158103 0 0 1
1834 1 7.77983500654374 31.461057408012074 1.8376098818395674 0 0 1
2040 1 9.801901314106281 30.131310458338408 0.32369124712505254 0 0 1
1783 1 14.37150895788375 31.486218502312834 1.997713709186692 0 0 1
2747 1 20.785152252024385 31.308156277982125 1.5589081188166396 0 0 1
2749 1 26.75285974107746 31.207158962963746 1.4610660882843207 0 0 1
2629 1 32.139913914908504 29.67309361225399 3.1026875123681 0 0 0
2746 1 33.362292409170294 31.404746917425797 1.5799855608358322 0 0 1
1998 1 2.55321642466405 32.91020307644797 3.161665998505747 0 0 0
1763 1 4.343334277486683 34.64736259426714 1.9128901531803688 0 0 1
1749 1 5.8856274128674855 33.034339026520165 0.1963870313651651 0 0 1
1702 1 10.731569443516598 34.70474066676036 2.4398418524518743 0 0 1
2049 1 12.502823625201879 33.30636862330827 0.8012387562129683 0 0 1
1685 1 17.544760413693744 34.63801690294483 1.546609890373285 0 0 1
2726 1 23.339180764549603 34.62211862402019 1.5165298518194452 0 0 1
2218 1 28.538622113020153 32.91321784099344 3.1614356098524117 0 0 0
2745 1 29.895179900186978 34.82828564985605 1.6872673785119718 0 0 1
1690 1 -0.07101055373276971 36.256921217776316 3.349327748859115 0 0 0
1633 1 1.2078082805101245 38.09842465842451 1.700719259635248 0 0 1
1754 1 2.588820518193809 36.34290982810264 0.20519137046018132 0 0 1
2109 1 5.7360501646662065 36.70042909938941 3.2443961214217167 0 0 0
1626 1 7.988184228868683 37.60311386305712 1.4674216725390883 0 0 1
1519 1 14.234890860741576 37.79584021532531 1.9453714914592197 0 0 1
1480 1 15.731998630679474 36.473990864171135 0.30871506913950997 0 0 1
1449 1 18.802128523343896 36.31195799300743 3.3458797907838975 0 0 0
2676 1 20.563386680118892 37.73606404957499 2.0162822081213116 0 0 1
2214 1 25.183326827737357 36.367305760236825 2.9959660474546252 0 0 0
2600 1 26.920855021649473 38.248779388560436 1.867885058657834 0 0 1
2735 1 28.561931143351078 36.82061398148357 0.3052806471185522 0 0 1
2751 1 31.610690375981527 36.2929153803611 3.2252007911382026 0 0 0
2504 1 32.89478496749222 37.88041307826337 1.5300103810693977 0 0 1
1559 1 9.420099004733004 35.84496994224087 0.07985196587143639 0 0 1
1456 1 4.2362095399810995 40.74214335949242 1.544152690954983 0 0 1
1547 1 9.439634170640407 39.1579242670404 3.00633133467696 0 0 0
1425 1 11.194429347948128 40.95557334827013 2.0228013576585173 0 0 1
2058 1 12.748216530361889 39.48985154699227 0.4114265438304402 0 0 1
1385 1 17.46963219127961 41.35340728438406 2.0797685327561197 0 0 1
1827 1 18.834089032858603 39.499588114285515 0.569240234747523 0 0 1
2203 1 22.3757978475417 39.44735499478512 3.3040904374356193 0 0 0
2422 1 23.89728188313368 41.386227871940946 1.7106123441892378 0 0 1
2266 1 30.175893252010056 41.33174946134105 1.8595698707600055 0 0 1
2136 1 -0.0839900158854199 42.720269152449404 3.27403458574303 0 -1 0
2069 1 1.6027998485350958 44.01681362771334 1.5816916638376801 0 -1 1
1377 1 6.04480834849231 42.70359165903523 3.0481710793737764 0 -1 0
2072 1 7.813295143816296 44.321047493147546 1.5568672114682147 0 -1 1
2071 1 9.55587777520193 42.6026063760564 0.2523830304132782 0 -1 1
2074 1 13.941550945346904 44.015059565045846 2.1419536083218382 0 -1 1
1969 1 15.745503385628513 43.234411841578186 0.42294282920189785 0 -1 1
2695 1 20.20940299672455 44.47476586703312 2.0429568965709612 0 -1 1
2690 1 21.995655433692498 42.94112830878828 0.6858024142949237 0 -1 1
2696 1 27.11606851149551 44.62082513233831 1.588486724967632 0 -1 1
2750 1 31.802419871273578 43.074400657928635 3.271618260517515 0 -1 0
1407 1 -0.12050008446315336 45.92861625852001 0.6020652280822704 0 -1 1
2138 1 2.9347425060082273 45.777675982491736 3.155881342320713 0 -1 0
2076 1 4.59879787706294 47.43903048053881 1.8595495976156846 0 -1 1
2077 1 6.233390794257688 45.92990953852538 0.16763817852842955 0 -1 1
2079 1 10.550645868916575 47.39951470595973 2.0534093838441527 0 -1 1
1973 1 12.351583538887905 45.83286473639367 1.0117467288736632 0 -1 1
2081 1 17.126039692397487 47.197298082765855 2.1628052154930093 0 -1 1
2118 1 18.797160238586933 46.06742906235104 0.4068374493706749 0 -1 1
2739 1 28.464625390581883 46.13561408555727 3.3098840038478046 0 -1 0
2704 1 30.209147540308553 47.610451971107395 1.6329754449575107 0 -1 1
2699 1 33.587053647580696 44.80182604837719 1.7156850461874504 0 -1 1
1977 1 2.8772062411969688 48.997801329555294 0.4205207543752205 0 -1 1
2084 1 7.534976285727197 50.481290692420046 1.8005982569299932 0 -1 1
1978 1 9.39014873884556 49.050777024703194 0.3883158337099848 0 -1 1
1982 1 15.585211780917158 49.12159048257041 0.40312422371842793 0 -1 1
2706 1 19.94458806185942 50.38940373587087 1.7990099118533094 0 -1 1
2701 1 23.32223414960982 47.669573092033914 2.1627484652954023 0 -1 1
2703 1 28.301579477912412 49.336028633870896 0.47826800069993525 0 -1 1
2708 1 33.17958759493968 50.47043960688919 1.96956008944011 0 -1 1
2131 1 2.8333681457072886 1.0582632772552096 3.4220314211634584 0 0 0
13 1 4.632723101957487 50.796786433097225 4.835758669276795 0 -1 0
754 1 8.702194127720107 1.0754156454654895 3.580798291405492 0 0 0
115 1 6.295580363707415 1.13249277001461 6.319260359035572 0 0 0
16 1 10.359920025843955 50.81928240766498 5.068085032118035 0 -1 0
22 1 12.330995392049413 1.412205737169213 6.422018823278556 0 0 0
17 1 16.80550938916376 50.697901980631684 5.046656498330482 0 -1 0
492 1 18.507505447592113 0.9285589419391669 6.497561532590352 0 0 0
1373 1 21.551754994272716 1.0770476368265893 3.640491621959902 0 0 0
766 1 23.227324117110943 51.01443633717862 5.4022151111797045 0 -1 0
1361 1 28.495884384295007 1.4439962624880813 3.6316095434349513 0 0 0
768 1 30.030624305098357 51.01641367766991 5.083379027795816 0 -1 0
773 1 33.25389139810824 2.3961343481594644 4.836454352785444 0 0 0
19 1 1.0410685596577225 2.6808597472979807 4.8232188506165725 0 0 0
122 1 2.832310455652811 4.18472187425833 6.389409361861505 0 0 0
2727 1 25.388251639030525 32.961226723066964 -0.049555318508950105 0 0 1
2141 1 6.138008819440582 4.837161361535796 3.3725212834988425 0 0 0
20 1 7.539324421272808 3.30250070376103 4.9752535333208785 0 0 0
1399 1 12.638409803262126 4.590733329474182 3.4842226948283157 0 0 0
23 1 14.375702776596201 2.9016548906918658 4.984067263054878 0 0 0
2768 1 19.04976438403385 4.292657478748185 3.391335083979638 0 0 0
770 1 20.328041620415554 2.6059215051584976 5.130644510621166 0 0 0
772 1 26.68098499218754 2.887773723614878 5.22544241018284 0 0 0
1368 1 31.68156349276772 4.236472490105182 3.5630567681935887 0 0 0
2128 1 2.799092033515393 7.774385426875862 3.3898472863502223 0 0 0
26 1 4.128530141694446 5.973485272079255 5.0316555638805545 0 0 0
29 1 11.052606976118899 5.986831208174938 5.058952481561158 0 0 0
55 1 15.84049429583633 7.486986644581748 3.6841274201341268 0 0 0
30 1 17.87319056934467 6.044482608502127 5.176251493456064 0 0 0
1364 1 22.066946482087044 7.49569400590625 3.569334025365213 0 0 0
774 1 23.539809911906563 5.700704554151967 5.445360161562888 0 0 0
782 1 25.26736224329241 7.839056432079477 6.478116376636255 0 0 0
2573 1 28.43196372958824 7.4176075305310665 3.41270075543991 0 0 0
775 1 30.122993949637088 6.090292433676844 5.260730238474599 0 0 0
36 1 -0.12623824940116812 10.843904760545584 3.857879983912169 0 0 0
32 1 1.378802364440716 9.166490073897027 5.2884103015672475 0 0 0
3 1 6.1261684587649246 10.900287519889607 3.8361957385070737 0 0 0
33 1 7.881347855925766 8.93657596460594 5.187835943934255 0 0 0
741 1 12.886020407317481 10.648811035270462 3.550369240922612 0 0 0
35 1 14.465772825242531 9.327901852981984 5.272259384436724 0 0 0
1142 1 19.01158960828831 10.964355369460737 3.7471272900957904 0 0 0
779 1 20.631448806139026 9.32001839035724 5.2028271491657 0 0 0
784 1 27.111592264939546 9.197390269152557 4.954925473216459 0 0 0
814 1 32.0910540874694 10.545611025943094 3.6111125568435556 0 0 0
785 1 33.39429440462469 8.824766463374281 5.420565879697281 0 0 0
455 1 3.215214757086458 13.637070705264911 3.695708808720369 0 0 0
37 1 4.612846534701618 12.382259423476059 5.665174452688158 0 0 0
500 1 9.58030616471196 13.909809281561367 3.6672308391064887 0 0 0
39 1 11.035282864560125 12.285178803569423 5.372375705510212 0 0 0
2130 1 15.533578728719359 14.061360848919785 3.463079898543932 0 0 0
41 1 17.277117646496013 12.803926362592467 5.189443461871146 0 0 0
1323 1 19.31646658598729 14.33632010055108 6.522921821294466 0 0 0
787 1 23.97271786348388 12.48384199974703 4.5716105320495135 0 0 0
792 1 25.522744801399604 13.790859920416535 6.445335442955919 0 0 0
783 1 28.556347443470344 14.169331039166524 3.9242877492069015 0 0 0
788 1 30.257203229253676 12.266305785996309 5.214958967576139 0 0 0
2125 1 0.1020955369519202 17.043382606956403 3.4403554120259447 0 0 0
43 1 1.402043093776499 15.249160322618906 5.209350086647293 0 0 0
2123 1 6.2684605784885505 17.46247180329478 3.4073935106849875 0 0 0
46 1 7.622230714798331 15.771891478486364 5.053584036126147 0 0 0
751 1 12.53131394977154 16.94920520162596 3.5665621686439644 0 0 0
49 1 14.256731255246034 15.73601302389971 5.277392399463314 0 0 0
1349 1 19.049221778824013 17.384218255573693 3.533768333578328 0 0 0
790 1 21.02704989694289 15.728186052286327 4.836156272581355 0 0 0
791 1 27.01611129291416 15.891068504918582 4.909104418521112 0 0 0
1370 1 31.474885535288532 17.49435506371343 3.648513265838878 0 0 0
794 1 32.83782015624471 15.617128019377832 5.003401433001561 0 0 0
50 1 4.376809871807722 18.7380847625283 4.904192622533333 0 0 0
149 1 5.960432715757632 20.126091976704256 6.492086311343111 0 0 0
749 1 9.382460164405261 20.174919514949135 3.584858984753735 0 0 0
51 1 11.103334879449248 18.855921950579468 5.271249260448043 0 0 0
45 1 15.5448479261505 20.56300184782603 3.5918449081211046 0 0 0
53 1 17.314288530793778 18.940729508975647 5.148198872578199 0 0 0
1367 1 21.9512634816219 20.439770793250407 3.597884895849514 0 0 0
796 1 23.644963619274677 18.89032687179681 5.210683612460586 0 0 0
996 1 25.371926340283522 17.633558195279942 3.7019255120432764 0 0 0
798 1 29.961571199061424 19.056482778028407 5.065763803786368 0 0 0
54 1 1.4488905402243104 21.727003375170664 5.227062066459806 0 0 0
57 1 7.513751830039153 21.86471817911214 5.058677127241718 0 0 0
150 1 9.263727045801534 23.472499767083608 6.4655481716044125 0 0 0
58 1 13.837807691300974 21.926797640195083 5.31021662884394 0 0 0
801 1 20.038702528816415 22.17827345782724 4.905713354120866 0 0 0
802 1 26.680591745346383 21.99361216881875 4.79030285018665 0 0 0
803 1 33.21902558834601 22.035758869722915 5.056471130643336 0 0 0
60 1 4.601508368057663 25.322946022089127 4.929449151434125 0 0 0
1600 1 6.17970032712998 23.658078922360463 3.4438805143076507 0 0 0
62 1 10.993964527023865 25.123464494977085 4.907926176572601 0 0 0
739 1 12.823794147990716 23.59276376287375 3.5851350817379237 0 0 0
64 1 17.372334837887685 25.34511231522667 4.997742518346687 0 0 0
63 1 15.658553275964598 23.664419057196795 6.481525017467101 0 0 0
2219 1 19.087717480022622 24.12337666728613 3.3785289045106075 0 0 0
908 1 19.33322057069941 26.57979557099583 6.469950459716117 0 0 0
806 1 23.71383859461285 24.9834038959672 5.076626307444901 0 0 0
809 1 30.39303946794144 24.89824236267204 5.020376130470143 0 0 0
1422 1 2.6967833533894408 26.762919787672946 3.4051360483107866 0 0 0
66 1 1.0001579616317873 28.427850033314783 5.084997983197899 0 0 0
67 1 7.727663714904728 28.29595734204147 4.875719995567063 0 0 0
70 1 14.477415991664182 28.233230020470955 5.168251951039946 0 0 0
811 1 20.670129552396407 28.144888049673238 4.921783863968352 0 0 0
813 1 26.773555838692484 28.18956896494088 5.118763556533677 0 0 0
2764 1 28.706615382270986 26.827668991404252 3.507610863893849 0 0 0
816 1 33.56807838679665 28.52247333564042 5.090205373907246 0 0 0
810 1 31.897873356037657 26.83314626558852 6.467184498924828 0 0 0
2075 1 5.889426112337514 30.23440579369187 3.4735335181161844 0 0 0
73 1 3.9012267085786343 31.476312189908377 4.964447461951995 0 0 0
74 1 10.6769370419673 31.28383689294768 4.927884608538771 0 0 0
2140 1 12.795441565587698 29.804033000479567 3.4171622264921284 0 0 0
76 1 17.65247190297091 31.394227874585866 4.985234962701232 0 0 0
2510 1 19.188083297295368 29.76971903856549 3.4115668990950345 0 0 0
818 1 23.617561766874157 31.304230528708523 4.839643539722646 0 0 0
812 1 22.02658255257705 29.73233727170394 6.5293066389896826 0 0 0
2763 1 25.43802470484744 29.78006846782092 3.382211571610817 0 0 0
820 1 30.028738412455624 31.212389093026257 4.762452314777051 0 0 0
77 1 1.45020643142018 34.58363209656214 4.801088876238271 0 0 0
21 1 8.976683032568063 32.96486149369779 3.5355794509423504 0 0 0
81 1 7.197822918512555 34.89658415512753 4.930126081869454 0 0 0
82 1 14.422757213541276 34.34110782558613 5.276344050147143 0 0 0
2124 1 15.911214442281839 33.11218731963327 3.4195882694854145 0 0 0
822 1 20.619337536208807 34.78788432670944 5.080623559590122 0 0 0
2496 1 22.10317980108388 33.046559381460355 3.4910457592902677 0 0 0
824 1 26.89828790791746 34.822753872676344 4.498512891879827 0 0 0
823 1 25.669727078024483 33.15826183167075 6.421962654298637 0 0 0
825 1 31.33695496131464 32.68981227690849 6.415600267634978 0 0 0
826 1 33.057144887906595 34.676502689814605 4.998583574727706 0 0 0
79 1 2.7063820333838673 36.3379733931296 6.5354200630998385 0 0 0
85 1 4.143409776585092 38.296811463031254 5.245551843585888 0 0 0
180 1 8.965024962080896 36.49278600609245 6.506463940646261 0 0 0
87 1 10.987162510244476 37.628844363482465 5.098133399016393 0 0 0
44 1 12.785591704758566 36.17875006303277 3.7536626992680566 0 0 0
90 1 17.225198476536786 38.02364771576526 4.991009754347721 0 0 0
828 1 23.96800586179355 38.125587728517004 5.260731043467779 0 0 0
830 1 29.98541689897675 38.22742681185133 4.6779749981151495 0 0 0
905 1 28.662075302829006 36.342455651393 6.141328584361507 0 0 0
1409 1 2.669320308325309 39.76887511127324 3.50038860200357 0 0 0
59 1 -0.10375897166277975 39.3556522723678 6.523328285401691 0 0 0
91 1 1.2490877624535992 41.20025356497019 5.212494293061852 0 0 0
92 1 7.5670077117367525 40.80956396816286 4.595590335807388 0 0 0
94 1 14.14549570392028 40.869173628761615 5.290655700054929 0 0 0
2010 1 15.688056493587744 39.79801199318661 3.4577628353344894 0 0 0
831 1 20.688542745467835 40.917779355175014 5.06250991623524 0 0 0
920 1 19.13792256895019 39.34128504882243 6.503404782086988 0 0 0
2752 1 28.29479144957301 39.93605237305696 3.4327103637925975 0 0 0
833 1 26.822310141405257 41.46620632021674 4.984147960606745 0 0 0
2722 1 34.302221777259156 39.37295379456675 3.4071349529990798 0 0 0
835 1 33.045768250778295 41.15701949517974 5.046771158459935 0 0 0
918 1 31.53026397138341 39.491229171356636 6.507963241107092 0 0 0
2 1 4.470345188518232 44.08286261811208 4.828698324709427 0 -1 0
4 1 9.132052967946121 42.34013524944017 6.196528692720031 0 -1 0
5 1 10.996673105305302 44.181916200735415 5.132820568719459 0 -1 0
276 1 12.638939268945345 42.47533803921686 3.9442000551029572 0 -1 0
6 1 17.34877649671566 44.186426212843244 5.285070170361692 0 -1 0
1363 1 19.054134899085824 42.614872439074986 3.8066764614326893 0 -1 0
755 1 23.761248084367203 44.327845412385756 5.122278079050748 0 -1 0
832 1 22.286681209022372 42.50339607412296 6.534675333059246 0 -1 0
2188 1 25.34250751306286 43.07785543725245 3.382553989159661 0 -1 0
756 1 28.2771567683301 43.08568133103238 6.317106150457464 0 -1 0
757 1 30.16462535686893 44.50901840513923 4.658229465957192 0 -1 0
8 1 1.3164403973313799 47.42611074840235 4.898784950199301 0 -1 0
7 1 9.007970642335657 45.83261804000702 3.8354764531503673 0 -1 0
10 1 7.578304809004904 47.63896385295602 5.530022586842331 0 -1 0
12 1 13.921925352959436 47.282682010484045 4.81171242879157 0 -1 0
373 1 15.739548732081143 45.37770224665318 3.6219867478054972 0 -1 0
1362 1 21.774878597510078 46.005369741558646 3.7916330044491513 0 -1 0
758 1 20.30813480299731 47.28183557195082 5.649815188754573 0 -1 0
762 1 26.763346165287928 47.63754814708581 4.645373723577625 0 -1 0
842 1 31.953314434107597 45.970457641899976 6.423452743138028 0 -1 0
2671 1 31.95635178712677 27.049002473649082 0.046374364691780245 0 0 1
9 1 3.4415785284623657 48.96196664507388 6.508796916390196 0 -1 0
224 1 6.07158472112787 48.79254085154693 3.6024856763322735 0 -1 0
2129 1 12.16355747248063 49.20288792522626 3.50230147822236 0 -1 0
111 1 15.2753621311786 48.85849450046925 6.186920852889414 0 -1 0
161 1 18.625227417535548 48.9257800106745 3.6757976547264275 0 -1 0
1374 1 24.987853168299264 49.55007848304733 3.6942900044667906 0 -1 0
1365 1 31.27356908730053 49.222536449636046 3.6317225633931334 0 -1 0
852 1 28.4453660349129 48.99526638998481 6.377257268974765 0 -1 0
764 1 33.451973619596245 47.77464658088211 5.0269576234832565 0 -1 0
14 1 0.1348856978839027 0.9479455592120216 6.914132491852005 0 0 0
113 1 3.2435726835041283 1.3167357553625034 9.677911578624022 0 0 0
109 1 7.421475197603277 50.892535650164504 8.149840744030552 0 -1 0
112 1 14.001484533825003 50.96397185254561 7.961699933517448 0 -1 0
216 1 15.393909214188577 1.3188872676640788 9.67286141675557 0 0 0
849 1 20.005059707075212 50.91701970207162 8.439222267393193 0 -1 0
858 1 23.501588409047724 2.511426233055284 8.618624275448516 0 0 0
771 1 25.292163801257338 1.0814506077626778 6.849433241268797 0 0 0
853 1 31.618569247729504 1.1799595120573683 6.761110174313882 0 0 0
854 1 33.2915480544464 50.73699055716778 8.187765640393323 0 -1 0
114 1 4.7998229124343315 2.8325720287664145 8.190894973221466 0 0 0
28 1 9.408137962753718 4.428349032530494 6.665815959622869 0 0 0
116 1 10.615290454706305 2.8185651646428806 8.456309209102725 0 0 0
124 1 12.138180972920743 4.788090111310325 9.489425782621472 0 0 0
117 1 15.805302321181475 4.976061982884724 6.759949528495682 0 0 0
118 1 17.082535430588738 2.903609503288644 8.308951183335727 0 0 0
856 1 21.869615158884415 3.9300183074355077 7.050100971472754 0 0 0
859 1 28.334187933532473 4.4122842411777325 6.6761040926131106 0 0 0
860 1 29.729464462239513 2.6265834362814298 8.324162938353552 0 0 0
865 1 31.20936534774145 4.183989368978182 9.70261071550206 0 0 0
864 1 33.19975624270946 5.527269627358953 8.288289710775679 0 0 0
121 1 1.3027419441792927 5.744173921002878 8.106850826008099 0 0 0
225 1 2.7353865599485423 7.49781595203227 9.715935424831992 0 0 0
27 1 6.01656282511298 7.291088714035097 6.675574859826456 0 0 0
123 1 7.731535323045792 6.161140984186354 8.536127607910357 0 0 0
128 1 12.193679554573125 8.014298779065415 6.558628444844449 0 0 0
125 1 14.017155151836882 6.823510356317136 8.295585176423735 0 0 0
407 1 18.87692330869112 8.1068434038633 6.617522463052384 0 0 0
861 1 20.336930230668656 5.863378020398247 8.052061487213658 0 0 0
942 1 21.891392520549363 7.436345766859311 9.522480209193452 0 0 0
862 1 26.515257311755377 6.027466019056059 8.366874453329 0 0 0
863 1 28.528089726682047 7.687239672403286 9.707396832562818 0 0 0
777 1 31.582296471252178 7.4691888400144055 6.83325612319032 0 0 0
133 1 2.5834144732449915 11.297937153582009 6.94977931141094 0 0 0
127 1 4.293281706643812 8.951583049870827 8.094171956155215 0 0 0
227 1 6.024179322633932 10.925203417761097 9.45711878110612 0 0 0
38 1 8.991182522388403 11.003649971089246 6.728582291469443 0 0 0
129 1 10.8008946803417 9.512249389906065 8.211322488476416 0 0 0
136 1 15.818657153143612 11.16086769762271 6.976505413676464 0 0 0
130 1 17.44284448680946 9.444508228834465 8.376017955992044 0 0 0
781 1 22.48384414464094 10.918966224912998 6.644529324916418 0 0 0
866 1 23.94328159176825 9.264719752893805 8.327079630012452 0 0 0
870 1 28.559668830874827 10.742609587277366 6.579668045947467 0 0 0
867 1 29.972756408706548 9.137278847126659 8.199785746024055 0 0 0
132 1 0.9737242017500616 12.32847963345668 8.723311471579104 0 0 0
1167 1 31.658259172008744 48.941282438549635 22.627817447903944 0 -1 0
139 1 6.03353988593185 14.358436489440308 6.877824777966549 0 0 0
134 1 7.634539532426839 12.608694683913457 8.351333989098729 0 0 0
48 1 12.643382241350102 14.116003607031411 6.70620968866815 0 0 0
137 1 14.179850788516172 12.610529613968948 8.323125684600335 0 0 0
868 1 20.46110158153331 12.410711420348669 8.1348019962571 0 0 0
869 1 27.011997963944346 12.495706095879084 7.988755125798969 0 0 0
874 1 28.335742445319045 14.216287924065407 9.716498535549825 0 0 0
877 1 31.84954283899672 13.767138447004472 6.800634715360732 0 0 0
871 1 33.11085577175552 11.77102700206833 8.453468796781392 0 0 0
878 1 34.60728392670777 13.560356130047039 9.72066208613942 0 0 0
143 1 2.637287595461338 17.241918119657907 6.669156862449535 0 0 0
138 1 4.31602940217628 15.678749560048622 8.385724748691473 0 0 0
140 1 10.793122692173627 15.759316684753598 8.229095094476232 0 0 0
52 1 15.99104163202253 17.198006975889243 6.725024111425388 0 0 0
142 1 17.454514192190526 15.728156764555964 8.217294307320067 0 0 0
872 1 22.41094849846818 17.056658973080353 6.685214942276117 0 0 0
873 1 23.86366773988951 15.304200229937253 8.112140741132585 0 0 0
797 1 28.521765445374793 17.238004952229005 6.65368742089994 0 0 0
875 1 30.099702786194154 15.558636563247523 8.246502333437864 0 0 0
144 1 1.1104106428574465 18.77741717728299 8.574920435979895 0 0 0
145 1 7.593179866476896 19.04178540853775 8.376541391030221 0 0 0
146 1 9.301520187446233 17.591644170822043 6.802012260784229 0 0 0
151 1 12.796677013456454 20.240647347571006 7.018677276001854 0 0 0
147 1 14.360302630170867 18.811516879902285 8.475816143281381 0 0 0
1353 1 19.095439491903612 20.288310717431212 6.660331312654514 0 0 0
879 1 20.466039625778368 18.655443119782284 8.195199642957462 0 0 0
886 1 25.28939013071145 20.488891990642774 6.759394134081781 0 0 0
881 1 27.010146305567417 18.786653106008732 8.175333534639293 0 0 0
799 1 31.790889327451154 20.400173309340698 6.65667038432085 0 0 0
883 1 33.22226407481386 18.61566619372369 8.248774575673146 0 0 0
155 1 3.077978783873431 23.427091226397575 6.667148919847025 0 0 0
148 1 4.583170711887125 21.795315745217582 8.125286520331517 0 0 0
152 1 10.63700965126944 21.96283410684094 8.29585721545991 0 0 0
153 1 17.416800218366117 21.916804163599952 7.834276989257482 0 0 0
805 1 22.034140478700834 23.136705586474275 6.634006495084442 0 0 0
884 1 23.530188156409892 21.778907656935615 8.49322855726733 0 0 0
888 1 28.530641078750996 23.52311890303753 6.647563243604956 0 0 0
887 1 29.96648066478254 21.826450220570425 8.481267095128908 0 0 0
893 1 31.82092094445681 23.340587917616094 9.732472958727458 0 0 0
156 1 1.3622534623660665 24.925269166373997 8.19431940214043 0 0 0
158 1 7.634949370295502 25.19011803163743 8.184648810076792 0 0 0
159 1 13.967898061361165 25.076874468371045 8.618583465268344 0 0 0
889 1 20.511569289159922 24.65675599271278 8.14115494874278 0 0 0