LAMMPS data file via write_data, version 29 Oct 2020, timestep = 200000

4608 atoms
1 atom types

0.019136921206719393 57.251373078790316 xlo xhi
0.017010596628960428 50.890109403371014 ylo yhi
0.017010596628960428 50.890109403371014 zlo zhi

Masses

1 18.015

Atoms # atomic

2495 1 18.611313774294285 31.204936381285716 25.307602158909923 0 0 0
29 1 4.735842500635109 1.3609596735785272 1.3247790744588062 0 0 0
383 1 6.3827174015953 19.23449284133643 0.33764015224911464 0 0 0
281 1 9.372357565680094 50.50443393119123 2.6852174390619457 0 -1 0
285 1 11.226900957612129 1.459477952675291 1.627257786698284 0 0 0
541 1 17.544676430147593 1.4639635918606013 1.7786846038788109 0 0 0
288 1 9.24894580346314 3.1012590998016036 0.3369247540420009 0 0 0
30 1 1.598981982996107 4.6861402845742495 1.3944869391103476 0 0 0
57 1 3.7126354822080003 6.2136961374051305 2.9957981086103103 0 0 0
286 1 7.827006143609461 4.897843092340926 2.0223132530712165 0 0 0
538 1 12.835524716058744 2.9773499592198336 3.3198409351195193 0 0 0
542 1 14.136344611536177 4.543486661571668 1.3078849733982263 0 0 0
61 1 4.897342894377539 8.03860022649288 1.3318012636420433 0 0 0
58 1 0.4238126194552472 9.335935141773081 3.398943177104543 0 0 0
1152 1 9.415056714197467 21.726541963119985 25.219014672186187 0 0 0
317 1 10.5935890072861 8.060974628733772 1.5628720926797603 0 0 0
573 1 17.004345236584104 7.9402501635446345 1.5415593625739843 0 0 0
111 1 0.04621696281155026 18.943419691913878 12.68585074861234 0 0 0
62 1 1.325098304680208 11.059484347270185 1.3193292124355729 0 0 0
318 1 7.788236412963448 11.677765843250686 1.4705422721368941 0 0 0
480 1 9.217827277613893 41.17982585530993 0.03864844963085491 0 0 0
570 1 12.554012324698183 9.79768637352071 2.9094889800550696 0 0 0
574 1 14.587669739669492 11.279086273661106 1.479308370877343 0 0 0
18 1 0.4758207795227451 3.2191787440623725 9.387212570128593 0 0 0
47 1 0.09353234379291869 6.226144226331018 12.619354335010216 0 0 0
93 1 4.395874684322733 14.33431592649736 1.5266394958938567 0 0 0
346 1 6.273704096668253 15.644798800466386 3.1616747537904204 0 0 0
345 1 9.646950547099786 12.797529883444488 3.151968592455354 0 0 0
349 1 11.282532551641873 14.34758973873414 1.5537888960813697 0 0 0
605 1 18.066256474010395 14.404929580436761 1.670454002840079 0 0 0
82 1 0.2417348956199002 15.919868117289772 9.559660327229874 0 0 0
94 1 1.6610069347238192 17.51006515121916 1.7820066844087605 0 0 0
350 1 8.128411490938628 17.281393539476266 1.681975848844938 0 0 0
175 1 0.0356609964861378 31.85471669153931 13.143250215871392 0 0 0
606 1 14.677253033435587 17.670604631773227 1.7659430497633712 0 0 0
127 1 0.16409983334408196 19.178414784650908 0.3592072120606408 0 0 0
125 1 4.877573743696516 20.708455899956355 2.156734733719651 0 0 0
377 1 9.232248409560809 19.337296703101245 3.214395723659689 0 0 0
381 1 11.265302062724407 20.61189992132707 1.8655183240780533 0 0 0
170 1 0.2639384431195694 34.8455559193101 15.874248531012245 0 0 0
637 1 17.473404837352955 21.127844074451232 1.6835746794647064 0 0 0
960 1 3.476995114471375 35.23628619400114 25.437527856879665 0 0 0
126 1 1.6841220669430137 23.55986354664055 1.7033737252304608 0 0 0
767 1 13.006151916478846 44.37634598788212 0.2555531365245557 0 0 0
672 1 15.750496616774017 28.844988108418455 0.09460983807294819 0 0 0
382 1 7.870694665841239 24.07976976852737 1.5484494626978833 0 0 0
15 1 0.10217939677640321 0.3775670163035443 12.485415609868767 0 0 0
634 1 12.86471097880401 22.43283061547553 3.1921440264607233 0 0 0
638 1 14.469341161999498 24.044085207617233 1.771048325044826 0 0 0
157 1 4.642812665741356 27.02993320605369 1.399865387402381 0 0 0
413 1 11.332986312181658 27.14713358056668 1.764938384669218 0 0 0
665 1 16.194279010929446 25.498178279113144 3.210856772665601 0 0 0
669 1 17.5103748434496 27.23148282353582 1.6425529834118073 0 0 0
158 1 1.7307163412929596 30.002699160382896 1.7209899862896643 0 0 0
608 1 16.044545259854903 15.83963806306431 0.1863936386526481 0 0 0
34 1 0.16528338785671698 9.509518350954066 21.92648721898741 0 0 0
414 1 7.7628020206508745 30.139669728545183 1.5535150298243148 0 0 0
670 1 14.052681536977712 30.201413700959545 1.8036951663375558 0 0 0
250 1 0.18645762898827023 47.53607964145121 3.010250947470565 0 0 0
189 1 4.866296850561656 33.57920868100324 1.424985425436296 0 0 0
442 1 6.430247457503276 35.30738732609993 3.082444765326226 0 0 0
445 1 11.224207016978948 33.38080518824697 1.403578764637563 0 0 0
697 1 15.863587482255847 31.929644696653355 2.968673591976068 0 0 0
701 1 17.568107457772406 33.60125518347262 1.4929097226105832 0 0 0
740 1 17.25136456896584 49.62089218229069 23.975018283139647 0 0 0
190 1 1.2844087949464242 36.66733322778357 1.5796936431012278 0 0 0
446 1 7.975557886891105 36.536153308536356 1.3715466316767573 0 0 0
698 1 13.016235859639291 35.03755055306742 3.636520105813541 0 0 0
473 1 9.613211780865747 38.03298563461699 3.1344433777987075 0 0 0
702 1 14.688833278074364 36.473764976788544 1.6624976914014815 0 0 0
729 1 16.204230689265657 38.08548569317762 3.184525877468379 0 0 0
217 1 2.806447104451523 38.26107782642565 3.2068400868000837 0 0 0
221 1 4.1697996401874455 39.69932094195474 1.4597945987376841 0 0 0
477 1 10.90889280595397 39.50788581640548 1.4234293376164224 0 0 0
730 1 12.402627462458922 41.32327861997676 3.2911468927758065 0 0 0
733 1 17.8467306113425 39.617680225158864 1.4804697600630603 0 0 0
222 1 1.73202512117412 42.78984832822451 1.2973188324523883 0 0 0
178 1 0.025095739912913473 34.8907319476524 9.443709347742598 0 0 0
249 1 2.9814121223390964 44.534708846222145 3.022277379007019 0 0 0
1439 1 12.816717491900867 24.823663396828938 25.263272425437453 0 0 0
478 1 7.448580446265204 43.10110913710221 1.4256586976198737 0 0 0
734 1 14.634469885901963 42.54863470239688 1.770005641198805 0 0 0
207 1 0.12640653814560285 38.30461002378463 12.662393392712355 0 0 0
151 1 0.059846383568086026 25.55899109690142 6.795247534638614 0 0 0
253 1 4.410673906967592 46.48296099990213 1.7393798413085193 0 0 0
199 1 0.0769941087258843 38.242833409373475 19.264947671270676 0 0 0
509 1 11.217441759531217 45.81860371571172 1.5927580727517059 0 0 0
130 1 0.2898837526324474 28.636259704783644 22.779499881021252 0 0 0
761 1 16.21509848158987 44.150211681603835 3.2465180835870995 0 0 0
765 1 17.42176624800479 46.211273479070115 1.4862133436893903 0 0 0
254 1 1.5319933339735963 49.37071237409299 1.7065009397846684 0 0 0
510 1 7.81577009790419 48.982134134726564 1.0929308434085008 0 0 0
762 1 12.89176982103791 47.440708402771364 3.2241487496209897 0 0 0
766 1 14.358706747768572 49.04142165391144 1.7842399483571059 0 0 0
194 1 0.2989966929438854 41.30317627798834 22.139953928697533 0 0 0
27 1 1.6534385375142073 1.4285786794930375 4.817250012299376 0 0 0
283 1 8.16084213481038 1.4045811590604729 4.612787580750295 0 0 0
537 1 15.982722401396666 50.57713704621577 3.428594530922399 0 -1 0
539 1 14.401950807512922 1.1614918072472529 5.086247167236962 0 0 0
2 1 0.09815219298118905 3.340702506022726 22.38631952904918 0 0 0
28 1 4.796314391770602 4.3287040170620426 5.115110572977623 0 0 0
24 1 3.2629697821147574 2.5397228952805815 6.568712005378417 0 0 0
282 1 6.212155658611902 2.988720523979264 3.2944988598206573 0 0 0
284 1 11.645089258586259 5.042991027665062 4.703804034022684 0 0 0
536 1 15.911833567423317 3.060613721100813 6.3947602630637945 0 0 0
540 1 17.231591887819874 4.849769977661659 4.591376057131715 0 0 0
59 1 2.138243362563827 7.478008364487134 4.877289761422542 0 0 0
738 1 12.763449031356455 47.9371655521403 22.187869956900386 0 0 0
315 1 7.671024067874498 8.133831997423968 4.627973437752574 0 0 0
313 1 9.51913432942701 6.3702380724698076 3.385775944815126 0 0 0
569 1 15.482467171918797 6.1107831750382795 2.675661521739932 0 0 0
571 1 14.215473840158035 8.20488214561045 4.44084937430476 0 0 0
56 1 3.5156996967502656 9.70273232881178 6.147786300394625 0 0 0
60 1 5.063539667169967 11.21037674805166 4.668805802444462 0 0 0
314 1 6.551213773875566 9.519485025975081 2.8072858411907737 0 0 0
316 1 10.847579368031777 11.196445579562395 4.932785691652577 0 0 0
601 1 16.009543469014012 13.342282893670404 3.2455934464484244 0 0 0
572 1 17.279874179032298 11.281030323176589 4.786224015385715 0 0 0
7 1 0.18559474078725727 0.1080386226290042 19.203772740747468 0 0 0
138 1 0.22110897501198587 28.610989162335713 16.06027027298436 0 0 0
91 1 1.5853575587694155 14.106243815555034 4.585215845044683 0 0 0
89 1 3.1066600045730417 12.555219330525066 2.8770557460803112 0 0 0
347 1 7.979408572159165 14.520957513100361 5.012172737355409 0 0 0
599 1 12.362239909663039 13.155326856185212 5.960319115821365 0 0 0
603 1 14.231059771307182 15.179747321003196 4.772930240798345 0 0 0
600 1 16.406897728564886 15.766618529756025 6.524049694928107 0 0 0
92 1 4.559735901932338 17.296319523730077 4.572605494104567 0 0 0
602 1 12.417438566914042 16.36410050712891 3.0453603384481487 0 0 0
348 1 11.032180554767082 17.8539559211703 4.689122923700773 0 0 0
604 1 17.638236059760647 17.78658084562066 4.85292834703705 0 0 0
226 1 0.04507752718089364 48.098270233327824 22.485329570814592 0 0 0
123 1 1.2581178878975954 20.654966745675658 5.198345025473808 0 0 0
121 1 2.8591091011991105 19.629993504282606 3.4343973547833495 0 0 0
379 1 7.882936964386425 20.933667463174373 4.828377776778046 0 0 0
631 1 12.898943267712593 19.00173199915188 6.335832765685823 0 0 0
633 1 16.022826129042485 19.493664796525422 3.4609790243446703 0 0 0
635 1 14.392876171256589 20.935492476934773 4.800321915073993 0 0 0
124 1 4.5823606647922075 23.9871312059117 4.862582682467262 0 0 0
378 1 6.290589410370927 22.673953346615235 3.3628316766892716 0 0 0
380 1 11.024450567832906 24.06726293126127 4.7067994833144065 0 0 0
632 1 15.902937848671082 22.476396545645457 6.440867965877794 0 0 0
636 1 17.649842699937597 24.036271404925092 4.695062469752007 0 0 0
153 1 2.9126910832914263 25.54185211909667 3.1552914404369363 0 0 0
155 1 1.3940656506850002 27.069053061305123 5.050755921944972 0 0 0
411 1 7.841800813572969 27.331992598687037 4.853448953337494 0 0 0
409 1 9.54090895358802 25.889688187246524 3.287428864099544 0 0 0
667 1 14.572352818428666 27.10296848294706 4.952187206821532 0 0 0
156 1 4.84805829441103 30.070642357991527 4.603551909532363 0 0 0
410 1 6.217877324604174 28.410439377487336 2.9791778107070916 0 0 0
441 1 9.503320052936017 31.738762573194172 2.952783087885447 0 0 0
666 1 13.017177318157003 28.524375670352075 3.502922982277982 0 0 0
412 1 10.869181190117285 30.23725542000378 4.773200809686751 0 0 0
668 1 17.612332539268714 30.19147423092701 4.314115046747942 0 0 0
55 1 0.3369323376707413 6.314270018867437 6.611666217053132 0 0 0
185 1 3.3510006965885184 31.693599428499716 3.153294349119508 0 0 0
187 1 1.6445474659177333 33.183680943148474 4.672211725127352 0 0 0
184 1 2.8928834322959975 35.13149790260866 6.342195130206451 0 0 0
443 1 7.8833445874167465 33.44709851710523 4.662593394697468 0 0 0
699 1 14.182068875082823 33.33446694259419 5.0941829883048655 0 0 0
696 1 15.989498144134835 35.08861278224808 6.52550757023823 0 0 0
1599 1 18.81422917866919 6.1777050621390295 0.17810888880607506 0 0 0
188 1 4.665469607362244 37.014953016975724 4.639417040762571 0 0 0
471 1 6.411502166039629 38.19172261593525 6.492362401223678 0 0 0
440 1 9.376761742643717 35.03937303443293 6.626144060952096 0 0 0
444 1 10.874502176624654 36.55809707148511 4.856992416125195 0 0 0
727 1 12.41455616465074 38.04675960199903 6.345833099849923 0 0 0
700 1 18.028499238963292 36.456008032325244 4.758022642428435 0 0 0
219 1 1.2196994317383 40.004604358727775 4.952236751095287 0 0 0
216 1 2.980297407413513 41.5446287638141 6.535676723992339 0 0 0
474 1 6.001245474729096 41.3125822772746 3.05664081470972 0 0 0
475 1 7.947063859268567 39.59281329655144 4.525879206059587 0 0 0
731 1 14.207409926163674 39.32486321308632 4.650168000112876 0 0 0
220 1 4.71431375285043 43.1752415107012 4.893469339228494 0 0 0
476 1 10.719823678806616 42.92445141844931 4.844342934133593 0 0 0
728 1 15.902313860571248 40.78667830609058 6.06043014128116 0 0 0
732 1 17.535260870599977 42.372584184261854 4.6120144076989344 0 0 0
1471 1 12.369043631536169 31.63602252078702 25.434412953902893 0 0 0
251 1 1.646882643164178 46.047789256473536 4.82045997113494 0 0 0
248 1 3.209809717699431 47.62404174570308 6.366537326525874 0 0 0
505 1 9.206232209454306 44.6886848237439 2.9934777406915445 0 0 0
506 1 6.392661255252552 47.94122034271689 3.1416099570797393 0 0 0
507 1 7.993055908729753 46.34373846210575 4.6808314593676625 0 0 0
759 1 12.83294617526199 44.226820431742226 6.251542648940222 0 0 0
763 1 14.427485307990667 45.58909677447244 4.794853460854804 0 0 0
25 1 3.234886444956451 50.69810782434915 3.155916213316347 0 -1 0
252 1 4.788151077524574 49.37880543842249 5.000495437415915 0 0 0
279 1 6.61406064785375 50.837950154141964 6.1542237206427775 0 -1 0
508 1 11.355224937126955 49.251519322115115 4.6089974769894875 0 0 0
760 1 16.120970872742575 47.175379521763915 6.347124039597403 0 0 0
535 1 12.912860985722519 50.40569089094596 6.679904374938014 0 -1 0
764 1 17.68114966566309 48.892814991022334 4.754048200164735 0 0 0
484 1 10.781895302936931 49.36719139880793 23.83648368302444 0 0 0
21 1 5.357187886134562 1.4151249361927183 8.054661906345505 0 0 0
274 1 6.862107627429127 3.3288826375527676 9.258100303572448 0 0 0
280 1 10.005588094904185 3.2170674696389687 6.020528497740672 0 0 0
277 1 11.42339180795237 1.5836552092777338 7.741581781140456 0 0 0
273 1 9.641019644481833 0.16582172600018907 9.383121032573012 0 0 0
533 1 17.461870766906436 1.6981145533823832 7.881631917340521 0 0 0
529 1 16.174381902951172 50.62150893431813 9.396387790479546 0 -1 0
22 1 2.0078380944419014 4.568858698656554 8.008778304278227 0 0 0
482 1 6.148128370021047 47.9495134712881 22.00915262779218 0 0 0
278 1 8.442101127575853 4.701104723485985 7.6456124121308005 0 0 0
534 1 14.783296240243875 4.937203541467792 7.7853096410784435 0 0 0
26 1 0.09955149120134801 3.0885520103911124 3.1264835612566193 0 0 0
49 1 3.516227804071014 6.163991961106809 9.542939362328488 0 0 0
53 1 5.1956778477361505 7.64068423501199 7.785150846778011 0 0 0
311 1 6.579418021840619 6.010911673087787 6.215083359926727 0 0 0
567 1 12.990633596160293 6.771938538784265 6.379170188920085 0 0 0
309 1 10.783915094140818 8.071514969538926 7.634771947849991 0 0 0
565 1 17.41687358423361 8.445354314841673 7.790181418795087 0 0 0
210 1 0.07442890793227264 41.267921373612566 9.795163473289186 0 0 0
54 1 2.0206987744123492 11.25913772875986 7.922753556225584 0 0 0
1610 1 19.096544984018987 15.940574582309292 15.981363094988582 0 0 0
312 1 9.192837972203614 9.74596395275747 6.466766638064966 0 0 0
310 1 7.789010803651381 11.087344399413603 8.262961897893765 0 0 0
568 1 15.600373604989814 9.70487221395086 6.142763430516953 0 0 0
566 1 13.940526090312009 11.452386082305175 7.539641565293532 0 0 0
81 1 3.3368457819339503 12.949127017876274 9.374086437864483 0 0 0
343 1 6.675573788802673 12.666752527730536 6.360500403154831 0 0 0
85 1 4.80723229427893 14.400314491060865 7.902760456525915 0 0 0
344 1 9.398882954295564 16.488959821938717 6.503581722958096 0 0 0
341 1 10.87243929328647 14.595055338122998 7.6443933674937 0 0 0
597 1 17.71535096431275 14.140865702412011 8.312285574974897 0 0 0
319 1 6.328428644376882 6.045185951596463 0.10519310164224775 0 0 0
88 1 3.0102599031813932 15.850408846972977 6.185604658841011 0 0 0
86 1 1.6904158232095634 17.631003252396606 7.817810630994687 0 0 0
375 1 6.281279433254772 19.259274089176685 5.928186707202061 0 0 0
342 1 7.771716341249909 17.885194729207498 7.9470144604257165 0 0 0
598 1 14.652731219872155 17.482816803275625 8.05379806603629 0 0 0
66 1 0.1583802694149116 15.526909778316202 22.178008118293526 0 0 0
1554 1 18.985923285250013 3.1704216030258188 9.804774666145011 0 0 0
117 1 4.819076774398564 20.7800378892782 7.71468804553957 0 0 0
373 1 11.208626124204528 20.98640917442593 7.868659250841287 0 0 0
629 1 17.648603941352093 20.70836105922141 7.6421769362098555 0 0 0
625 1 15.980726265280305 19.249673409998334 9.462279876656307 0 0 0
1671 1 18.979654959996807 25.57800167809138 18.72001842524741 0 0 0
120 1 3.0800311018706243 22.28194899828287 6.406467567870233 0 0 0
118 1 1.6867686511250806 23.95179704930963 8.183945065542957 0 0 0
374 1 8.097173569822788 24.263712461942625 7.887181684120414 0 0 0
376 1 9.506543812002652 22.454545017018642 6.359332989921439 0 0 0
630 1 14.413360192409183 24.165426665775133 7.843931283388734 0 0 0
1783 1 18.808253012867244 44.16345401025349 6.515245381944067 0 0 0
145 1 3.3487462319365977 25.34299945023603 9.767424180436887 0 0 0
149 1 4.793852038636001 27.200505522881556 7.876031123333234 0 0 0
407 1 6.370354836561572 25.54127895229238 6.291633176208189 0 0 0
408 1 9.383675962837323 28.93161174826588 6.5877196222500105 0 0 0
405 1 10.92300139266197 27.234251969257905 8.067344979517118 0 0 0
663 1 12.72592476382774 25.626510124273967 6.3840368377117045 0 0 0
661 1 17.672677944535234 27.09462816235102 8.017953508117264 0 0 0
150 1 1.556056014554436 30.206331567427746 8.088465165230243 0 0 0
152 1 3.041698647804581 28.780460788209975 6.499467187264515 0 0 0
406 1 8.04631507998491 30.579557817987524 8.005559064652223 0 0 0
662 1 14.147538753509544 30.056602326543157 7.898498731260805 0 0 0
664 1 16.160717385365093 28.799990660166877 6.299877997251051 0 0 0
1184 1 9.526158595017561 28.32985452550277 25.41980719922186 0 0 0
1679 1 18.96863818624916 25.21361104636541 12.774456026965046 0 0 0
439 1 6.30453574729319 31.838071485231854 6.287145494354437 0 0 0
181 1 4.560940669414099 33.37561528341779 7.824587003998895 0 0 0
695 1 12.518542224955732 31.881661287162824 6.5783677287401305 0 0 0
433 1 9.430342361294139 32.11565840041433 9.743477122940812 0 0 0
437 1 10.972266173795084 33.46794804366303 7.954363872209027 0 0 0
693 1 17.745675224038308 33.537495551413656 7.965196823077175 0 0 0
182 1 1.3635784859589144 36.75782866162156 7.863649415082303 0 0 0
209 1 2.9679514216588045 37.66779151813547 9.609214055268735 0 0 0
438 1 8.029373949537474 36.66740427322664 8.322095522609436 0 0 0
465 1 9.650303940957274 38.411857005085594 9.59112367819375 0 0 0
690 1 12.389641720619519 34.997780076886826 9.577504569304475 0 0 0
694 1 14.005968050995078 36.55705443010969 8.085957430633892 0 0 0
50 1 0.5145793926204942 9.445468517796169 9.426786478286182 0 0 0
213 1 4.599433642445688 39.72271806206811 8.032973788334228 0 0 0
466 1 6.388825373128078 41.22362312137456 9.651639203139803 0 0 0
472 1 9.033099904258268 41.17921519071113 6.437253992201288 0 0 0
469 1 10.93140603715883 40.00811693609187 7.707643370101678 0 0 0
721 1 15.693458582727963 38.12761813566971 9.716381526221983 0 0 0
725 1 17.552677721037874 39.45926516934611 7.9837783067316535 0 0 0
543 1 12.860292017028708 50.63890606056323 0.44506079392943326 0 -1 0
214 1 1.689322061552822 43.03040040904712 8.114147376716968 0 0 0
470 1 7.5939777792146685 42.82518745601496 7.760912274970735 0 0 0
503 1 6.256892999980121 44.698065108347336 6.5875391302213995 0 0 0
722 1 12.77532847602682 41.366034417419584 9.384926043146168 0 0 0
726 1 14.614073708552027 42.64082427236832 7.768181813067753 0 0 0
245 1 4.780009488143093 46.40596840078538 8.168983620982479 0 0 0
504 1 9.836066489898931 48.06732346087051 6.245139140416241 0 0 0
497 1 9.565232077588101 44.47808586401992 9.237994248331184 0 0 0
498 1 6.735389537245655 47.783206126893546 9.640072327981457 0 0 0
501 1 11.154482396938947 45.94676350830548 7.470832513122676 0 0 0
754 1 12.690626182924275 47.498357036510995 9.302038565080109 0 0 0
757 1 17.65835042575721 45.957695252589915 8.222879628271842 0 0 0
1602 1 18.92388091780745 16.025012480977253 22.637886850944035 0 0 0
246 1 1.6983946600718176 49.16272080665067 8.100531699744907 0 0 0
502 1 8.231752769486516 49.44396046001445 7.9563356384988255 0 0 0
758 1 14.6741417142478 48.681921607258445 8.038412508353863 0 0 0
19 1 1.9838489548024767 1.456734266347349 10.983061198276632 0 0 0
17 1 3.606485466125194 50.54071742919964 9.733522059533465 0 -1 0
275 1 8.388894016881222 1.8132328779902942 11.067077655862763 0 0 0
531 1 14.748052685942328 1.278897105627523 11.050507852549014 0 0 0
20 1 5.373363482202704 4.737038423947695 11.041981465491677 0 0 0
303 1 6.718868290173994 6.238022578525971 12.859051093210136 0 0 0
276 1 11.624508603465543 4.531017316202316 10.923704042183017 0 0 0
530 1 13.258581409566109 3.058913112093382 9.374377223976358 0 0 0
561 1 16.181129097244824 6.748482267679171 9.380109689192173 0 0 0
559 1 12.977475139577303 6.3536007539419135 12.528114280388223 0 0 0
532 1 17.532700258833525 5.267175000158024 11.310141647716241 0 0 0
1440 1 15.653655531238249 28.33822229747057 25.447596377043844 0 0 0
51 1 1.7894523865327354 7.78199184735129 11.032195726471567 0 0 0
307 1 8.010479113674789 7.9212227832319835 11.15604779891102 0 0 0
305 1 9.791296894180537 6.18494018584309 9.665624923663929 0 0 0
563 1 14.553767059210946 8.499416550159333 10.738332901328606 0 0 0
306 1 6.121775353775319 9.319818955817706 9.744162411884583 0 0 0
52 1 4.699748744231737 11.006005542394055 11.04113750992584 0 0 0
562 1 12.327369865418936 9.910913831154543 9.412102915320709 0 0 0
308 1 11.240988707886416 11.240836575056573 11.332711945331662 0 0 0
593 1 15.390676840871077 12.645648181869511 9.612634226331958 0 0 0
564 1 17.56253924286191 11.589414439508463 10.973062149969135 0 0 0
1711 1 18.845827750815744 31.82347407443963 12.478289361596229 0 0 0
83 1 1.85308826468775 14.385701415654403 11.528659107911103 0 0 0
339 1 7.7945757379697005 14.456336585391131 11.257430769397718 0 0 0
337 1 9.627270306899591 12.886115924328134 9.69266302126202 0 0 0
591 1 12.539444170807814 12.942769028214743 13.045048012824017 0 0 0
595 1 13.937868193024569 14.382466202012955 11.249522164590115 0 0 0
338 1 6.245715595865271 15.937861377365701 9.476281559529767 0 0 0
84 1 4.83609329782236 17.52664593069516 11.319729234613094 0 0 0
113 1 3.0989524043465932 19.15321754137375 9.46530005785028 0 0 0
594 1 12.151853432438733 16.317667330200067 9.372417522330382 0 0 0
340 1 10.672984701235192 17.53215253894042 11.339043210519083 0 0 0
596 1 17.506592797312024 17.79207380761214 11.30567731394244 0 0 0
115 1 1.3960529867100122 20.832468529340034 10.804551363030265 0 0 0
371 1 7.95563925899701 21.0176887734267 11.114695391665958 0 0 0
369 1 9.385484241234842 19.445375666977707 9.452039559950537 0 0 0
627 1 14.390875421457494 20.94513494572484 11.124881256621787 0 0 0
626 1 13.021903601817549 22.62925083608788 9.636756288098818 0 0 0
624 1 16.213580463644536 22.412375019653187 12.789283637259151 0 0 0
116 1 5.085383161115573 23.84527231446476 11.196733939747869 0 0 0
370 1 6.5180587767552725 22.4660153315479 9.255918513691837 0 0 0
401 1 9.449805055932227 25.617272767222712 9.917866502897942 0 0 0
372 1 11.149422550490527 23.813579445659677 11.186643122697072 0 0 0
657 1 15.982341265123363 25.77465437624286 9.571028760926431 0 0 0
628 1 17.462316368911807 24.019980060881792 10.886489211109712 0 0 0
1578 1 19.0665900583873 9.679017480705072 15.857008539224267 0 0 0
147 1 1.7032094232437849 27.20997588984609 11.34599084578629 0 0 0
403 1 8.06343662604738 27.32280458478589 11.495560116893392 0 0 0
658 1 12.657549804395874 28.518337741928303 9.799139383207208 0 0 0
659 1 14.172357311294597 26.866113696202937 11.43540800589168 0 0 0
656 1 16.1196560725302 28.475864483809296 13.000136447295167 0 0 0
79 1 0.20929299612808508 12.672159431262262 12.442343706737072 0 0 0
177 1 2.9582951168844813 32.15904009294681 9.541820615427927 0 0 0
402 1 6.596360522926265 28.737393513093455 9.931804239852577 0 0 0
148 1 4.617441361929484 30.376188695062023 11.041635511467733 0 0 0
404 1 11.05347792738679 30.359323594778065 11.244345251007651 0 0 0
689 1 15.960681228006116 31.679479005092265 9.398104184433429 0 0 0
660 1 17.640949449938645 30.043221404949495 11.045128567786064 0 0 0
228 1 4.8148728711329065 49.534546697831175 23.971022779035653 0 0 0
179 1 1.545392929347282 33.797516751310994 11.26642896245394 0 0 0
434 1 6.282853461187202 35.01350006659408 9.656723275379294 0 0 0
435 1 7.748268863316026 33.41080841080628 11.622612780831474 0 0 0
691 1 14.27838879610676 33.46488927021183 10.938744624377184 0 0 0
180 1 4.91585874667702 36.539752220336325 11.38239965037373 0 0 0
436 1 11.053192645699106 36.71544311694876 11.389817595164757 0 0 0
692 1 17.536827852213683 36.65533221801401 11.063611426995985 0 0 0
688 1 15.997282407112827 34.97863847399604 12.748083707110272 0 0 0
211 1 1.8216819528572639 39.61120298299966 10.912044851949034 0 0 0
208 1 2.8085533955578468 41.316864498613995 12.70721174716108 0 0 0
467 1 8.25859681266551 40.03290134973754 10.966165773173094 0 0 0
719 1 12.574390235114748 38.1157443040062 12.919452792134454 0 0 0
723 1 14.247954010570812 39.693393489180735 11.28411558875872 0 0 0
241 1 3.5858244300989766 44.42213663754693 9.725619859725606 0 0 0
212 1 4.712107013661716 42.72852001093469 11.417935883031321 0 0 0
464 1 9.628365910846918 41.64478838822981 12.579888784583803 0 0 0
468 1 11.352319010343084 42.99802742448203 10.922760809535731 0 0 0
724 1 17.636584273774268 42.722004742454246 11.322299200778376 0 0 0
720 1 15.855182459559405 41.19979740723605 12.828812754516084 0 0 0
243 1 1.7452313688310672 46.19499352210033 11.14162239022402 0 0 0
544 1 15.944145224236367 2.648801753907938 0.124588785788293 0 0 0
499 1 8.11158179857917 46.00234626771619 11.135339943146315 0 0 0
496 1 9.764726830329629 47.716573760036766 12.647786365582874 0 0 0
751 1 12.842051403078758 44.60398509539874 12.726240897634414 0 0 0
755 1 14.60109785885839 45.95607331362612 11.042351082827524 0 0 0
753 1 16.092209082302517 44.2090171053587 9.47310337278554 0 0 0
239 1 0.19160979731648062 44.88946667249637 12.837437187252146 0 0 0
242 1 0.08604281324114399 47.587698421841125 9.525521510730895 0 0 0
244 1 5.149013868599108 49.29462530030081 11.21580716107108 0 0 0
500 1 11.429410470008422 49.253196085418395 10.992460296777109 0 0 0
752 1 16.062020357226828 47.48512934357328 12.790962541119919 0 0 0
756 1 17.81499819886726 49.21809301690996 11.249889580646508 0 0 0
1607 1 18.67118876699368 12.90159475192811 18.80772311047982 0 0 0
16 1 3.61334852972255 3.078813046134149 12.57938414968742 0 0 0
13 1 5.324828300021632 1.695757758829931 14.300404765299257 0 0 0
269 1 11.348337766287191 1.6741382562909466 14.28471677256832 0 0 0
527 1 12.827082181014523 0.17719273678210357 12.677366010424862 0 0 0
272 1 10.00581360265892 3.4101861476048017 12.836291996562071 0 0 0
525 1 17.29082693994963 1.5643899581939522 14.228289396329055 0 0 0
528 1 16.095005510377682 3.410452631685101 12.560848584968412 0 0 0
14 1 1.7686391208891936 4.652633981624375 14.302084595046736 0 0 0
266 1 6.607323430218957 3.4055086142116298 15.861027759221612 0 0 0
270 1 8.308697532675822 5.215945276884244 14.542967774097129 0 0 0
526 1 14.488888447725648 4.777787588904973 14.092536574639341 0 0 0
45 1 4.868795769887537 7.879368752437402 14.1443530708813 0 0 0
298 1 6.2924215628290145 9.633454084558235 15.89473578039706 0 0 0
301 1 11.519191601074137 8.108407577339696 14.183601376901645 0 0 0
304 1 9.69080837014435 9.713409497895615 12.655863679114026 0 0 0
560 1 16.190882382318282 9.866014588585447 12.577909709704462 0 0 0
557 1 17.46820966506759 8.055132637086562 14.091331943836392 0 0 0
46 1 1.4222102706796178 10.75181570430348 14.279453508111132 0 0 0
48 1 3.221122946622966 9.48426305070039 12.822961053023171 0 0 0
302 1 7.85548474230548 11.279176574932972 14.324013214047802 0 0 0
558 1 14.415664659922479 11.155085995901121 14.25475439663145 0 0 0
1626 1 19.06456485957593 16.45614500398942 3.10393608270026 0 0 0
1615 1 18.791970232861345 13.312977302035542 12.900859244325622 0 0 0
77 1 4.676767560464479 14.532314598954104 14.507877076946512 0 0 0
335 1 6.092612461871043 12.814790982458682 12.861739450212267 0 0 0
333 1 11.085322050428607 14.567598827536724 14.855030529371849 0 0 0
589 1 16.943309013671016 14.599292449383823 14.727717636587464 0 0 0
1770 1 18.941130869736277 47.85812727108659 15.86013695190185 0 0 0
78 1 1.5566503888759804 17.630371631343436 14.654409071121492 0 0 0
80 1 3.077731009821931 16.223632292343794 13.085917749541908 0 0 0
334 1 7.975448291971568 17.9090476356962 14.462692287814816 0 0 0
336 1 9.533466158533159 15.773465814869219 13.056380214453185 0 0 0
590 1 14.334665887006292 17.749659841096875 14.38236882860209 0 0 0
592 1 15.668508145838123 16.32468974014904 12.506189038120626 0 0 0
112 1 2.914892251594441 22.650521538375706 12.616567436834853 0 0 0
109 1 4.158352597398122 21.038403223980694 14.644804090185824 0 0 0
367 1 6.130831709694508 19.606402237414972 12.810533631394739 0 0 0
365 1 11.084013063292424 20.733123857501365 14.292358362720874 0 0 0
623 1 12.85820525548852 19.353000753949676 12.418495362550308 0 0 0
621 1 17.7138639317781 20.896601095521252 14.436829531440623 0 0 0
110 1 1.4042770383124714 24.152731622900728 14.320820782903079 0 0 0
366 1 7.647692701785159 23.724830507113023 14.559528601013662 0 0 0
368 1 9.422016967496225 22.355642093577984 12.998840906236879 0 0 0
655 1 12.719206577341978 25.163238197301556 13.079669535702418 0 0 0
622 1 14.506454387575124 23.726056769221408 14.680287606356586 0 0 0
399 1 6.390112500202786 25.670123205883037 13.008580534292243 0 0 0
141 1 4.612151460759345 27.07476276128208 14.294485007949833 0 0 0
397 1 11.145170840786719 26.840202829358418 14.560366341146171 0 0 0
653 1 17.994038333741027 27.16028453070692 14.400363273755142 0 0 0
144 1 3.309190689743098 28.770670755740344 12.824475680441793 0 0 0
142 1 2.010038211058056 30.14096900265028 14.54982393264212 0 0 0
400 1 9.674960340240318 28.797280320409687 13.215855187370584 0 0 0
398 1 7.649921295971869 30.24805960104796 14.568955159340915 0 0 0
654 1 14.135945293458734 30.16898976065002 14.296076852971922 0 0 0
176 1 3.1656643994369937 35.070414045530924 13.000221056930233 0 0 0
173 1 4.145771590870796 33.208515603421304 14.777265955683689 0 0 0