LAMMPS data file via write_data, version 29 Oct 2020, timestep = 200000

4608 atoms
1 atom types

-0.025316562065256676 53.425316562066854 xlo xhi
0.030336388515927126 50.87678361148461 ylo yhi
0.030336388515927126 50.87678361148461 zlo zhi

Masses

1 18.015

Atoms # atomic

3788 1 0.7276290945299447 15.544721244960451 20.069264166018748 2 0 0
4466 1 2.0321667268567136 48.8470799003287 24.67167444464111 1 0 1
3532 1 0.44690180031869714 45.14246143588674 14.426872931653746 0 2 1
2053 1 4.246980155081636 49.59720003868161 3.735028913066404 -1 0 1
2822 1 3.168256906331719 20.825108787459573 8.840050228733878 1 0 1
1263 1 -0.0016037682382925196 23.610716034465923 13.784402106203078 1 0 -1
678 1 2.8570945843488564 18.582760609956967 1.648313000007252 0 -1 -1
1563 1 1.7095511742593057 8.755348648246649 13.246856066918653 1 1 0
2209 1 0.6186711705092396 13.561220649607822 2.5330118428646204 0 -1 1
3972 1 5.060380304866084 4.241820070797033 3.209250020852294 0 1 1
487 1 8.156564253927057 2.1395487046692647 2.86907219715897 1 1 -1
1767 1 13.137438046231058 23.61334139047255 23.903570401959687 0 0 -1
988 1 14.10712618113483 0.3425585965119902 0.6567403130030146 -1 1 1
2785 1 1.135001200689543 41.15328578789505 2.815415387101763 1 0 1
1182 1 0.5970084845637011 5.048522576237685 5.076073037324849 0 -1 0
2040 1 5.411606919464077 1.1354214785962489 2.6660470072338445 0 1 0
952 1 12.576056119614638 2.12633421432866 2.1204345819234898 -1 -1 1
639 1 13.90088127243573 32.914890429991445 1.3204127530750251 0 0 0
1524 1 0.22199691432975283 44.964455709037225 17.721217610490243 0 -2 1
3022 1 11.00197734746845 36.37923534991661 1.1661416183723776 0 -1 2
3289 1 1.7030408624501525 7.250427852884395 3.7502076452955557 1 1 0
2517 1 2.5753827962065268 2.0207877724099355 2.1253152908114035 0 1 1
2771 1 5.473681783089695 8.078412899084386 2.486615626014921 0 1 0
4184 1 6.895802738816839 7.404545374740036 5.976102531118491 1 1 2
3286 1 13.871396582727023 13.972176913101357 1.940836416934894 0 2 0
2109 1 16.70832728236632 13.975352672991342 1.8962154624536451 0 0 0
1128 1 1.3284953011454692 22.839293457542208 25.436984948684263 0 0 0
1517 1 6.046786831802691 10.585160519678096 3.0593098631695934 0 0 1
3180 1 0.07887927770846447 39.25635471968191 1.0554986635926469 0 -1 0
3824 1 8.21984452989304 9.727637057408876 4.814077295969747 0 1 0
2475 1 11.602345170408048 15.745637033074836 1.5433716591491884 1 0 1
127 1 0.3781886644661793 31.489314580661897 16.04917463711962 0 0 0
2114 1 5.928388362009776 3.016390878567188 20.837509103516084 1 1 -1
3817 1 6.758518136277914 15.94829463265623 1.3246616141613168 2 -1 1
2352 1 6.909351806633201 17.35253643464921 5.654925325051209 -1 1 0
2283 1 14.640415469968355 16.809544799250865 0.5449814289670877 0 1 0
415 1 5.575808525600204 30.87161095115482 6.866239258981604 1 -1 0
1388 1 4.313824410861965 24.018703655136186 3.9953922081367614 1 0 -1
1983 1 3.704910610252084 5.8398299330860155 1.0546021780331676 0 0 -1
2981 1 8.085482578852009 18.130390230021707 0.4578992707120856 1 0 1
3690 1 9.179543290462876 20.59394409465386 3.66240732813943 0 0 0
1309 1 13.546795193808695 25.252918554061072 1.0206671453517366 1 -1 1
2668 1 2.592494857576673 33.70986707235538 25.150928594755378 1 0 1
2116 1 1.3836736066357436 31.17078498729776 21.451568676381864 0 0 0
4270 1 5.581699825728482 23.329594280142416 1.7226386375918352 1 0 1
558 1 12.203056543873002 18.34734234166775 2.4213147621629463 0 0 0
1959 1 8.187031278616551 27.65077375280985 5.203520116751448 1 -1 -1
623 1 12.287990732577335 25.92201358470219 25.43879239160516 1 -1 0
788 1 11.449260613049583 23.75047685259607 5.742995674184329 -2 1 1
909 1 12.206791567151598 44.32788441911616 0.43135993305789117 0 -1 0
3324 1 0.1761692856362303 46.494281607050915 3.5631208651002266 0 -1 -1
1529 1 7.477250561838645 30.433471672544314 4.60211288298457 1 -1 0
824 1 1.3031843981837805 13.782273706699444 22.113746833497128 1 1 0
2874 1 17.71380877583148 49.65969218401043 1.7315499178315963 0 0 0
2641 1 14.1624745196201 27.4504878738784 2.8900633175813244 0 1 1
833 1 16.836622770330177 31.245582395274344 20.180356479932755 -1 -1 -2
3494 1 1.9825883836358558 48.36364497969621 21.812491332817686 1 0 1
725 1 8.17082387193833 31.634256744775527 1.505523071958068 1 0 0
3147 1 14.876592349366389 30.35194303153889 1.5675333267343485 1 -1 0
4202 1 16.817137705660475 27.808081240826088 2.270238701072104 1 1 1
3434 1 10.350925960968464 24.59485222813115 1.257882433218982 1 0 1
3960 1 0.634117833787675 7.691663658025376 23.12134853689021 2 0 1
170 1 0.004408726328570367 40.0072816868943 21.08445305776427 0 0 1
2331 1 0.4066197466163339 12.341655360368346 7.17176124355223 0 -1 1
1181 1 0.11767394851910298 0.7551828802660604 13.988554391987764 1 0 1
230 1 4.596411389717746 20.630264444753173 0.8186223107872804 0 0 0
2069 1 0.42555659112938465 35.87702100487351 2.364261763522583 1 -1 2
2732 1 14.228480621857695 10.901747685074366 24.91683216911152 1 0 0
3042 1 0.8960664567010993 17.51174712265886 24.216996137508634 0 0 0
2587 1 2.7383191841034495 19.318456350701 16.250932569094687 0 1 0
1746 1 10.403394490384548 19.7823754193583 0.9896635430721619 1 1 -1
4261 1 15.119748341984804 35.83586637974154 2.161789729428708 1 0 0
374 1 1.8188522920788457 14.506396686228877 8.186993890820268 0 2 0
2983 1 0.938613356465491 20.30202768676181 3.0243717291751766 1 0 1
1134 1 5.120304770882696 36.888780452056544 2.2694426327308275 0 0 2
842 1 10.159028399706637 40.091786305891155 0.7906981077177121 -1 -1 0
1911 1 15.634692992823478 17.802762186308193 14.289175770012717 1 0 0
1618 1 1.2410170904881028 25.212818561946815 6.888997515162949 1 0 0
555 1 4.3171182069924905 24.480782932264187 9.142010218060484 0 0 1
1348 1 4.734244397164368 40.865528597556725 2.00397023742265 0 1 1
30 1 0.07212702379380431 40.37655994442753 5.200829870848671 0 0 0
2894 1 11.819663712383198 40.98811861875723 3.3496516030029078 0 -1 0
1020 1 13.512532403182469 40.29612158891068 1.1006360003686755 0 1 1
716 1 1.9701462969500423 48.5541167700319 2.6577840885681785 -1 -1 2
4249 1 4.373375465617405 45.155637229605055 4.704991005633783 0 0 2
2182 1 8.265890017079213 42.40038574273824 1.566107866605071 1 0 1
493 1 10.568963186477074 43.50537002759319 2.4699083742695764 0 -1 0
2942 1 11.192433821522156 48.2044366266096 2.7806658355202445 0 -1 1
2421 1 3.632312836063573 47.21685272591624 0.6292473469314256 0 1 0
1993 1 16.924045136406065 47.20492446187597 5.787233665988058 0 -1 0
1466 1 0.778952685204865 50.79217704809899 16.834075383992573 0 0 1
4577 1 0.8247322283365439 20.525842439954324 10.12297101036571 1 0 1
862 1 2.006666388114032 16.353770475178997 10.095011109827874 0 -1 1
962 1 9.589487436749655 48.14091905849719 7.96765924299904 0 1 1
3887 1 8.054378997257471 47.05459552856345 2.6149096332843214 2 -1 0
1806 1 15.813177480293495 14.304208414227496 20.01676889961976 0 0 0
1586 1 7.203094698086258 1.871751598356962 5.793497800007458 1 -1 1
1452 1 10.52636665954724 0.4004601775660965 3.2720272627433986 0 0 0
3573 1 8.887784397277338 49.650201599858505 1.2528383679651505 0 -1 0
1946 1 0.22115265953933347 47.32932209230784 12.052584787340638 1 -1 0
3869 1 17.13364744290999 4.816640395066683 3.0813198008506113 0 1 1
3783 1 4.673600654470833 2.9231177958896124 5.650744595662838 0 0 1
1797 1 9.46042304194661 6.038706372352103 5.635304160262883 1 0 1
3679 1 8.059115916473516 4.948453566313824 2.941068723522847 0 -1 0
932 1 12.225137988971861 6.402016562683268 5.119302848722279 0 0 0
3009 1 14.869431515285523 4.634596801457286 4.588462291493599 0 1 0
4105 1 16.658853778741786 8.237156203957923 1.5309736395730245 1 1 1
2877 1 16.218573171746375 39.92559894605674 7.142947439318551 0 0 0
3801 1 4.628534389517884 6.590511756057305 4.675943239364241 0 1 -1
4269 1 6.0336586493258375 7.847528320756145 8.528803149803467 2 1 1
417 1 10.794581575388937 8.999380416270833 3.9002727963308335 -1 1 0
1937 1 13.392167490646033 10.803580914296075 3.643893797630312 0 0 0
3369 1 12.08872661745916 8.801048565038968 24.21855498361846 1 -1 1
1419 1 14.496923121344533 10.539954763830462 1.1107076153007611 0 0 0
4237 1 3.4054483031298997 11.100540354182952 4.2817744157495286 0 0 1
2798 1 11.427664998444724 12.529116419660246 4.206007347312456 -1 1 0
4165 1 9.269560131121496 14.769674449602318 2.710534177289605 1 -1 1
4192 1 4.108837869263567 19.202185502761946 22.029350657545603 1 0 0
319 1 6.593523164369973 13.49856522836053 3.8608068548873242 0 -1 0
113 1 2.668256610418435 14.926929837019973 5.42185802271397 1 0 1
424 1 15.138949060388668 13.91586569891739 8.542523967222449 0 0 0
483 1 12.431199498580398 15.206858743710066 4.535531238479664 0 2 0
1486 1 14.867669932995632 10.177929092951672 5.974932122988622 0 1 0
3226 1 0.7613603967712682 43.184360077468135 23.84522284671635 1 -1 -1
4117 1 6.778317564644338 20.03159315454931 2.5267433613220356 1 0 1
2057 1 4.093124090395345 17.21413169014853 6.206752597517324 -1 1 0
3692 1 7.329574793801003 19.81992902834466 6.575866489028138 0 1 1
204 1 9.363518225955811 16.150788701885066 5.269929592702059 0 1 1
2382 1 9.61718688540801 16.439934972154198 9.505167974742339 1 0 1
1932 1 16.339214066930637 18.001057951516923 2.322104406096209 1 0 -1
2505 1 15.124872192406295 15.463670658427342 5.733807379751947 1 0 1
974 1 0.1059454908397025 24.553965557038158 9.609631767169537 0 1 0
2926 1 5.397088135887656 21.762288302493104 5.540474207193876 0 0 1
2386 1 4.594817458285355 19.159678431791644 4.310090170559376 1 1 1
2201 1 14.336958385873656 18.899409037218675 4.249414681024754 0 0 0
1303 1 11.139318787376508 18.47901987281896 5.064303366894574 1 0 1
1082 1 4.04990460117827 26.65433667432317 7.003042996343386 -1 0 0
1219 1 6.435955426885591 25.358700995617692 6.077331485189563 -1 0 0
1133 1 2.1132871402054603 31.31671652883106 10.83805336749306 0 0 0
4607 1 6.537375944306018 26.984119480331067 1.2202798158168577 0 0 0
64 1 3.828993385639942 28.67597101193863 2.28823726550881 0 0 0
2568 1 6.345823754697427 31.00621601304616 10.104069258797933 0 -1 1
1103 1 9.923683116058369 28.087400268721435 7.309785617410425 -1 1 0
1721 1 10.861086059524073 27.92393120092618 3.98856753078925 0 -1 0
1888 1 13.083662042257233 30.116705962465076 3.8142675274836475 -1 0 0
1285 1 6.327915889472454 4.188610804297039 25.118617916466555 1 0 0
2066 1 2.5983137400377108 32.5148265248312 7.446549961694066 0 0 1
3632 1 10.966794631281818 31.13650642318955 1.2613512537367735 0 -1 -1
3067 1 7.879304321710299 33.01425070748045 5.700298826363915 1 0 0
1112 1 16.42393998066914 30.379550433757405 5.016294556608404 -1 2 1
3710 1 0.41874686441483394 34.55179726364961 6.930433609185483 1 0 0
3562 1 11.354578314185899 0.49593038819819535 25.144028994153206 1 0 0
1545 1 4.671015332703653 31.130420532129758 3.6247396202112494 1 0 0
1877 1 10.577075803285394 32.440891266475674 6.218228115870296 0 0 0
2108 1 11.605219572085785 32.983918282031006 3.591227730586472 1 0 1
2515 1 15.616549893118734 35.29050929389643 4.776929728426953 1 1 1
1282 1 16.323513311042692 33.017529643344645 6.175184893597262 -1 1 1
2659 1 1.2517222103498589 21.197123074891635 12.81473386291898 2 0 1
3013 1 0.09508448493095756 9.215922482365334 19.288223033338184 0 0 0
3857 1 3.632515391310034 34.373252557987485 4.597481831953844 0 -1 1
703 1 5.988887963569481 33.7618073680653 2.4710649947145362 -1 1 0
460 1 5.764499429269635 35.93669818727634 9.031984513668569 1 0 0
361 1 9.300305999578383 37.78570774967323 7.508059202090505 -1 -1 0
4491 1 8.17963117396649 36.21455031786821 5.318087203599437 1 1 -1
533 1 15.792568658447392 40.06837542468252 2.8857160107499733 0 0 1
4254 1 10.038276129342409 8.994569981626267 1.1502144243829173 1 0 1
4497 1 6.5635571571240865 43.93178514990127 5.720473621973396 1 0 1
2625 1 5.843906968108676 37.9634624216753 4.8500308998979555 1 0 1
1898 1 6.571303674995861 38.481354969080584 8.586097404463727 1 -1 2
4280 1 7.997695224478928 45.14640233449829 0.5166243373502513 1 -1 1
3469 1 13.50704865690785 37.51224042799297 0.4415536425675911 0 -1 0
505 1 12.105624288292466 37.592222026607324 5.084379317323808 0 0 1
3530 1 3.514194398867445 41.74109523099622 4.429464347713076 1 0 1
1457 1 7.463968077556309 31.843238677429913 23.875807217766532 1 -1 0
4000 1 7.0045983536274345 41.444753522222015 4.02199945839816 0 1 1
4351 1 12.63789325692282 42.609183643053775 6.666663398207709 0 -1 1
2458 1 14.459082150548891 43.05695119832827 4.447274746394887 1 0 0
3408 1 9.719351954220237 37.745681352061396 3.3066867552772834 1 0 1
1357 1 0.33456923967781016 24.83780666830591 22.933767062942856 0 0 1
4382 1 16.505058309107405 42.35866325396652 1.7104514624232332 0 0 0
2574 1 1.5899196432075329 18.037824061926774 21.40403226347566 1 0 0
4277 1 2.061989084023509 46.05243738341844 6.376063952645785 0 0 0
4576 1 8.912579560706089 45.16506111409278 6.651103991874841 1 0 1
2094 1 13.188382666690579 45.439108442768024 4.755368774508428 0 0 0
2716 1 14.153438823443281 46.77841014649642 7.156985172177626 0 0 0
4119 1 3.2934495552395053 0.5031935070082058 5.796906209745416 0 0 2
3430 1 1.0837925681306462 48.326997905329435 7.413010053078541 2 0 0
3596 1 12.769718659645058 8.320500141917986 0.6103077571595262 0 2 0
1854 1 2.966022105753816 50.08216340806903 8.400426626660519 1 0 1
1727 1 5.957770684636273 47.54827854762661 4.353593296765927 1 -1 1
3823 1 15.892845143045244 0.7708917278343599 3.1864574926464284 1 -1 1
3118 1 11.378975680731829 48.76513943764331 5.480437015804474 0 -1 0
1894 1 9.032830767059323 34.207652016028746 3.1321171594046273 1 0 -1
1605 1 0.7779777291653545 5.338223455543672 9.09413075672067 1 2 0
1525 1 5.809315651361038 49.8585953156253 6.721575737810312 0 0 1
3815 1 11.214452460210723 1.724116026355925 6.014735008812164 1 0 0
3777 1 13.393452905821864 2.2339778207113024 4.55725952420626 1 0 -1
3412 1 13.810111583131967 49.51709543737595 6.456093453264331 0 -2 0
2934 1 5.124043113126174 25.728062800781125 25.027187550108387 1 0 0
355 1 1.5523968010275215 2.7565985654240603 11.175397952386808 0 0 1
3592 1 8.968283486122328 3.575683894611145 7.043413210885742 0 1 1
2293 1 3.427799446655692 7.265564925657485 7.353737849794855 0 0 1
1566 1 11.901994644013737 2.950238709451202 8.503614367945598 0 1 1
118 1 13.256854565142069 5.463423556202444 7.826151827390602 1 0 1
512 1 16.400169796780553 0.8913858546742202 10.111747715530134 -1 0 1
2579 1 17.27800669519118 44.061914169981165 20.502791622370662 0 -1 0
2295 1 2.081115082202157 10.005081833000293 8.817307812573407 1 1 1
421 1 2.085170877250246 9.250076106538735 6.144735702883606 0 0 1
1376 1 10.737405639212565 6.52476771041685 8.54099828438411 1 0 0
2206 1 12.126021164822388 9.23119111298923 6.788300679258933 0 0 1
4222 1 15.468587709328355 8.418347747356426 8.485977265418585 0 0 0
1996 1 17.507033520318032 5.825991557312603 8.235631607533751 0 0 0
2629 1 4.854832899956134 11.744120977685792 6.92026699711543 0 -1 0
3088 1 7.620522741468645 11.824779871124065 6.519163102175295 1 0 -1
101 1 10.98898413104088 12.417286567666661 6.868801206451044 0 0 0
420 1 9.070778122091674 14.187414247673575 7.648264424541871 0 -1 0
406 1 14.864495689944526 11.540688468030039 12.177131262238916 -1 1 1
2058 1 16.75984642175887 9.827574305705886 10.714899914333373 0 2 0
3504 1 3.4320641478291436 3.9530402372706566 24.415725447190663 2 0 -1
3411 1 3.745267590402802 12.452310664693293 9.6461865011785 -1 -1 0
1105 1 16.154709099270587 21.123686229133778 25.412385119174566 0 0 0
4461 1 6.185207892402851 14.770826506616974 6.454535571285988 0 2 0
1676 1 13.328388252582867 12.104847480337943 8.171016623799993 1 1 0
1837 1 16.003445325820014 13.72851305661058 11.259054488437227 1 0 0
4450 1 0.9617528180408063 12.801223094193922 16.090118468246576 0 1 1
1430 1 1.8292386641440315 19.859636649129516 5.640997778020898 -1 1 1
3495 1 6.495351054443457 23.094250163516335 7.740132421142233 2 0 1
1338 1 12.659089143976523 11.403490106279138 10.606454849312474 0 0 1
2916 1 11.661437783951603 17.171084026372228 7.627004790826294 1 0 0
3133 1 14.245870071320638 16.740405297413492 8.651010979757476 1 1 -1
4438 1 15.723174138397733 18.093266042013877 6.690138485177975 0 0 1
1450 1 0.7488145070246877 42.23516039422064 7.507774955642357 0 0 1
860 1 3.1105553573616356 29.721614100202192 8.24388770716082 0 1 0
3721 1 2.4424296380423445 25.711862067050717 11.131319106384328 0 -1 0
2388 1 7.295815164942226 24.976459175957938 3.427083301545596 1 1 1
2982 1 11.140279643045693 19.67217491818872 8.895409991863556 0 -1 0
315 1 9.62973418660649 23.559918801582366 3.5448613659787105 0 0 1
4440 1 12.086048591596937 26.344204361483385 6.138687498686425 0 1 1
3172 1 15.40023626701725 21.46833071432641 4.836657546677123 0 1 -1
1862 1 16.124832371933376 19.04191554555957 9.937064471424675 1 1 0
1079 1 3.4389633039762466 13.509710191357991 2.7157167094811587 1 0 1
2892 1 8.162585803109668 26.42025422099917 8.783631805145204 1 1 -1
3139 1 15.406713540792074 23.16756747255254 2.54910949424324 1 -1 2
3870 1 17.17164221606914 21.893463012412617 9.357673965769207 1 0 1
173 1 17.61410882130846 20.57492350401109 6.620765333866835 0 0 -1
3000 1 6.272114629191289 44.75171459419782 24.573489601663653 1 -1 1
1602 1 2.7574993587772365 34.37368680819709 12.397285201818612 0 0 0
4597 1 5.961570714977782 28.286225568981138 8.63342668588616 1 0 0
1025 1 12.918074043531307 26.183510430246525 8.899522414478835 1 0 1
2967 1 11.33230166336663 30.545209329827124 8.394474860212886 0 0 1
1615 1 14.593565839110079 25.123568740579604 5.060204938340369 0 1 0
614 1 1.1974145286569278 1.0295898243106454 24.307435928479297 0 1 0
1822 1 9.25204401726714 32.168836196048254 9.813018258365242 0 -1 1
1220 1 1.8944488363195024 3.076070839381436 21.84094570230682 0 0 -1
2690 1 12.148447499743906 30.681319504161344 11.228211262984814 0 0 2
3292 1 13.765250339833216 29.9220900783111 6.5553625249063066 0 0 0
341 1 12.90213315810354 34.93719637730396 5.333757506467467 1 0 0
3977 1 0.4016366300225104 18.680925773533055 0.2813894179572486 2 -1 2
2239 1 10.706035176524667 40.881551100625146 24.49465341421504 1 0 -1
3050 1 5.454641516289615 33.93717215918091 6.9147136869490335 0 0 0
1973 1 13.690782986160105 32.94765659876379 7.297099477519275 1 -1 0
3445 1 17.274850760420865 33.34613798972759 8.635194303513158 1 0 1
3640 1 15.900909440415392 26.872530055961754 20.446225715725166 0 0 -1
2455 1 3.1230538013111446 38.744818372843376 1.120734598286249 0 0 1
382 1 16.15739597002904 11.838484492080095 18.686460758442895 0 1 1
3635 1 2.9873826045457497 39.27366845647943 5.432656837692236 1 -1 0
3510 1 2.4831346427684315 37.08485596127954 3.7615361921583177 1 -1 0
2106 1 2.919680306968481 36.26370799615843 10.079934282922647 1 -1 0
1057 1 14.90047660261404 35.500812341728256 8.904937948324417 0 -1 0
601 1 12.464975180725084 37.12514209252401 7.8751699276422595 1 0 0
286 1 14.495113358759447 39.55734185432927 11.79095442307365 1 -1 0
1928 1 16.897739344291534 9.168046054574955 4.498488339326464 -1 0 0
82 1 9.300962706165206 40.260044612233614 4.525311300279926 0 0 0
2014 1 10.075748806249704 40.795451025543855 7.274166320254738 0 -1 1
4412 1 1.6119980445182525 44.41840782284466 9.007906072858441 1 -1 1
2028 1 4.971452472172924 40.65990856882862 7.461755706440137 0 0 1
27 1 4.418864573870695 46.62679022393002 10.807072419990465 1 0 -1
3586 1 6.129484613100489 42.96080184027084 8.477090974300122 1 0 1
2471 1 9.024141772219963 11.846937606065946 2.3658941984153046 1 1 1
2506 1 4.540321101427722 45.418018505006614 8.434374017668901 1 0 1
3674 1 10.329169773238288 43.33580244702782 8.51016227649369 0 -1 1
4057 1 12.507111530319465 47.66190270626401 9.31675144323234 1 0 0
3759 1 9.405329988623574 50.01378990351581 10.201609216053749 1 -2 1
4319 1 15.333967122201217 42.20527028147949 8.44607540553043 0 -1 1
1223 1 15.65105150439663 34.45967268262913 23.928460787302956 1 1 -1
2533 1 2.469169380914247 48.54681360910249 10.985600385524277 1 -1 1
145 1 1.983519984560508 2.0851462170867454 8.55576573420669 0 0 0
1106 1 6.745140448728279 47.0421194444586 7.307316399487527 0 0 0
4209 1 8.966228122600965 50.61225812077867 5.872365984699141 0 0 1
4010 1 15.83313793537863 46.4718698634701 10.369136641251703 1 -1 0
3270 1 2.501393338886335 0.07169850538338186 12.472691860422952 0 0 0
3322 1 0.626496185115743 32.40072280087855 13.30787664455669 1 0 -1
4544 1 5.491877722342155 50.373693135748525 10.027266377451038 1 -1 1
532 1 9.07771807587973 4.314194530983708 9.630805611302193 0 2 0
3083 1 14.292145328575756 1.2954446661479704 7.67040225972636 1 1 0
2512 1 13.292880930840704 1.4431359933579597 10.510419556247665 1 0 1
876 1 2.8135115491649763 6.133749338111446 13.345425949762678 1 1 0
561 1 4.121932634125609 6.6778477721984135 10.784239249940988 0 1 -1
2995 1 7.438942480291381 6.3207158321619605 10.752675999965719 1 -1 1
3472 1 15.75640854181718 3.7903758739879327 7.052671795261364 0 1 -1
1154 1 11.336997427007706 3.32751519679422 11.753298802390747 1 -1 1
4505 1 14.26008757920337 5.884032001259116 10.4629607934465 1 0 0
4288 1 5.905357907040726 29.787144895005227 0.5131199499652463 1 1 2
3942 1 4.655352115277228 9.847817804214571 10.735408922209464 0 1 0
1366 1 7.088624092599653 10.756945335613484 9.244135584137798 0 0 1
4126 1 12.84266378962817 8.734134740346722 9.74559232190745 1 0 0
276 1 10.005776792670039 7.673982597806704 10.899308943889592 0 1 0
921 1 6.85294103637474 3.9264170208726292 0.05763935597340113 0 1 1
4578 1 12.03066935228008 6.308769115995065 12.342193132782667 0 0 0
3955 1 12.055671586932812 38.29592617827671 24.34508012367144 1 0 -1
619 1 2.555150081506021 11.74957389026138 12.284228244495942 1 1 -1
4125 1 6.040589522305519 13.533617387508155 15.082763950562512 1 0 1
3256 1 4.8101853272906645 14.650644339141545 10.91839963309731 0 0 1
2558 1 7.072152479142707 13.731817544273976 12.088808830803044 0 1 1
3111 1 15.42923407435896 11.952225416338695 14.985650463056814 1 0 1
3931 1 14.369682726720418 7.1524625855184185 16.32452031450643 1 0 1
3831 1 15.105227554461393 38.79021711058814 24.499932313909703 1 0 -1
650 1 6.5183654645786735 18.72428145153756 9.7192096440451 0 0 1
3458 1 6.493365322900044 15.95660453012427 9.086005355807137 1 -1 0
1938 1 9.340040808177301 13.599247668770857 10.51521280960163 0 0 0
1891 1 9.590492491198983 10.222526257501904 10.773574209294958 0 0 1
2548 1 8.721585344301294 10.546555293457972 13.536969400139515 0 1 1
2746 1 2.6032231334113853 4.531557022461856 7.081522688141851 1 0 2
3627 1 15.055726641790475 16.287603754394155 11.692846829632662 1 1 1
1577 1 16.70625662047545 37.04263481530483 7.00186381546032 0 0 0
3198 1 1.3358048374312046 50.589124961838074 0.9676419687727971 1 -1 0
3730 1 3.522197232849187 18.166710445031313 8.79585252541469 0 0 0
1107 1 8.84882682317753 18.812476649361848 10.855288989012646 0 1 1
3917 1 11.985129420082956 16.515415663955565 11.11396695653396 1 1 1
1621 1 17.687306886375037 20.853895963973795 13.12070004254113 0 0 0
4449 1 13.653435193976494 48.580009955744934 1.8224453693235192 1 0 1
1941 1 3.996701742521311 24.52647480546662 13.421635037467734 1 0 0
3169 1 9.42401367828556 23.57266306911159 7.612708027169738 0 1 0
4049 1 10.007102360256939 20.84243228285862 6.506371143423541 1 1 0
1022 1 13.073294037501698 20.590653299442163 12.696183715327908 0 0 1
3471 1 13.570924475208557 20.58200047034756 9.861427116403062 1 0 -1
3576 1 11.692436017334028 48.572119818289764 24.23786244792433 0 -1 0
4149 1 5.0508036809476415 28.873833103443907 11.644210433517067 1 -1 0
3359 1 1.1097905524430705 28.197397239553407 7.090280116539984 1 0 0
1481 1 13.193625323393976 23.670828398541026 10.23022356916801 1 0 0
2086 1 15.747966110037488 25.45539714322539 9.840849638095275 0 0 0
3464 1 12.82676603439865 28.50920817370656 13.083454950358679 1 0 0
3274 1 0.5245986475121335 35.97645480535983 11.829731788362842 1 -1 0
1528 1 2.336980450512118 6.290367197418341 16.070692051371598 1 1 2
38 1 0.6869825792867931 29.206563939543702 13.304599051728427 1 0 0
4257 1 8.634578533234464 35.35157615214362 9.771421257949624 1 0 0
3999 1 11.356589926712259 27.836847563320394 10.112605114329577 1 2 0
3489 1 15.353476346609574 29.09288862900425 10.963302849646933 1 -1 0
1393 1 14.963237740077414 28.327350700609106 8.290496340877123 -1 0 2
4053 1 2.073007504369221 28.368619353081066 10.85855364063647 1 0 0
13 1 15.995365576409935 26.54526687563749 12.20546579863823 0 0 0
263 1 6.057148295188403 35.137312339328375 11.754446918299331 0 -1 1
4264 1 16.828217188264702 35.35107882125794 13.076339459389489 1 -1 0
817 1 2.3441174151751225 22.56608486181704 1.0260276993742532 1 0 2
4 1 0.8441411729166751 11.400010356906984 23.454166304056816 0 1 0
1018 1 16.98813563954768 46.29874424067596 24.18561041858353 0 -1 1
3517 1 1.574973780364609 37.46948749127828 7.794690103989524 1 -1 0
2394 1 4.046908328754202 33.187175341368096 9.891632233658035 1 0 0
25 1 10.912786114871865 38.751974940347814 12.177106387075401 -1 1 1
2197 1 12.436430589983038 33.542099641891106 9.696197262899735 0 0 0
756 1 13.261358764224838 33.986665499099225 15.650088309042237 0 0 -1
2329 1 3.673801326904427 39.05680742575299 11.338027939108509 0 1 1
2796 1 10.707666065329674 34.61396104835017 7.974977631468757 0 0 0
3851 1 13.827692091429324 36.77459485955156 11.188840128484445 0 0 0
612 1 10.518051665250105 33.362762585646976 17.009812076324238 0 -2 1
3669 1 17.334928035237652 4.754610652226296 23.427275623814527 1 2 0
3519 1 1.3886930059417133 39.779745191233005 9.351783820033736 0 -1 0
2723 1 6.360662691289937 38.69696068465634 12.683248792535384 1 0 1
4383 1 7.878955582339752 39.4958389249427 10.727906464645075 0 0 1
442 1 14.495650564964103 40.081082096104275 15.097553884098067 0 0 1
2349 1 11.270758093373253 35.90525269628793 11.585007238734217 0 0 0
4362 1 8.828070278852314 45.1330634433219 23.340700205205682 1 -1 1
3939 1 16.547062848401694 41.710782016751835 13.05916622859763 0 1 1
1704 1 3.5291595402565763 41.98156077916747 10.128680612220347 1 -1 -1
171 1 5.760784093257771 42.351272741521825 11.940481519552486 0 -1 0
1533 1 13.033110154900044 42.066924115643914 10.232315766298857 0 1 0
2254 1 17.713783350750024 41.85673658285425 10.105493047017717 -1 -1 0
2661 1 1.34213776675792 6.5245466269426515 0.7496545371503539 1 0 1
757 1 15.876789021774364 5.532912925364812 0.7475971677989591 -1 1 0
2395 1 17.181393469904148 11.336144833134828 24.897925770723862 1 0 0
1846 1 6.752473415028951 47.72098860140526 9.92608558403542 0 -2 0
3652 1 14.902921185418586 46.50064473081829 13.511792391329067 1 -1 0
768 1 10.24512518551229 45.87212404827055 9.871986199182102 0 0 0
3520 1 17.04121190134664 36.77916274646666 24.579153229236915 1 0 0
70 1 13.212151963369626 45.176329830386216 11.177159699454862 0 -1 0
4554 1 13.095722243743149 18.09686976157582 21.472005416077288 1 1 0
2327 1 3.3156203436087557 50.04483864230174 15.145441447418705 0 -1 0
1670 1 7.680836747684612 1.5828897950654848 10.950737033095203 0 1 0
904 1 9.428629927491837 2.090246208847624 13.236714317454235 0 0 -1
566 1 16.145292021046735 49.2376832307017 8.533795245651481 0 -1 1
223 1 4.066179858394828 0.04250037538649565 17.705564920509048 1 0 0
2340 1 3.783122755757717 2.404399588206508 15.662446398023548 0 2 2
2697 1 3.592381569918957 4.702144241658504 17.75201776666575 1 1 2
94 1 5.537469133192309 4.1775500982558675 10.289179770330836 2 0 1
2971 1 12.138429590118303 1.5045440025741994 14.728421264254564 0 1 1
197 1 16.239387803745373 48.618150475239396 14.61535336044901 -1 -1 1
4018 1 17.268257967858073 50.010605019249525 12.345007375362359 1 0 1
906 1 17.199320092350266 5.490686188085157 11.187515019957816 1 -1 1
737 1 4.106861879674164 3.5526821262716073 12.526524737299814 0 0 0
2749 1 6.594350428374323 0.731665890519416 16.717475531602744 1 1 0
3477 1 5.218902691849183 7.189731903895393 15.07670632025076 2 1 0
1542 1 7.307190458037627 6.324967080305116 13.510395670754038 1 -1 1
2272 1 8.526092635343783 4.282006985549513 14.866596865916163 1 0 0
3737 1 11.654800221621354 4.682505368556159 19.00069254709415 0 0 -1
3747 1 14.033247281169903 3.3667288621725633 12.865600113038843 0 0 0
3677 1 4.7336214555198985 10.044773859174208 15.334380899636358 1 1 0
2949 1 8.639575841938125 8.094319001540281 14.865555906656517 1 0 1
4580 1 12.248978560488695 5.894741929552765 15.248367014129142 2 1 0
781 1 11.276165348409258 13.071954887117295 12.098823452600115 0 0 0
4283 1 16.947873954742562 6.657602048905903 15.323015665501178 0 0 1
426 1 6.135692991962295 11.325238027469673 17.34457907890471 1 -1 0
549 1 5.745749308320468 11.122691678085237 12.869482446317273 0 1 0
507 1 10.704861005659716 8.148250069690434 16.776118842000102 1 1 0
261 1 9.534157260888279 14.440452179587854 15.558790037654747 0 2 -1
754 1 16.420310869557152 27.151965969927268 23.815069929844405 0 0 -1
2384 1 2.1681301672262467 8.81493225168686 17.625262322381264 0 0 1
1137 1 2.6109734671512856 15.029813399992447 17.691826901360713 -1 1 0
1777 1 8.223486226540578 17.773139758997015 13.384188329380443 0 0 -1
477 1 10.95619968320492 16.72328901291268 16.542674654948794 1 0 0
4543 1 12.88577962608758 17.962759662020105 14.761702834030825 1 -1 1
1405 1 4.9436994839784365 39.22892665372449 24.433759553665155 0 0 1
3069 1 9.252671205244981 27.03637483583112 1.5876014987620646 1 0 0
169 1 5.444593099564958 21.73272727355543 10.126921237021461 0 0 -1
1041 1 2.834225922599325 17.028537507477143 12.623470414087743 0 0 0
2911 1 7.528853879121118 21.278788203709833 21.69336335824175 1 -1 1
2833 1 16.904726876384405 16.37919097674025 18.099870914390497 0 0 1
2855 1 12.986738456207789 15.096370716804685 13.417228492439877 -1 1 0
4391 1 4.169066495763944 21.823097633097703 13.139741425930032 0 0 1
391 1 9.376818186238417 21.624413884529666 11.55031383993139 -1 1 0
3406 1 11.006349777662415 21.705441327861436 13.73662063579518 1 0 -1
883 1 14.926136728605718 21.416808826081418 14.55228241572768 1 0 1
2658 1 0.0867514350427706 6.738098062605643 20.630223687617473 1 0 0
207 1 7.21906672878708 23.432703968723814 12.3362069561027 -1 0 -1