

read_data data.ice_${TEMP}K_${PRES}atm_ML group ice
read_data data.ice_286K_${PRES}atm_ML group ice
read_data data.ice_286K_1atm_ML group ice
Reading data file ...
  orthogonal box = (0.019136921 0.017010597 0.017010597) to (57.251373 50.890109 50.890109)
  3 by 1 by 2 MPI processor grid
  reading atoms ...
  4608 atoms
  reading velocities ...
  4608 velocities
  read_data CPU = 0.006 seconds
read_data data.liq_${TEMP}K_${PRES}atm_ML add append shift ${X_HI} ${YZ_LO} ${YZ_LO} group water
read_data data.liq_286K_${PRES}atm_ML add append shift ${X_HI} ${YZ_LO} ${YZ_LO} group water
read_data data.liq_286K_1atm_ML add append shift ${X_HI} ${YZ_LO} ${YZ_LO} group water
read_data data.liq_286K_1atm_ML add append shift 50.890109403371 ${YZ_LO} ${YZ_LO} group water
read_data data.liq_286K_1atm_ML add append shift 50.890109403371 -0.0170105966289604 ${YZ_LO} group water
read_data data.liq_286K_1atm_ML add append shift 50.890109403371 -0.0170105966289604 -0.0170105966289604 group water
Reading data file ...
  orthogonal box = (0.019136921 0.013325792 0.013325792) to (104.31543 50.890109 50.890109)
  3 by 1 by 2 MPI processor grid
  reading atoms ...
  4608 atoms
  reading velocities ...
  4608 velocities
  read_data CPU = 0.006 seconds

write_data data.icewater_test
System init for write_data ...
WARNING: Communication cutoff is 0.0. No ghost atoms will be generated. Atoms may get lost. (../comm_brick.cpp:167)

# Define potential
#
pair_style sw
pair_coeff * * /data/emrosky-sim/Freezing_Simulations/Melting/MLmW_fancy/ML_mW.sw mW
Reading sw potential file /data/emrosky-sim/Freezing_Simulations/Melting/MLmW_fancy/ML_mW.sw with DATE: 2019-02-27

# Delete water and ice atoms that are overlapping
#
delete_atoms overlap 2.5 water ice
System init for delete_atoms ...
Neighbor list info ...
  update every 1 steps, delay 10 steps, check yes
  max neighbors/atom: 2000, page size: 100000
  master list distance cutoff = 6.0032907
  ghost atom cutoff = 6.0032907
  binsize = 3.0016454, bins = 35 17 17
  2 neighbor lists, perpetual/occasional/extra = 1 1 0
  (1) command delete_atoms, occasional, copy from (2)
      attributes: full, newton on
      pair build: copy
      stencil: none
      bin: none
  (2) pair sw, perpetual
      attributes: full, newton on
      pair build: full/bin/atomonly
      stencil: full/bin/3d
      bin: standard
Deleted 694 atoms, new total = 8522

# set timestep
#
timestep 10.0

# Define output
#
compute 1 all msd
thermo 50
thermo_style custom step temp press vol etotal ke pe c_1[4]

# Neighbor lists
#
neigh_modify delay 0 every 1 check yes

# Set fixes
#
fix 1 all momentum 10 linear 1 1 1 rescale
fix 2 all nph iso ${PRES} ${PRES} ${PCOUPL}
fix 2 all nph iso 1 ${PRES} ${PCOUPL}
fix 2 all nph iso 1 1 ${PCOUPL}
fix 2 all nph iso 1 1 10000.0
fix 3 all temp/csvr ${TEMP} ${TEMP} ${TCOUPL} 837492
fix 3 all temp/csvr 286 ${TEMP} ${TCOUPL} 837492
fix 3 all temp/csvr 286 286 ${TCOUPL} 837492
fix 3 all temp/csvr 286 286 5000.0 837492


# Fix ice atoms in place
#
velocity ice set 0.0 0.0 0.0
fix 4 ice setforce 0.0 0.0 0.0

# Run 1.0 ns equilibration of water
#
dump 1 all atom 1000 eq.all.${NAME}.dump
dump 1 all atom 1000 eq.all.coexist_286K_1atm_ML.dump
run 100000
Neighbor list info ...
  update every 1 steps, delay 0 steps, check yes
  max neighbors/atom: 2000, page size: 100000
  master list distance cutoff = 6.0032907
  ghost atom cutoff = 6.0032907
  binsize = 3.0016454, bins = 35 17 17
  1 neighbor lists, perpetual/occasional/extra = 1 0 0
  (1) pair sw, perpetual
      attributes: full, newton on
      pair build: full/bin/atomonly
      stencil: full/bin/3d
      bin: standard
Per MPI rank memory allocation (min/avg/max) = 4.589 | 4.597 | 4.604 Mbytes
Step Temp Press Volume TotEng KinEng PotEng c_1[4] 
       0    130.80024   -335.79953    269965.43    -84556.04    3322.2583   -87878.298            0 
      50    155.32212   -201.50602    269114.37    -84195.31    3945.1016   -88140.411   0.83979241 
     100    161.63583    125.42194    267485.75   -83891.863    4105.4665    -87997.33    1.6809185 
     150    170.75388    518.62091    266613.87    -83569.11    4337.0601    -87906.17    2.6318344 
     200    175.70889    289.90972    267464.43   -83287.669    4462.9148   -87750.584    3.6778632 
     250    182.50213   -272.69647    268931.77   -83017.428    4635.4596   -87652.888    4.6701732 
     300    185.61636   -210.04831    269633.55   -82730.502    4714.5594   -87445.062    5.7904178 
     350    188.22468   -197.30003    269604.38    -82426.26    4780.8094   -87207.069    7.0319942 
     400    189.10643   -7.0199191    269295.17   -82234.796    4803.2055   -87038.002    8.4919179 
     450     200.4739    142.51746    268949.78   -82029.488    5091.9333   -87121.422    9.8440145 
     500    202.25497    21.227109    269226.21    -81825.87    5137.1716   -86963.041     11.12367 
     550    204.39899    113.89301    269618.31   -81641.964    5191.6284   -86833.593    12.584509 
     600    208.57659   -50.847163    270054.88   -81432.869    5297.7375   -86730.606    14.180712 
     650    208.80083   -107.46932    270181.16   -81267.773     5303.433   -86571.206    15.933308 
     700    215.99115    65.406971    269811.38   -81048.327    5486.0634    -86534.39    17.695946 
     750     218.3865    566.34369    269523.18   -80902.459    5546.9041   -86449.363    19.499984 
     800    219.46292   -97.971781    270159.45   -80745.009    5574.2445   -86319.254     21.61249 
     850    220.74188    233.66472    270792.83   -80612.567    5606.7296   -86219.297     23.70643 
     900    225.58685   -267.44453    271481.31   -80469.605    5729.7892   -86199.394     25.74611 
     950    229.38294    15.980094    271264.65   -80330.263     5826.208   -86156.471     27.90392 
    1000    230.02079    156.53703    270644.84   -80156.664    5842.4091   -85999.073    29.968355 
    1050     236.0787    158.68743    270433.38   -80052.615    5996.2769   -86048.892    32.074026 
    1100    233.79629    61.023995    270923.79   -79892.805    5938.3048    -85831.11    34.078761 
    1150     234.9669   -24.892052    271527.04   -79732.523    5968.0376   -85700.561    36.395525 
    1200    241.60216    -126.5585     271872.1   -79654.303    6136.5699   -85790.873    38.780366 
    1250    241.34698    73.037131    271736.93   -79546.538    6130.0883   -85676.626     41.18965 
    1300    246.12207    49.245493       271419   -79481.258    6251.3733   -85732.631    43.158691 
    1350     245.6798    113.38924    271388.82   -79324.037    6240.1396   -85564.177    45.496516 
    1400    246.55991   -13.502566    271821.74   -79213.572    6262.4941   -85476.066    47.907453 
    1450    248.61464   -83.858494    272135.93   -79095.135    6314.6832   -85409.818    50.590203 
    1500    252.62602   -32.875816    272213.52    -79057.39    6416.5702    -85473.96    53.029474 
    1550    248.41459    161.98766    272229.57   -78944.208     6309.602    -85253.81    55.388058 
    1600    258.59119    124.20736    272321.95   -78868.484    6568.0825   -85436.566    58.022904 
    1650    259.47493   -4.5141385    272613.13   -78803.965     6590.529   -85394.494    60.868364 
    1700    255.67344    -210.9274    272792.71   -78731.586     6493.973   -85225.559    63.785689 
    1750    256.94534   -50.305859    272894.73   -78626.169    6526.2785   -85152.448    66.270082 
    1800    256.75664    -249.4281    272986.17   -78588.768    6521.4857   -85110.254    68.812448 
    1850    262.97597     308.5344     272604.8   -78489.585    6679.4535   -85169.038    71.471012 
    1900    261.19526    244.50382    272332.43   -78429.237    6634.2245   -85063.461    74.014872 
    1950    265.15514   -70.696401    272489.31   -78368.907    6734.8032    -85103.71    76.767996 
    2000    266.22118    216.57252    272816.25   -78264.198    6761.8803   -85026.078    79.795673 
    2050    263.70755   -6.1784208    273390.48   -78223.467    6698.0353   -84921.502    82.474989 
    2100    267.97122    82.373979    273592.38    -78185.11    6806.3304   -84991.441    85.253989 
    2150    270.52874    246.58925    273479.22   -78085.768    6871.2901   -84957.058    87.817159 
    2200    269.52556    309.36635    273544.36   -78022.439    6845.8097   -84868.249    90.304707 
    2250    270.89318   -245.30694    273686.85   -77996.972    6880.5465   -84877.518    93.200567 
    2300    272.61573    140.38171    273413.26   -77975.252    6924.2985    -84899.55    95.894562 
    2350    271.29896    179.13855    273048.42   -77914.559    6890.8532   -84805.412    98.848761 
    2400    268.16794    415.70354    272742.49   -77914.053    6811.3268    -84725.38    102.12576 
    2450    275.97631   -31.688946    273101.65   -77940.497    7009.6553   -84950.152     105.3733 
    2500    268.04965   -51.302573    273534.72   -77935.571    6808.3224   -84743.894    108.18799 
    2550    272.32147    67.561775    273595.71   -77848.083    6916.8244   -84764.908    110.83734 
    2600    270.73003    18.962542    273561.25   -77850.143    6876.4028   -84726.546    112.86532 
    2650     277.5203    32.557076    273464.29   -77862.712     7048.872   -84911.584    115.72643 
    2700    273.29091   -20.106879    273671.27   -77814.556    6941.4478   -84756.004    118.57047 
    2750    273.97815   -201.86815    273857.41   -77768.407    6958.9032    -84727.31    121.21433 
    2800    273.99125     60.48537    273623.06   -77795.381     6959.236   -84754.617     124.0903 
    2850    279.13146    301.93214    273379.98   -77758.903    7089.7947   -84848.698    127.14252 
    2900    278.08774    49.809951    273640.87   -77715.402    7063.2846   -84778.687    130.16427 
    2950     273.4703    76.934989    273983.54   -77701.207     6946.004   -84647.211    133.43261 
    3000    274.83481    143.99186    273981.22   -77700.796    6980.6618   -84681.458    136.65979 
    3050    279.69197   -307.18633    273970.92   -77674.739    7104.0312    -84778.77    139.54259 
    3100    272.06279    69.596839    273562.75   -77597.659     6910.254   -84507.914    141.62917 
    3150    282.22401    18.290379    273433.87   -77558.784    7168.3437   -84727.128     144.3691 
    3200    280.51315    173.46864    273795.48   -77523.269    7124.8889   -84648.158    147.40258 
    3250    281.25278   -67.657059    274168.87   -77490.703    7143.6752   -84634.378    150.68712 
    3300    279.37193    12.181312    274378.74   -77494.132    7095.9024   -84590.034    153.96147 
    3350    281.54671   -234.21773    274192.96   -77520.816    7151.1406   -84671.956    156.91321 
    3400    277.67654   0.48243662    273478.59   -77527.951    7052.8405   -84580.791    159.44976 
    3450    278.56201    333.58463    272934.64   -77576.295    7075.3309   -84651.626     162.3272 
    3500    280.67602    -49.83558    273296.19   -77583.448    7129.0257   -84712.474    164.95973 
    3550    278.97964    39.085616    273975.22   -77568.086    7085.9385   -84654.024    168.08502 
    3600    279.72139    -113.4733    274547.92   -77536.471    7104.7785   -84641.249    170.90179 
    3650     275.3822   -33.895553    274291.12    -77500.89    6994.5654   -84495.455     173.9939 
    3700    285.51057    37.879198    273694.09   -77464.495    7251.8207   -84716.316    176.31057 
    3750    280.69144     295.2444    273316.52   -77360.348    7129.4173   -84489.765     178.3433 
    3800    286.58498   -132.60831    273696.46   -77357.847    7279.1102   -84636.957    181.03339 
    3850    286.15974    66.910679    274192.81   -77307.787    7268.3093   -84576.097    184.61941 
    3900    279.97583   -188.53165    274512.82   -77268.833    7111.2412   -84380.075    188.17023 
    3950    281.22787   -173.44535    274251.59   -77259.063    7143.0423   -84402.106    191.41855 
    4000    280.68112   -28.566764     273588.2   -77318.716    7129.1553   -84447.871     194.1623 
    4050    279.36903    241.49376     273220.7   -77316.957    7095.8288   -84412.786    197.09254 
    4100    283.18709    0.5321287    273581.22   -77302.092    7192.8055   -84494.898    199.73841 
    4150    282.68704    36.111036    274350.93   -77339.726    7180.1046   -84519.831    202.81929 
    4200    277.88126   -169.85454    275000.12   -77297.539    7058.0402   -84355.579    205.77371 
    4250    282.96366   -338.63499    274744.77   -77271.392    7187.1306   -84458.523    208.62979 
    4300    282.89286    101.30578    273982.82   -77259.595    7185.3322   -84444.927    211.35667 
    4350    288.09618    6.2463038    273809.89   -77257.081    7317.4939   -84574.574    214.63847 
    4400     284.9382   -3.1181284    274120.41   -77281.985    7237.2827   -84519.268    217.63884 
    4450    286.96509   -200.68299    274471.69   -77257.989    7288.7649   -84546.754    220.65489 
    4500    284.22156   -157.93826    274687.62   -77238.077    7219.0804   -84457.157    223.93778 
    4550    282.31699   -141.37448    274576.98   -77223.454    7170.7054   -84394.159     226.9378 
    4600    286.69684    18.136338     274123.5   -77197.867    7281.9513   -84479.819    229.81921 
    4650    287.10851   -67.706536    273815.11   -77204.155    7292.4077   -84496.563    232.84299 
    4700    278.75841    44.199872    273822.06    -77191.98    7080.3195     -84272.3    236.14801 
    4750     285.0175   -84.924018    274010.74   -77226.625    7239.2971   -84465.922    239.18931 
    4800     283.3371   -148.58858    274300.95   -77200.185    7196.6157     -84396.8     242.3805 
    4850    280.81143   -27.643065    274516.92   -77148.505     7132.465    -84280.97    245.13974 
    4900    286.52951    13.598547     274469.4   -77153.188    7277.7012   -84430.889    248.00193 
    4950    282.79982    90.988063    274108.55   -77155.127     7182.969   -84338.096    251.31146 
    5000    284.88236   -63.201568    273966.48   -77154.591    7235.8646   -84390.456    254.41879 
    5050    287.52688    139.78085    273982.58   -77157.932    7303.0339   -84460.966    257.10497 
    5100    287.25293    -12.73603    274263.57    -77143.13    7296.0758   -84439.206     260.2197 
    5150     285.6528   -18.114134    274599.44   -77168.502    7255.4333   -84423.935    263.82219 
    5200     282.3086   -18.428532    274644.52    -77117.83    7170.4924   -84288.322    267.35825 
    5250    287.74855   -22.681489    274397.89    -77089.92    7308.6643   -84398.585    270.82029 
    5300    286.41108    239.59302    274043.53   -77042.174    7274.6932   -84316.867    274.05175 
    5350    291.31869    72.577099    274192.78   -77038.254     7399.344   -84437.598    277.82207 
    5400    287.45704   -211.77956    274539.45   -77049.504    7301.2601   -84350.765    281.24268 
    5450    287.11964    96.926217    274420.36   -77034.653    7292.6904   -84327.343    283.94896 
    5500    285.98888   -63.146426    274408.89   -77037.328    7263.9694   -84301.297    287.67186 
    5550    284.84957    108.66654     274414.1   -77074.301    7235.0317   -84309.333    291.12996 
    5600    289.82268   -277.37205    274451.62   -77039.774     7361.346    -84401.12    293.96795 
    5650    285.17758    189.52226    274198.74   -77029.162     7243.363   -84272.525    296.89843 
    5700    290.68705     316.0739    274015.43   -76980.311    7383.3006   -84363.612    299.76118 
    5750    286.04272    47.303546    274165.07    -77006.32     7265.337   -84271.657    303.02873 
    5800    287.34606   -171.84585    274257.61   -77025.853    7298.4412   -84324.295    306.63926 
    5850    289.69241    145.08464     274301.1    -77017.19    7358.0372   -84375.228     310.2015 
    5900    288.16505     181.7528    274462.98   -76983.376    7319.2431   -84302.619    313.94004 
    5950     288.6058   -134.14728    274617.69   -76954.875    7330.4379   -84285.313    316.80687 
    6000    292.56359    16.498904    274347.84   -77005.367    7430.9638   -84436.331    319.75749 
    6050    289.29933    10.481103    274175.17   -77047.792    7348.0534   -84395.845    323.30233 
    6100    286.92205   -31.467146    274103.16   -77046.711    7287.6715   -84334.383    326.50415 
    6150    288.46636    127.73693    274339.86   -77022.054    7326.8963    -84348.95    329.06781 
    6200    288.10824   -159.76252    274711.11   -77019.905    7317.8003   -84337.705    332.46674 
    6250    290.17658     -12.3576     274487.1   -76978.863    7370.3351   -84349.198    334.91774 
    6300    289.73724    215.11887    274186.43   -76983.131    7359.1761   -84342.307    336.42829 
    6350    288.72687     82.53499    274554.45   -77020.767    7333.5132   -84354.281      339.494 
    6400    288.19244    -202.7519    274935.19   -76958.228    7319.9389   -84278.167    343.25539 
    6450    287.24055   -162.02524    274811.89   -76945.769    7295.7614    -84241.53    346.02839 
    6500    287.47443    308.68681    274254.77   -76946.799    7301.7017     -84248.5    348.13515 
    6550    290.61209    133.34205    274032.24   -76959.719    7381.3966   -84341.116     350.8589 
    6600    289.85293   -290.09672    274033.05   -77042.618    7362.1144   -84404.733    353.27517 
    6650     290.4302    101.46391    274140.64   -77073.135    7376.7768   -84449.912    355.76068 
    6700    286.73402   -139.28891    274406.98   -77091.041    7282.8958   -84373.937    359.31433 
    6750    288.31408   -131.52641    274374.33   -77122.494    7323.0285   -84445.522    361.78087 
    6800    288.75522   -2.9618508     274115.2   -77130.112    7334.2332   -84464.345    363.31663 
    6850      287.639    15.349499    274063.82   -77141.501    7305.8818   -84447.382    366.38384 
    6900    289.32286   -83.459807    274048.57   -77160.244    7348.6508   -84508.895    370.30205 
    6950    286.46058    99.837099    273981.61   -77139.388    7275.9506   -84415.338     373.6412 
    7000     286.1309    -74.52398    274200.02   -77127.299    7267.5768   -84394.875    377.10097 
    7050    285.62553   -171.67218    274628.57   -77110.146    7254.7406   -84364.887    380.62987 
    7100    282.67111   -360.10404    274816.99   -77058.383    7179.6999   -84238.083    384.09771 
    7150    288.89737    78.856429     274542.1   -77070.595    7337.8436   -84408.439     387.5335 
    7200    289.18261   -156.26843    274442.86   -77040.251    7345.0886    -84385.34    389.84234 
    7250    290.66084    17.927295    274545.86   -77003.897     7382.635   -84386.532    393.36425 
    7300    293.68282   -232.77863    274608.98   -76993.346    7459.3916   -84452.738     395.9741 
    7350    288.50625    -69.15982     274594.3   -77017.715    7327.9094   -84345.624    398.45061 
    7400    286.54468    134.83404    274542.92   -77016.851    7278.0865   -84294.937    401.22643 
    7450    285.62044    50.373478    274671.37   -76989.349    7254.6115    -84243.96    404.35173 
    7500    286.39316   -171.49977    274700.82   -77018.447    7274.2379   -84292.685    407.49752 
    7550    288.93914   -112.49771    274236.64   -77066.886    7338.9047   -84405.791    410.02647 
    7600    285.44864    192.02901    273902.51   -77071.171    7250.2476   -84321.419    413.02944 
    7650    290.71433    110.28292    274108.26    -77048.72    7383.9935   -84432.713     415.6841 
    7700    293.53722   -309.91369    274431.54   -77060.126    7455.6936    -84515.82    419.25346 
    7750    284.48238    91.742522    274391.13   -77073.654    7225.7052   -84299.359     422.7911 
    7800    285.66658   -288.31926    274242.25   -77111.502    7255.7833   -84367.285    425.16929 
    7850     289.1967   -124.48061    274240.32   -77099.938    7345.4465   -84445.384    428.59271 
    7900    283.90323    135.34118    274342.91   -77057.281    7210.9951   -84268.276    432.62869 
    7950    290.24955   -94.499579    274517.76   -77076.378    7372.1884   -84448.567    434.78123 
    8000    289.59184   -303.97254    274529.93   -77068.194    7355.4829   -84423.677    437.42931 
    8050    284.88651    90.570929    274258.31   -77081.444      7235.97   -84317.415    438.86493 
    8100    286.61333    218.61299    273984.09   -77115.899    7279.8301   -84395.729    441.77271 
    8150    285.89868    364.36292    273988.39   -77164.697    7261.6785   -84426.376    445.91873 
    8200    284.80651    62.699169    274267.13   -77128.369     7233.938   -84362.307    449.39988 
    8250    281.63562   -319.68148    274745.13   -77132.452     7153.399   -84285.851     453.2572 
    8300    286.46401   -93.527649    275125.58   -77114.819    7276.0376   -84390.856    456.61429 
    8350    284.64415   -93.173336     274936.3   -77177.156     7229.814    -84406.97     458.8448 
    8400    289.63401    56.395873    274107.82   -77188.153    7356.5539   -84544.706    460.75359 
    8450    285.54682    224.19123    273571.12   -77177.768    7252.7416    -84430.51    463.15736 
    8500    288.90789     314.7726    273690.36   -77128.099    7338.1109    -84466.21    467.12174 
    8550    284.20092    113.01464    274458.32   -77087.951    7218.5563   -84306.507    470.96921 
    8600    287.07166     -146.678    274858.75   -77091.861    7291.4715   -84383.333    474.03192 
    8650    289.22032   0.46046079    274798.84   -77044.196    7346.0465   -84390.243     477.2654 
    8700    285.30064    81.880575    274328.69   -77016.177    7246.4887   -84262.666    478.46416 
    8750    289.71996    66.400353    274144.08   -76995.633    7358.7372    -84354.37    480.69194 
    8800    292.04392    86.104926    274300.26   -76979.513    7417.7645   -84397.277    484.54241 
    8850      290.651     166.6107    274808.16   -76960.016    7382.3849   -84342.401     488.1586 
    8900    289.83143    -282.8664    275089.46   -76966.834    7361.5683   -84328.403    490.24971 
    8950    289.28182    188.77605    274645.72   -76944.166    7347.6086   -84291.775    492.21277 
    9000    288.42498     -85.0505    274440.43   -76959.089    7325.8452   -84284.934    494.38928 
    9050    283.40351     99.32908     274396.9   -76931.056    7198.3024   -84129.358    497.06763 
    9100    289.51374   -195.21026    274597.94   -76947.659     7353.499   -84301.158    499.27442 
    9150    287.47592     20.26744    274648.43   -76960.611    7301.7397   -84262.351    501.38026 
    9200      289.079    17.569963    274792.79   -76920.328     7342.457   -84262.785     503.6075 
    9250    290.86624   -20.336411    274645.34   -76906.169     7387.852   -84294.021    505.44685 
    9300    289.97587   -161.36352    274197.86   -76967.407     7365.237   -84332.644    507.11668 
    9350    294.24444    137.33028    273799.56   -76974.357    7473.6565   -84448.014    509.83931 
    9400    284.11774   -108.69927    274234.24   -77016.613    7216.4437   -84233.057    514.12095 
    9450    287.63895   -143.11461    274760.79   -77025.513    7305.8804   -84331.393    518.05453 
    9500    291.10401    97.494795    274703.52   -77022.496    7393.8911   -84416.387    520.53483 
    9550    292.14369    170.19675    274302.41   -77030.325    7420.2986   -84450.624    523.25275 
    9600    285.27339   -32.098296    274052.05   -77027.324    7245.7964   -84273.121    525.93723 
    9650    287.65786    477.09957    273973.21   -76993.531    7306.3607   -84299.892    530.07989 
    9700    289.20378   -115.31289    274543.01   -76995.956    7345.6262   -84341.583    533.57089 
    9750    283.32031   -486.65021     275065.1   -77070.375    7196.1893   -84266.564    537.52044 
    9800    287.28453    52.276094     274708.8   -77042.797    7296.8785   -84339.675    540.39867 
    9850    286.73481    163.17105    274073.09    -77041.24    7282.9157   -84324.156    541.19718 
    9900    288.32218    373.96979    273796.74     -77004.6    7323.2343   -84327.834    543.87805 
    9950    291.26536    57.914482    273964.91   -77020.586    7397.9894   -84418.575     548.2233 
   10000    284.30517    157.37218    274407.78   -77036.241    7221.2042   -84257.446    552.08953 
   10050    284.73953   -153.34559    274861.49   -77031.823    7232.2367    -84264.06    555.24998 
   10100    293.04326   -317.91626    274862.89   -77024.814    7443.1472   -84467.961    556.87731 
   10150    292.24727     -34.3144    274420.23   -77017.155    7422.9295   -84440.085    558.32232 
   10200    289.17607    297.20256    274018.49   -77051.331    7344.9226   -84396.254    560.60008 
   10250       289.56    30.544958    274245.31   -77004.982    7354.6741   -84359.656    562.37711 
   10300    291.98516    -116.1416    274810.11   -76972.709     7416.272   -84388.981    564.22487 
   10350     287.2667   -140.11981    275046.52   -76994.246    7296.4254   -84290.671    567.59774 
   10400     283.3015   -65.362146    274636.12   -77018.427    7195.7115   -84214.138    571.62267 
   10450    288.58537    84.654589    274061.38    -76997.96    7329.9189   -84327.879    572.55346 
   10500    285.82639    257.20819    273673.64   -76971.576    7259.8424   -84231.418    573.56702 
   10550    291.43205    23.945327    273973.72   -76965.482    7402.2233   -84367.706    576.10754 
   10600    290.92585   -418.54036    274710.43   -76964.027     7389.366   -84353.393    579.76164 
   10650    285.55349    -359.6699    275010.92   -76991.192    7252.9109   -84244.103    583.24229 
   10700    285.21129     33.08512    274528.81    -77042.78    7244.2191   -84286.999    584.82417 
   10750    289.63415    135.83451    273868.84   -77038.372    7356.5576   -84394.929    585.91532 
   10800    287.20316    191.55506    273583.67    -77042.23    7294.8115   -84337.042    588.22229 
   10850    288.04816    -91.83754    273792.44    -77047.16    7316.2741   -84363.435    590.13406 
   10900    289.35298    24.647797    274223.57   -77050.911    7349.4159   -84400.327    593.10103 
   10950    283.42894   -104.07252    274791.17   -77086.419    7198.9485   -84285.367    596.92222 
   11000    287.67544   -18.503701    274933.66   -77111.671    7306.8072   -84418.478    599.55021 
   11050     280.4589    96.670179    274623.24   -77090.442    7123.5109   -84213.953     603.0453 
   11100    285.34365     261.7109    274083.26   -77131.629     7247.581    -84379.21    603.93633 
   11150    282.66506   -27.261145    273918.76   -77128.187    7179.5461   -84307.733    606.37952 
   11200    286.24965   -74.548548    274060.49   -77146.213     7270.593   -84416.806    609.23646 
   11250    289.53258   -170.29689    274509.38   -77144.089    7353.9776   -84498.066    612.05091 
   11300    290.94329   -129.86211    274795.66   -77171.406     7389.809   -84561.215    615.02877 
   11350    283.83859   -133.37896    274637.53   -77168.696    7209.3534    -84378.05    616.35454 
   11400    286.90219    247.05533    274050.97   -77187.234    7287.1671   -84474.401    618.30146 
   11450    285.74918   -116.51908     273805.1   -77145.815    7257.8813   -84403.696    621.19679 
   11500    288.58816    394.51288    274003.57   -77076.321    7329.9899   -84406.311    624.74854 
   11550    291.41101    24.592387    274617.69   -77068.272    7401.6889   -84469.961    627.53498 
   11600    284.23271    10.137934    274779.19   -77104.291    7219.3638   -84323.655    630.07204 
   11650    281.18907   -239.13941    274491.28   -77183.323    7142.0567    -84325.38    633.09224 
   11700    288.73386    116.19888    273787.73   -77150.659    7333.6906    -84484.35    633.49642 
   11750    286.16809    330.80577    273370.47   -77194.754    7268.5214   -84463.276    634.77886 
   11800    282.66855    49.128466    273658.02   -77236.273    7179.6348   -84415.907    638.60145 
   11850    281.76567   -173.91236    274393.08   -77244.769    7156.7022   -84401.471    642.20752 
   11900    283.45041   -166.16435    274730.26   -77225.939    7199.4937   -84425.433    645.56096 
   11950    286.08847   -311.65779    274547.15   -77210.421    7266.4991    -84476.92    648.56935 
   12000    280.70948   -18.037647    274156.38   -77228.173    7129.8755   -84358.048    650.34193 
   12050    285.67788    18.245975    273951.87   -77257.582    7256.0704   -84513.652    652.36323 
   12100    282.30372    55.194802    273988.85   -77226.725    7170.3684   -84397.093    654.45377 
   12150     286.5561   -78.236593    274162.64    -77183.38    7278.3767   -84461.757    656.00719 
   12200    287.97282    8.7083002    274079.42   -77147.201    7314.3606   -84461.561    658.20226 
   12250    287.30307    177.46155    274200.41   -77185.454    7297.3493   -84482.803    660.91261 
   12300    289.42571    149.36969    274229.98   -77091.055    7351.2632   -84442.318    663.22898 
   12350    287.46763   -286.54303    274518.24   -77133.865     7301.529   -84435.394    666.68334 
   12400    291.52769   -62.369819    274551.54   -77105.192    7404.6525   -84509.844    670.02022 
   12450    291.41836    59.490635    274283.82   -77083.422    7401.8755   -84485.297    672.12277 
   12500     287.8682   -98.115147    274202.22   -77107.666    7311.7032   -84419.369    674.14305 
   12550    286.14808    128.24063    274025.43   -77099.931    7268.0132   -84367.944    676.55127 
   12600    283.21623   -2.2757642    274198.72   -77122.129    7193.5457   -84315.675    678.91603 
   12650     283.5685    106.07534    274624.42   -77127.684    7202.4931   -84330.177    682.43939 
   12700     284.7378   -74.920895    274851.71   -77140.662    7232.1929   -84372.855    684.96321 
   12750    279.94047   -141.34089    274748.57   -77131.189    7110.3431   -84241.532    687.11498 
   12800    282.98924    211.23923    274000.34    -77155.31    7187.7802    -84343.09    688.75617 
   12850     280.9881    165.03969    273343.11   -77186.738    7136.9523    -84323.69    689.66124 
   12900     287.3926    16.957003    273522.51   -77169.191    7299.6234   -84468.814    694.22589 
   12950    280.79915   -82.401934    274365.97   -77163.433    7132.1532   -84295.586    698.40825 
   13000    284.26066   -60.774689    274856.31    -77130.65    7220.0737   -84350.724    701.73765 
   13050    285.70042   -35.737721    274739.51   -77100.202    7256.6429   -84356.845    703.42462 
   13100    285.61533    -115.7843    274415.89   -77053.165    7254.4815   -84307.646    706.31978 
   13150    294.23761    86.114837    273936.58   -77079.928    7473.4831   -84553.411    707.94902 
   13200     287.3121    61.998319    273994.11   -77097.895    7297.5786   -84395.474    710.24954 
   13250    285.92792    -163.5001    274304.24   -77079.835    7262.4211   -84342.256    713.53892 
   13300    281.79721   -54.877004    274520.08   -77077.558    7157.5032   -84235.061    717.80129 
   13350    285.53434   -24.486987    274416.79   -77066.816    7252.4244    -84319.24     719.1916 
   13400    283.91631   -18.879034    274179.45   -77106.473    7211.3273     -84317.8    721.87941 
   13450    288.14025    46.061233    274226.55   -77076.077    7318.6132   -84394.691    723.89687 
   13500    285.42007    126.69816    274404.42   -77064.912    7249.5222   -84314.434    726.07882 
   13550    291.70135    60.133274    274330.44   -77054.003    7409.0634   -84463.067    728.37983 
   13600    289.91005   -195.92402    274187.03   -77069.247    7363.5652   -84432.812    731.06731 
   13650    285.22836   -135.70732    274024.02   -77090.439    7244.6527   -84335.092    733.35049 
   13700    291.50001   -85.914617    274029.61   -77097.851    7403.9494   -84501.801    737.48974 
   13750    287.67377   -163.70174    274221.05   -77089.391    7306.7649   -84396.155    739.33511 
   13800    289.90815   -237.77973    274236.38   -77068.511    7363.5169   -84432.028    740.91985 
   13850    288.67188    140.91249    274432.46   -77071.828    7332.1164   -84403.945    742.25656 
   13900    287.91398    35.099645    274788.77   -77098.034     7312.866     -84410.9    746.28733 
   13950    282.69314    240.87361    275029.32   -77107.261    7180.2593    -84287.52    749.76812 
   14000    284.64284   -109.43108    274782.98   -77114.551    7229.7808   -84344.332    751.88986 
   14050    286.08773     113.5348    273889.55   -77120.004    7266.4803   -84386.484     751.6665 
   14100    286.52191    262.11035    273373.31   -77090.352    7277.5083    -84367.86    753.82564 
   14150    286.14853    431.04549    273636.32   -77106.872    7268.0247   -84374.896    756.11694 
   14200    289.46408   -220.69942    274768.16   -77149.123    7352.2377   -84501.361    760.82748 
   14250    279.91301    -722.4113    275576.47   -77175.755    7109.6456   -84285.401    765.46588 
   14300    286.49367    -284.8859    274940.18   -77170.274    7276.7909   -84447.065    767.28824 
   14350    290.43416    11.632009    273882.14   -77199.512    7376.8773   -84576.389    765.93987 
   14400    292.94712    249.75903    273185.52   -77196.092    7440.7051   -84636.797    767.61432 
   14450    290.11748    6.5536955    273612.75   -77191.344    7368.8337   -84560.178    769.32647 
   14500    285.68801   -182.50353    274802.92   -77148.104    7256.3275   -84404.432    774.82343 
   14550    286.56727   -398.91314    275370.31   -77163.332    7278.6604   -84441.993    779.74799 
   14600     285.6792   -118.23784    274930.99   -77181.886    7256.1037    -84437.99    781.99281 
   14650    284.77882   -172.65792    273999.92   -77158.223    7233.2347   -84391.458    781.16307 
   14700    288.29246    340.27615    273360.94   -77109.817    7322.4792   -84432.296    783.54504 
   14750    289.30409    124.21058    273827.78   -77138.695    7348.1741   -84486.869    788.00367 
   14800    288.00495   -101.67284    274609.47   -77140.049    7315.1766   -84455.226    791.65986 
   14850    282.31092   -310.53017    275071.24   -77134.066    7170.5514   -84304.617    795.74006 
   14900    283.00947   -8.9463779    274736.98   -77129.502     7188.294   -84317.796    799.62026 
   14950    286.22926    -232.5563    274265.46   -77184.022    7270.0752   -84454.097     800.6911 
   15000    286.05068     154.8898    273807.62   -77187.764    7265.5392   -84453.303    802.28069 
   15050    283.89715    7.3656347    273870.27   -77230.352    7210.8406   -84441.193    804.54463 
   15100    284.45968    105.29062    274165.87   -77237.076    7225.1287   -84462.205    807.46849 
   15150    284.10814   -190.63986    274687.08   -77260.342    7216.1998   -84476.542    811.41214 
   15200    280.79952   -120.96301    274804.23   -77292.245    7132.1624   -84424.407    814.69446 
   15250    288.02359   -324.39657    274594.69   -77273.995    7315.6501   -84589.645    815.13901 
   15300    278.91462    93.226591    274016.23   -77268.132     7084.287   -84352.419    815.49537 
   15350    280.54024    304.21178    273511.31   -77270.089    7125.5769   -84395.666     816.7677 
   15400    281.49837    47.975364    273828.19   -77289.413    7149.9129   -84439.326    819.66628 
   15450    280.01753   -260.51484    274462.61    -77388.52    7112.3004   -84500.821     822.5458 
   15500    278.87152   -122.85393    274176.01    -77405.99    7083.1922   -84489.182    823.59824 
   15550    282.38923    376.48702    273463.98    -77422.91    7172.5404    -84595.45    823.88223 
   15600    285.21416    42.415866    273422.03   -77372.568     7244.292    -84616.86    827.08097 
   15650     284.2404    37.143555    273856.15   -77323.066     7219.559   -84542.625    830.28062 
   15700     283.6204     11.30199     274290.2   -77274.101    7203.8115   -84477.912    834.46108 
   15750    285.94354   -322.06788    274583.39   -77240.367     7262.818   -84503.185    838.46834 
   15800    287.07797   -107.08018    274484.34   -77251.409    7291.6318   -84543.041     840.4491 
   15850     287.0925    45.349902    274056.38   -77256.305    7292.0008   -84548.306    840.63714 
   15900    283.65302    170.20868    273528.15   -77261.056    7204.6399   -84465.696    842.28089 
   15950    287.12161    53.609221    273807.79   -77279.595    7292.7403   -84572.335    845.43955 
   16000    280.62997   -98.362929     274494.6   -77240.404    7127.8561    -84368.26    850.31257 
   16050    281.03266   -232.19043     275045.2   -77254.015    7138.0841   -84392.099    854.66018 
   16100    282.94639   -95.803771     274789.9   -77259.637    7186.6918   -84446.329    857.89231 
   16150    286.04895    159.43384    274014.74   -77242.627    7265.4953   -84508.122    858.06753 
   16200    288.15576    257.96204     273430.3   -77153.759    7319.0072   -84472.766    857.16356 
   16250    283.84525    67.195793    273744.84   -77149.602    7209.5224   -84359.125    862.13235 
   16300    285.76239   -96.832399    274442.52   -77127.987    7258.2168   -84386.204    866.31994 
   16350    287.88017   -403.73524    274832.49   -77086.994    7312.0073   -84399.001    869.08548 
   16400    284.43115   -8.6882681    274672.75   -77130.415    7224.4039   -84354.819    870.68642 
   16450    292.42302   -98.441273    274343.34   -77118.827    7427.3933   -84546.221    870.20349 
   16500    285.45361    101.34663    274170.37   -77121.341     7250.374   -84371.715    872.03651 
   16550    286.99659   -223.84593    274313.45   -77190.255     7289.565    -84479.82    874.62287 
   16600    286.31793    54.000647    274657.91   -77174.113    7272.3273    -84446.44     878.7933 
   16650    282.65293    14.770184    274750.28   -77218.739    7179.2382   -84397.977     881.2598 
   16700    282.52605    150.43739    274417.26   -77190.079    7176.0155   -84366.095     882.5451 
   16750    285.88927    162.97164    274000.34   -77163.146    7261.4394   -84424.586    884.42054 
   16800    288.17589      319.754    273718.84   -77130.246    7319.5184   -84449.764    885.51181 
   16850     283.1599   -14.031658    274024.45   -77108.458     7192.115   -84300.573    889.92016 
   16900     283.9531   -35.241502    274595.66   -77127.362    7212.2618   -84339.624    891.86456 
   16950    286.59199   -311.48218    274991.72   -77119.418    7279.2883   -84398.706    895.15306 
   17000    286.33634    25.819474    274736.26   -77140.283    7272.7947   -84413.078    896.66228 
   17050    292.63213    2.0411802    274224.66   -77114.861    7432.7046   -84547.565    897.54484 
   17100    288.24243    65.696937    273645.25   -77102.462    7321.2084   -84423.671     898.4293 
   17150    288.16794     214.0317    273538.56   -77128.783    7319.3166     -84448.1    900.85543 
   17200    283.56398   -51.672156    274297.16   -77146.592    7202.3784    -84348.97    904.65859 
   17250    285.43275   -71.619651    274809.67   -77150.468    7249.8442   -84400.312    906.68478 
   17300    285.51307   -435.64185    274738.84   -77168.652    7251.8841   -84420.536    907.87759 
   17350    287.79032   -20.586304    274040.44   -77204.956    7309.7252   -84514.682    908.09306 
   17400    288.12674    56.903693     273793.5   -77216.551      7318.27   -84534.821    908.16593 
   17450    285.19838   -216.47682    273949.74    -77205.76    7243.8911   -84449.652    912.14075 
   17500    282.60118   -45.054157    273945.29   -77269.065    7177.9237   -84446.989    915.67293 
   17550    284.77386    -92.00591    274106.74   -77273.873    7233.1088   -84506.981    917.76454 
   17600    283.98115    144.25593    274255.83   -77280.472    7212.9743   -84493.446    921.15215 
   17650     284.4211    -252.3385    274321.54   -77250.476    7224.1488   -84474.625    924.07901 
   17700    278.71717    197.36545    274096.63   -77275.223    7079.2718   -84354.495    925.50924 
   17750    283.77931    78.702598    274031.95   -77289.326    7207.8476   -84497.173    926.82334 
   17800    282.50341   -316.97503    273929.02   -77304.671    7175.4403   -84480.111    928.16314 
   17850    283.94487    167.93911    273668.27    -77337.04    7212.0528   -84549.093    929.46609 
   17900    284.82666   -398.55601    273669.66   -77289.615    7234.4498   -84524.065    931.80362 
   17950    286.10066    236.00248    273749.64   -77329.829    7266.8087   -84596.638    935.38479 
   18000    284.84632   -292.81726    274448.88   -77319.442     7234.949   -84554.391    939.73808 
   18050    281.65069   -418.51952    274791.23   -77355.631    7153.7817   -84509.412    944.18453 
   18100     279.3941    27.768429    274374.39   -77353.616    7096.4654   -84450.082     946.2486 
   18150    280.71775    251.01878    273887.49   -77358.413    7130.0855   -84488.499    946.90445 
   18200    285.51586    121.58921    273458.88   -77361.299    7251.9552   -84613.254    948.57283 
   18250     281.3202    97.558751    273413.81   -77401.837    7145.3874   -84547.225    950.13992 
   18300    282.42129    210.13972    273777.78     -77379.6    7173.3547   -84552.955    953.46905 
   18350    282.19778    -96.11697    274269.52   -77345.783    7167.6776   -84513.461    957.56041 
   18400    284.82939   -161.65474    274397.23   -77380.871    7234.5191   -84615.391    962.44176 
   18450    278.03072   -160.51763    274077.61    -77356.62    7061.8365   -84418.456    963.53544 
   18500    283.73258    107.09335    273733.42   -77322.118    7206.6606   -84528.778    963.57959 
   18550    283.05364    70.891911    273876.85   -77295.431    7189.4159   -84484.847    964.97815 
   18600    284.19439    149.54112    274172.57   -77303.438    7218.3904   -84521.828    968.72558 
   18650    282.72941   -82.018632    274442.66   -77271.528    7181.1807   -84452.708    973.55873 
   18700    287.79145   -96.998245    274365.91   -77213.756    7309.7538    -84523.51    975.65274 
   18750    289.04219     192.1352    274180.86   -77202.923    7341.5219   -84544.445    977.18503 
   18800    288.27501    90.335981    274161.13   -77144.446     7322.036   -84466.482    980.46553 
   18850    285.05961    108.30683    274266.61   -77153.473    7240.3666    -84393.84    981.71141 
   18900    283.12973   -4.7744131    274226.67   -77189.186    7191.3485   -84380.534    984.02952 
   18950    286.29241    105.59034    274050.96   -77243.319    7271.6789   -84514.998    985.07585 
   19000    283.78485    314.35505    273922.32   -77220.033    7207.9883   -84428.021    988.13313 
   19050    284.67097   -26.625595    274164.32   -77251.243    7230.4954   -84481.738     990.5988 
   19100     282.6561   -294.43279     274318.5   -77225.723    7179.3186   -84405.042    993.29582 
   19150    285.11362    88.917155    274093.38   -77212.469    7241.7384   -84454.208    994.77972 
   19200    289.16755    7.3804846    273977.12   -77199.811    7344.7062   -84544.517    998.05377 
   19250    288.40252    83.236424    274119.79   -77192.689    7325.2748   -84517.964    1003.1104 
   19300     291.6216    92.635669     274048.6   -77196.342    7407.0377    -84603.38    1004.5523 
   19350    282.41249    186.10497    274085.01   -77185.586     7173.131   -84358.717    1008.3189 
   19400    288.39525    193.69122    274368.27   -77166.061      7325.09   -84491.151    1011.5726 
   19450    288.26678   -164.48354    274655.06   -77137.211    7321.8269   -84459.038    1014.0336 
   19500    284.87426    5.3484998     274486.2   -77126.103    7235.6587   -84361.761    1015.3062 
   19550    282.71969    389.07703    274357.31   -77162.491    7180.9337   -84343.425    1016.7463 
   19600    288.90951   -33.998146    274055.44   -77183.758     7338.152    -84521.91    1019.5456 
   19650    284.13045   -29.738734    274032.56   -77173.485    7216.7663   -84390.251    1022.5219 
   19700    282.81988   -123.79971    274185.54   -77176.571    7183.4786    -84360.05    1024.3687 
   19750    284.65898    89.106246    274271.31    -77156.95    7230.1908   -84387.141    1026.0663 
   19800    282.38279    162.67161     274382.4   -77147.015    7172.3767   -84319.392    1028.9307 
   19850    281.92338   -201.10616    274367.77   -77147.292    7160.7078       -84308    1030.7538 
   19900    284.98982    -84.69671    274337.68    -77129.57    7238.5939   -84368.163    1031.6554 
   19950    282.85043    114.55024    274284.88   -77130.929    7184.2544   -84315.183    1033.9443 
   20000    286.84926   -69.457625    274127.91   -77154.601    7285.8226   -84440.424    1036.1191 
   20050    286.71761    412.18041    273697.96   -77171.505    7282.4789   -84453.984    1037.4778 
   20100    285.15294    59.602721    273845.09   -77194.029     7242.737   -84436.766    1039.5995 
   20150    283.62363    -124.9034    274222.53   -77243.073    7203.8935   -84446.967    1042.9991 
   20200    282.81263    44.952912    274465.09   -77225.208    7183.2944   -84408.503    1047.7117 
   20250    284.18288   -230.45336    274720.02    -77227.07    7218.0981   -84445.168    1050.5149 
   20300     287.6121   -57.579165    274466.21   -77229.035    7305.1984   -84534.234    1051.4319 
   20350    285.16182    54.363359    273962.85   -77188.762    7242.9626   -84431.725    1049.9752 
   20400    287.34867    254.12009    273680.66   -77191.277    7298.5074   -84489.784    1051.0534 
   20450    285.61025    156.60716    273905.48   -77201.969    7254.3526   -84456.322    1054.0762 
   20500    283.64508    86.479671    274331.88   -77224.517    7204.4381   -84428.955    1057.0999 
   20550     287.6963   -321.46287    274525.65   -77196.293    7307.3371    -84503.63    1060.6504 
   20600    282.08303   -150.02028    274408.19   -77186.903    7164.7631   -84351.666    1063.6796 
   20650    285.29824    92.468759    274002.23   -77205.847    7246.4276   -84452.274    1065.1252 
   20700    286.50694    67.861841    273812.07   -77224.166    7277.1281   -84501.294    1065.9293 
   20750    287.96615   -105.97536    273829.52   -77185.694    7314.1912   -84499.885    1068.6623 
   20800    285.23103    229.62177    273975.25   -77213.958    7244.7205   -84458.678    1073.6228 
   20850    288.33263   -169.18384    274478.08   -77186.025    7323.4996   -84509.524    1077.4111 
   20900    283.51729   -157.66029    274634.49   -77183.504    7201.1923   -84384.696    1081.6638 
   20950    283.75111   -28.318138    274275.36   -77220.055    7207.1313   -84427.187    1082.7732 
   21000    287.46341      10.5863     273877.1   -77194.281    7301.4218   -84495.703    1084.2639 
   21050    285.52677    61.636977    273711.28   -77214.071    7252.2322   -84466.303    1086.9409 
   21100    284.76516   -533.32577    273997.77   -77216.773    7232.8878   -84449.661    1088.9693 
   21150    286.02878   -85.037033    274115.94   -77216.753     7264.983   -84481.736    1091.1849 
   21200    282.91516   -137.64647    274391.37   -77189.564    7185.8985   -84375.463     1094.866 
   21250    284.29069   -103.50361    274290.03   -77194.784    7220.8363    -84415.62    1095.2563 
   21300    280.73354    316.04307    274038.22   -77178.246    7130.4865   -84308.732    1095.8017 
   21350    286.42268   -73.907412    274135.83   -77180.908    7274.9878   -84455.895     1099.413 
   21400     283.7464    38.121831    274172.12   -77172.109    7207.0118   -84379.121    1101.5287 
   21450    285.07449    40.510494    274274.01   -77126.363    7240.7445   -84367.107    1103.2664 
   21500    288.65511    -49.23124    274297.85   -77134.096    7331.6903   -84465.786    1105.5589 
   21550    282.16947    69.840697    274453.71   -77111.712    7166.9586   -84278.671    1108.8838 
   21600    282.43631    210.53673    274440.05   -77090.924    7173.7361   -84264.661    1110.9015 
   21650    292.11219   -88.994229    274324.06   -77057.501    7419.4984       -84477    1110.8661 
   21700    289.87354    200.83162    274215.39   -77022.744    7362.6379   -84385.382    1112.5479 
   21750    285.35599    91.352962    274258.21   -77055.094    7247.8945   -84302.988    1114.7972 
   21800    286.69661   -66.090994     274437.1   -77025.897    7281.9455   -84307.843    1118.4917 
   21850     291.0367   -158.62087     274542.2   -77010.999    7392.1815    -84403.18    1121.9001 
   21900    288.19146    111.06414    274429.94   -77030.647    7319.9139   -84350.561    1123.6616 
   21950    289.39275     214.0218    274111.94   -77037.063    7350.4261   -84387.489    1125.2862 
   22000    286.70185   -147.77254    274138.47   -77037.113    7282.0787   -84319.192    1127.4574 
   22050    285.71694    133.43033     274402.1   -77005.088    7257.0623   -84262.151    1130.7531 
   22100     286.8678   -83.619955     274885.3   -76998.347    7286.2937   -84284.641    1134.2139 
   22150    287.71058   -28.536755    274914.13   -77012.797    7307.6998   -84320.496    1136.7964 
   22200    288.02508   -173.15269    274764.98   -76955.705    7315.6881   -84271.393    1137.9393 
   22250    288.98688    103.43007    274293.59   -76953.528    7340.1171   -84293.645    1139.0469 
   22300     295.4451    191.40604    274131.56   -76901.152    7504.1526   -84405.305    1140.6425 
   22350    289.53829    -248.5705    274614.92   -76907.747    7354.1226   -84261.869    1144.2266 
   22400    289.11881   -204.75081    274643.53   -76939.986    7343.4681   -84283.454    1145.4779 
   22450    290.80148    185.12121    274296.44   -76945.568    7386.2071   -84331.775    1147.7863 
   22500    290.70291    26.550308    274284.59   -76921.794    7383.7033   -84305.497    1151.3683 
   22550    288.92216     210.4738    274532.61   -76928.019    7338.4734   -84266.492     1155.555 
   22600    288.52951   -156.87191    274875.84   -76992.262    7328.5001   -84320.762    1157.9319 
   22650    291.92772   -87.397655    274715.79   -76959.983     7414.813   -84374.796    1161.8796 
   22700     290.0362    41.508187    274428.64   -76983.876    7366.7693   -84350.646    1165.3314 
   22750    292.28361    178.22651    274214.33   -76978.878    7423.8524    -84402.73    1167.4853 
   22800    288.39434    42.818701    274185.05   -76992.049    7325.0669   -84317.116    1170.0454 
   22850     291.7136   -62.218924     274328.3   -77009.941    7409.3745   -84419.315    1173.0638 
   22900     287.6525    173.59362    274409.45   -77037.213    7306.2247   -84343.437    1174.6152 
   22950    285.75533    112.79991    274267.66   -77052.356    7258.0376   -84310.393    1176.4316 
   23000    284.37604    376.02444    274073.88   -77078.602    7223.0042   -84301.606    1178.4197 
   23050     288.5591     120.7846    274424.85   -77029.735    7329.2518   -84358.987      1181.31 
   23100    292.04539   -369.84648    275042.48   -77011.277    7417.8017   -84429.079    1184.7225 
   23150     293.4764   -228.82211    274937.04   -77016.577    7454.1487   -84470.726    1186.3241 
   23200    286.47525    342.44197    274274.88   -77016.388     7276.323   -84292.711    1187.6029 
   23250    289.03545    254.83394    273958.41   -77035.547    7341.3508   -84376.898    1187.3476 
   23300    287.31146    76.611666    274262.11   -77051.965    7297.5623   -84349.527    1190.6119 
   23350    288.11843   -42.348379    274659.66   -77057.879    7318.0591   -84375.938    1194.9888 
   23400     287.9284   -162.00368    274668.03   -77073.349    7313.2323   -84386.581    1198.7842 
   23450     291.3106   -4.9046387    274172.29    -77082.38    7399.1384   -84481.518    1199.7812 
   23500    287.36127    171.91831    273777.38   -77130.447    7298.8275   -84429.274    1200.4863 
   23550    290.29794   -20.637906    273921.03   -77132.004    7373.4175   -84505.422    1203.4762 
   23600    282.93853   -44.663174    274425.31   -77100.969    7186.4923   -84287.462    1208.1683 
   23650    286.60773   -190.37405    274771.82   -77068.238    7279.6881   -84347.926    1211.3433 
   23700    286.21544    87.749926    274676.42   -77017.802    7269.7241   -84287.526     1212.533 
   23750    293.02655   -11.898484    274523.29   -77022.155    7442.7228   -84464.878    1214.4893 
   23800    294.55202   -216.23173    274483.01   -76998.659    7481.4688   -84480.128    1218.6035 
   23850    288.51704    245.06083     274324.2   -77017.254    7328.1836   -84345.438     1220.128 
   23900    287.63684   -16.953736    274308.83   -77031.516    7305.8268   -84337.343    1221.9527 
   23950    290.64937     213.0789    274266.28   -77086.278    7382.3436   -84468.621    1226.6648 
   24000    288.01182   -159.59678    274657.01    -77100.51    7315.3511   -84415.861    1230.4645 
   24050    284.69188    76.208838    274622.02   -77057.294    7231.0263   -84288.321    1231.8933 
   24100    286.80335   -3.9324587    274338.22   -77012.924    7284.6566   -84297.581    1233.9684 
   24150    294.35421    235.52761    273811.16   -77035.001    7476.4446   -84511.446    1234.6163 
   24200    291.74975   -13.463295    273917.51   -77065.439    7410.2925   -84475.731    1237.4772 
   24250    285.50449    96.557625    274494.56   -77089.371    7251.6662   -84341.037    1243.0289 
   24300    286.86987   -236.24099    275206.64   -77062.803    7286.3463   -84349.149    1247.8986 
   24350    286.99323   -196.25075    275160.45   -77077.155    7289.4795   -84366.635    1252.3782 
   24400    290.53229   -178.23039    274351.42   -77044.785    7379.3698   -84424.155    1251.7866 
   24450    285.53665    132.42642    273569.89   -77108.945     7252.483   -84361.428    1250.9425 
   24500    292.84909    282.57029    273443.48   -77116.364    7438.2153    -84554.58    1252.2503 
   24550    289.93885    54.398802    274259.66   -77102.027    7364.2968   -84466.323     1257.351 
   24600    286.59764   -384.51303    275005.87   -77079.641    7279.4318   -84359.072    1261.9333 
   24650    288.07843   -117.27218    275129.72   -77065.888    7317.0429   -84382.931    1265.6455 
   24700    282.33283   -60.010298    274974.34    -77009.08    7171.1076   -84180.188    1266.9667 
   24750    289.30186   -74.021713    274398.73   -76996.811    7348.1175   -84344.929    1266.3041 
   24800    288.05818    104.62582    273946.94   -76932.232    7316.5288   -84248.761    1267.7496 
   24850    289.56651    369.01472    274038.77   -76912.087    7354.8395   -84266.927    1269.2567 
   24900    290.26756   -123.10546    274771.63   -76893.299    7372.6457   -84265.945    1273.4468 
   24950     287.9932   -174.74118    275158.52   -76928.932    7314.8782    -84243.81     1277.708 
   25000    287.11087    183.38605    274725.71   -76963.841    7292.4674   -84256.309    1279.8196 
   25050     292.1307     172.1251    274290.99   -76997.552    7419.9685   -84417.521    1281.8835 
   25100    287.24675     154.0131    274345.07   -76949.593    7295.9187   -84245.512    1284.2039 
   25150    292.72519     187.4147    274577.89   -76982.021    7435.0684   -84417.089    1285.2617 
   25200     292.4848   -68.509373    274667.75   -77010.251    7428.9626   -84439.213     1286.372 
   25250     286.4688    52.306531    274342.85   -77051.475    7276.1592   -84327.635    1287.5501 
   25300     288.8027    248.04178    274111.48    -77100.38    7335.4392   -84435.819    1289.6538 
   25350    286.52183   -249.77728    274131.68   -77140.273    7277.5063   -84417.779    1291.6358 
   25400     292.4781    23.495711    274039.32   -77164.249    7428.7923   -84593.041    1294.9438 
   25450    284.85806    213.82576    274200.31   -77115.097    7235.2473   -84350.344    1297.1056 
   25500    284.55112   -117.44805    274548.95   -77113.628    7227.4513   -84341.079     1299.649 
   25550    286.66967    -202.6567    274557.14   -77146.144    7281.2613   -84427.405    1304.9794 
   25600     287.7864   -9.6943359    274450.88   -77170.324    7309.6255   -84479.949    1307.1154 
   25650    286.32969   -60.290133    274262.91   -77178.013     7272.626   -84450.639    1309.8134 
   25700    287.59103    33.444906    274074.29   -77160.269    7304.6632   -84464.933     1313.062 
   25750    283.33724    45.616671    274183.77    -77149.39    7196.6192   -84346.009    1316.8894 
   25800    286.15483   -28.650234    274500.31   -77159.224    7268.1845   -84427.409    1319.6774 
   25850    280.27184   -136.79931    274697.97   -77140.096    7118.7597   -84258.855    1322.5082 
   25900    287.65415   -86.451313    274554.25   -77091.597    7306.2665   -84397.863    1325.6459 
   25950    288.88549    8.5963402    274348.24   -77126.085     7337.542   -84463.627    1326.5745 
   26000    290.68511    9.2585505    274164.56   -77113.828    7383.2513   -84497.079    1328.5046 
   26050    285.63472     99.35618    274129.17   -77192.343     7254.974   -84447.317    1329.5372 
   26100    279.14286   -67.159508    274009.52   -77216.896    7090.0841    -84306.98    1333.0796 
   26150    283.58761    198.72828    273689.25   -77222.042    7202.9786   -84425.021    1335.4229 
   26200    284.47876    282.30341    273956.82   -77219.647    7225.6133   -84445.261    1339.4008 
   26250    281.64869   -17.814694    274571.53   -77205.512    7153.7309   -84359.243    1343.8484 
   26300    283.46802   -174.28673    274704.06   -77232.361     7199.941   -84432.302    1346.8481 
   26350    284.58773   -112.24582    274260.38   -77249.646    7228.3811   -84478.028    1346.8376 
   26400    287.89261    169.22721    273847.89   -77243.472    7312.3233   -84555.795    1347.0858 
   26450    285.08604   -190.62361    274061.52   -77198.221     7241.038   -84439.259      1349.74 
   26500    283.66658    -27.17435    274244.26   -77200.066    7204.9843    -84405.05    1353.2548 
   26550    284.48417   -156.64305    274297.22   -77191.048    7225.7506   -84416.798    1355.3754 
   26600    286.17263   -306.42452    274355.16   -77200.159    7268.6367   -84468.796    1358.6141 
   26650    285.08776    162.29522    274008.47   -77189.576    7241.0814   -84430.658    1360.1488 
   26700    285.97687    254.08806    274002.23   -77153.571    7263.6644   -84417.235    1363.6889 
   26750    284.58275    104.97173    274362.54   -77164.695    7228.2546   -84392.949    1367.9984 
   26800    285.83678    -4.710562     274713.9   -77212.199    7260.1063   -84472.305    1371.9163 
   26850    283.56392   -253.48431    274524.74   -77202.738    7202.3768   -84405.114    1374.3233 
   26900      291.473   -66.524744    273834.58   -77160.936    7403.2633   -84564.199    1374.4606 
   26950    291.86492    12.329976    273627.68   -77193.528    7413.2179   -84606.746    1377.6585 
   27000    289.70956    72.810745    274035.39   -77201.615    7358.4728   -84560.088    1381.3281 
   27050    284.38446   -82.999673    274725.19   -77216.201    7223.2182   -84439.419    1388.0302 
   27100    280.34565   -9.2431751    275037.58   -77177.236    7120.6344   -84297.871    1392.4839 
   27150    285.61178   -18.416491    274367.85   -77205.757    7254.3914   -84460.149    1393.8895 
   27200    285.21003    345.34435    273510.74   -77186.226    7244.1872   -84430.413    1393.6975 
   27250    286.86557    164.23889    273357.09    -77173.83     7286.237   -84460.067    1394.7171 
   27300    289.28432   -14.847849    273737.31   -77183.158    7347.6721    -84530.83    1399.5766 
   27350    285.45669    90.991494    274237.28   -77157.315    7250.4522   -84407.767    1406.5959 
   27400    283.49592     100.2881    274705.95   -77111.162    7200.6496   -84311.811    1413.6846 
   27450    281.78572    48.994623     274999.8   -77137.114    7157.2113   -84294.326    1418.1349 
   27500    286.22254   -220.44179    274735.26   -77120.099    7269.9045   -84390.004    1419.3777 
   27550    288.16395    215.23376    274328.48    -77121.15    7319.2153   -84440.366    1418.1081 
   27600    286.65956    60.592815       274342   -77130.577    7281.0045   -84411.581    1419.8039 
   27650    284.23974   -201.61569    274318.48   -77147.024    7219.5422   -84366.567     1423.031 
   27700    285.25217    29.764593    274009.63   -77160.371    7245.2576   -84405.629    1423.5437 
   27750    282.50981    121.88852    274040.98   -77127.611     7175.603   -84303.214    1425.4283 
   27800    285.48394   -91.511607    274310.74   -77130.531    7251.1444   -84381.676    1427.3823 
   27850    283.83197    119.36663    274259.46   -77092.456    7209.1852   -84301.641    1428.5928 
   27900    286.40765   -3.8399992     274149.6   -77115.446    7274.6062   -84390.052    1431.4734 
   27950    290.23507    119.08991    274245.44   -77135.514    7371.8205   -84507.335    1434.0265 
   28000    285.94317    71.981584     274477.2   -77135.484    7262.8085   -84398.292    1435.0011 
   28050    289.91742   -173.18781    274510.57   -77124.918    7363.7523    -84488.67     1436.956 
   28100    289.57764   -131.20651    274304.57    -77146.52    7355.1222   -84501.642    1437.6341 
   28150    290.96085   -5.6646494    274043.94   -77134.323    7390.2551   -84524.578    1437.9587 
   28200    285.47811    2.8303499    274146.26   -77139.079    7250.9963   -84390.075    1440.2892 
   28250    286.15905    327.53068    274158.82   -77199.374    7268.2918   -84467.666    1442.7332 
   28300    285.20458    219.44676     274305.9   -77189.604    7244.0488   -84433.653    1445.4703 
   28350    286.84621    238.31968    274290.95   -77180.615    7285.7453   -84466.361    1448.6378 
   28400    284.62475   -109.88369    274215.85   -77132.765    7229.3213   -84362.086    1449.7705 
   28450    288.98284   -228.88453    274309.96   -77132.097    7340.0146   -84472.112     1452.533 
   28500    288.68973    211.82129    274410.88   -77147.747    7332.5696   -84480.316    1455.4736 
   28550    286.75569   -88.339956     274522.5   -77171.358    7283.4461   -84454.804    1458.5462 
   28600    285.33949   -26.797609    274615.24   -77152.292    7247.4754   -84399.767    1460.7933 
   28650    287.91277   -89.213945    274592.42    -77165.93    7312.8354   -84478.765    1462.9464 
   28700     283.9975   -240.57728    274263.43   -77170.502    7213.3895   -84383.891    1463.3972 
   28750    283.80937    411.31502    273725.44   -77161.249    7208.6111    -84369.86    1464.0445 
   28800    287.93602  -0.62857955    273790.74   -77184.175    7313.4258     -84497.6    1465.9703 
   28850    282.51553   -46.540041    274324.56    -77152.06    7175.7483   -84327.808    1470.5589 
   28900    285.75561    56.602703    274643.14   -77206.641    7258.0447   -84464.686    1476.4826 
   28950    283.57893    19.132604    274548.53   -77221.121     7202.758   -84423.878    1479.6087 
   29000    284.60326     123.1273    274284.23   -77245.804    7228.7756    -84474.58    1481.2033 
   29050    286.12114    234.37485    273933.76   -77234.759    7267.3289   -84502.088    1484.6957 
   29100     286.9543   -36.994295    273906.99   -77266.135    7288.4907   -84554.625    1486.9136 
   29150    279.56056    226.14861    273922.78   -77264.756    7100.6935   -84365.449    1489.3522 
   29200    283.12555    315.64121    273978.35   -77269.341    7191.2425   -84460.584     1491.148 
   29250    283.65935   -181.94778    274224.61   -77279.337    7204.8006   -84484.138    1496.7794 
   29300    284.23329   -63.428358    273984.31   -77305.141    7219.3785    -84524.52    1499.1613 
   29350    285.70196    69.701991    273806.48   -77304.285    7256.6818   -84560.967    1499.8614 
   29400    284.43478     72.02517    274127.76    -77276.78    7224.4963   -84501.276    1502.1579 
   29450    280.75135   -65.048093    274751.61   -77247.854    7130.9389   -84378.793    1505.2661 
   29500    282.97997   -302.83821    275155.47   -77224.167    7187.5449   -84411.712    1507.7158 
   29550     284.9587   -319.63768    274775.84    -77166.65    7237.8035   -84404.454    1508.7731 
   29600    288.56957      27.8129    274052.81   -77172.941    7329.5177   -84502.459    1510.3381 
   29650    290.24083   -232.38846    273785.61   -77150.009     7371.967   -84521.976    1513.9198 
   29700    284.67713    168.27038    273710.13   -77152.613    7230.6517   -84383.265    1516.6137 
   29750    291.05674    185.03529    274121.79    -77117.56    7392.6905   -84510.251    1520.7462 
   29800     288.6456   -111.85926    274783.37   -77093.006    7331.4489   -84424.455    1525.7236 
   29850     289.3241   -141.46742    274998.65    -77060.18    7348.6823   -84408.862     1528.164 
   29900    283.61988    -53.62875    274641.38   -77065.831    7203.7982   -84269.629     1531.342 
   29950    288.62034    144.08104    273996.84   -77075.365    7330.8072   -84406.172    1532.5037 
   30000    283.35005    150.38223    273667.93   -77050.028    7196.9447   -84246.973    1531.8312 
   30050    291.57207    125.87101    273850.82   -77044.347    7405.7796   -84450.126    1534.1765 
   30100    287.89323   -375.89462    274440.39   -77065.816    7312.3391   -84378.155    1537.5531 
   30150    288.88169    28.306297    274662.34   -77047.569    7337.4455   -84385.014    1541.4719 
   30200    288.11485   -47.330991    274593.57   -77080.615     7317.968   -84398.583    1544.2804 
   30250    290.53103   -99.661475    274124.42   -77101.541    7379.3379   -84480.879    1547.0365 
   30300    283.45387    323.30267    273422.34    -77150.72    7199.5815   -84350.302    1545.9529 
   30350    287.58709    164.94426    273531.81   -77176.939    7304.5634   -84481.503    1547.0285 
   30400    278.48277    27.731495    274272.56   -77200.015    7073.3183   -84273.333    1552.6319 
   30450    284.77289    106.29534    274640.99   -77226.462     7233.084   -84459.546    1557.5469 
   30500    283.10813   -211.85573    274528.24   -77214.761    7190.8001   -84405.561    1559.5362 
   30550    291.45071   -18.264845    273995.69    -77149.55    7402.6972   -84552.248    1559.5436 
   30600    288.66193    207.21232    273741.09   -77116.972    7331.8637   -84448.836    1562.1826 
   30650    287.89145    230.33563    274054.57   -77075.548    7312.2938   -84387.842    1566.5182 
   30700    287.92766   -232.14673    274623.79   -77070.765    7313.2136   -84383.978    1573.4437 
   30750    287.37041   -393.40958    274978.16   -77050.472    7299.0596   -84349.532    1577.2923 
   30800    285.49014    101.25101    274515.11   -77051.735    7251.3018   -84303.036    1577.7483 
   30850    292.05348    377.17641    274048.11    -77021.88    7418.0072   -84439.887    1577.0133 
   30900    292.78088   -37.186376    274343.91   -77006.475    7436.4828   -84442.957     1578.922 
   30950     294.7157   -315.29998    274875.18   -77043.786    7485.6263   -84529.412    1584.3007 
   31000    288.99255   -139.66294    274880.82   -77044.929    7340.2612    -84385.19    1587.7146 
   31050    289.64294    66.950022    274369.23   -77076.355    7356.7807   -84433.136    1585.1861 
   31100    286.43119    29.277102    274024.46   -77043.799    7275.2039   -84319.003    1585.6745 
   31150    290.19116   -54.758611    273890.51   -77022.436    7370.7054   -84393.141    1585.7894 
   31200    288.38609    52.995572    273912.85    -77054.49    7324.8575   -84379.347    1588.1386 
   31250    285.01327    96.714406    274207.57   -77075.207    7239.1896   -84314.397    1591.2272 
   31300    290.97196   -274.26342    274694.48   -77072.266    7390.5373   -84462.804    1595.7836 
   31350    288.68023   -278.39401       274665   -77081.627    7332.3284   -84413.956    1596.4768 
   31400    287.75703   -97.857911     274534.6   -77089.646    7308.8795   -84398.526    1599.4415 
   31450      286.418   -150.35625    274263.64   -77094.396    7274.8691   -84369.265    1603.9466 
   31500    287.72275    3.7910056    273977.95   -77139.228     7308.009   -84447.237    1605.4726 
   31550    280.58269    223.84834     274036.9   -77204.088     7126.655   -84330.743    1608.1616 
   31600    287.26515   -37.777026     274240.4   -77154.406    7296.3862   -84450.792    1609.7955 
   31650    284.14518    173.81354    274359.83   -77126.205    7217.1405   -84343.345    1612.8776 
   31700    287.30232     4.004002    274479.45   -77100.731    7297.3303   -84398.061    1613.5494 
   31750    284.33144    32.839911    274631.72    -77070.08    7221.8714   -84291.952    1616.7016 
   31800    287.70961    58.387788     274642.7    -77119.45    7307.6752   -84427.125    1618.1904 
   31850    281.81768   -227.36114     274615.6   -77097.422    7158.0232   -84255.445    1619.0748 
   31900    287.65806    53.149916    274349.78   -77085.532    7306.3658   -84391.898    1618.7902 
   31950    289.32415    109.60776    274080.24   -77077.235    7348.6836   -84425.918    1620.2642 
   32000    288.91904   -258.52298    274028.86   -77060.753    7338.3942   -84399.147    1619.8201 
   32050    289.95014    52.325165    274081.08   -77084.863    7364.5835   -84449.447     1623.186 
   32100    282.13793     77.06515    274385.67   -77098.457    7166.1573   -84264.614    1625.4702 
   32150    285.42268   -97.415761    274393.41   -77136.562    7249.5883    -84386.15    1627.0359 
   32200    288.22005    197.77975    274045.96    -77149.16    7320.6401     -84469.8    1629.3012 
   32250    285.72426    426.98628    273919.56   -77084.749    7257.2484   -84341.997    1629.4483 
   32300     285.6989    68.699758    274505.74   -77085.513    7256.6041   -84342.117    1635.4276 
   32350    281.74743     2.066949    275096.36    -77121.45    7156.2389   -84277.689     1640.407 
   32400    285.62934    -259.0889    275107.26   -77160.589    7254.8374   -84415.427    1642.8334 
   32450    292.44896    -10.09542    274381.12   -77111.687    7428.0521   -84539.739    1641.0594 
   32500     290.7308    375.36343    273685.73   -77091.148    7384.4118    -84475.56    1641.8605 
   32550    288.90776    276.80795    273899.05   -77078.364    7338.1075   -84416.471    1645.6718 
   32600    284.53387   -72.411764    274488.69   -77091.852    7227.0131   -84318.865    1650.3817 
   32650    282.62445   -199.65823    274694.77    -77078.48    7178.5148   -84256.995    1654.3004 
   32700    287.57531   -47.108551    274231.67   -77092.062     7304.264   -84396.326    1654.1178 
   32750    291.99038    171.94935    273569.26   -77112.943    7416.4045   -84529.348    1653.8336 
   32800    286.62367   -149.56791    273689.46   -77087.539    7280.0929   -84367.632    1657.0887 
   32850    284.17397    35.312195       274242   -77083.076    7217.8717   -84300.947    1661.1149 
   32900    288.72664   -10.191926    274760.51   -77058.385    7333.5072   -84391.892    1666.9429 
   32950    281.69607    112.53323    274783.96   -77075.584    7154.9344   -84230.518    1670.4531 
   33000    285.03293   -160.41737     274619.2   -77077.644    7239.6889   -84317.332    1672.2216 
   33050    290.06753   -172.75554    274365.72   -77070.789    7367.5652   -84438.354     1672.687 
   33100    285.32545   -13.899397    274177.26    -77077.65    7247.1189   -84324.769     1675.271 
   33150    290.76071   0.99777458    274356.99   -77068.858    7385.1715   -84454.029    1676.0691 
   33200    287.36565   -143.54772    274630.11   -77090.154    7298.9388   -84389.093    1678.8828 
   33250    285.26603    306.52926    274373.48   -77044.078    7245.6095   -84289.687    1680.1235 
   33300    286.36266    50.928708     274289.8    -77024.22    7273.4632   -84297.683    1681.9143 
   33350    287.61971    252.05924    274339.06    -77022.58    7305.3917   -84327.972    1683.0982 
   33400    289.70315   -22.674608    274630.12   -77027.439      7358.31   -84385.749    1685.7983 
   33450    286.92486    38.699831    274673.97   -76997.678    7287.7429   -84285.421    1688.9857 
   33500    292.01093   -95.687016    274766.17   -76959.983    7416.9264    -84376.91    1690.3531 
   33550    287.04334    92.257857    274844.57   -76900.295    7290.7523   -84191.047    1693.8124 
   33600    287.31508   -389.36944    274819.19   -76908.634    7297.6543   -84206.289    1696.1329 
   33650    295.55193   -132.26717    274660.09   -76910.003     7506.866   -84416.869    1698.5419 
   33700    283.50456   -14.953559    274535.64   -76916.568    7200.8691   -84117.437    1699.2087 
   33750    287.72617    -133.3706    274724.49   -76955.307    7308.0958   -84263.403     1701.725 
   33800    292.25876   -294.48644    274517.75   -76983.179    7423.2212   -84406.401    1701.0905 
   33850    290.44665    184.99836    274076.01    -77029.16    7377.1945   -84406.354    1703.0568 
   33900    295.59748    229.77587     273995.1   -77035.117    7508.0231    -84543.14    1704.8748 
   33950    291.80901    173.98517    274487.21   -77038.459    7411.7977   -84450.257    1710.7104 
   34000    286.64844   -189.62905    274993.31   -77034.773    7280.7219   -84315.495    1717.9895 
   34050    284.24261   -349.83579    275161.44    -77074.06    7219.6152   -84293.675    1722.2942 
   34100    286.54787   -66.260029    274587.35   -77086.269    7278.1676   -84364.437    1722.0634 
   34150    284.69187    231.40097    273713.83   -77110.622    7231.0261   -84341.648    1722.5242 
   34200    287.17134    463.96902    273497.07   -77097.432    7294.0035   -84391.435    1723.1251 
   34250    283.00508    66.092701    274049.53   -77176.742    7188.1824   -84364.925    1726.9863 
   34300    285.51293   -230.73835    274686.42   -77201.813    7251.8806   -84453.694     1734.043 
   34350    284.54769   -95.588575     274851.5   -77174.789    7227.3639   -84402.153    1736.0494 
   34400    283.08493   -16.356957    274422.31   -77217.708    7190.2107   -84407.919    1737.8309 
   34450    282.53024    333.31872    273656.64   -77178.995    7176.1218   -84355.117    1736.7798 
   34500    283.90144    196.48253    273688.46    -77216.64    7210.9496    -84427.59    1740.8846 
   34550    281.75502    -154.4121    274287.52   -77163.436    7156.4316   -84319.868    1745.0586 
   34600    283.42343   -161.71458    274678.56   -77143.905    7198.8084   -84342.714    1745.6224 
   34650    282.62203   -305.59799     274517.2   -77141.249    7178.4532   -84319.702    1747.0174 
   34700     285.4704   -261.40196    274042.56   -77122.633    7250.8005   -84373.433    1749.6636 
   34750    281.27221    96.526987    273678.97   -77218.432    7144.1686     -84362.6    1749.9346 
   34800    285.44104   -57.286972    273763.66   -77200.608    7250.0548   -84450.663    1752.1792 
   34850    284.70467    93.993124    274073.33   -77233.771    7231.3511   -84465.122    1756.9178 
   34900     284.7758   -161.71258    274452.49   -77203.551     7233.158   -84436.709    1760.0543 
   34950    279.70232    141.27425    274527.52   -77229.693    7104.2943   -84333.987     1762.971 
   35000    286.11241   -218.54871    274465.32   -77209.637     7267.107   -84476.744    1764.7758 
   35050    286.92402   -23.865818    274094.68   -77251.524    7287.7215   -84539.246      1766.21 
   35100    284.49006     50.08581    273860.15   -77241.365    7225.9004   -84467.265    1767.3757 
   35150    286.62792   -187.22763    274017.62   -77234.388    7280.2008   -84514.589    1771.8011 
   35200    286.58613   -197.73131     274320.5   -77209.344    7279.1393   -84488.483    1776.1175 
   35250    286.00783   -115.11593    274400.95   -77218.922    7264.4509   -84483.373    1779.3446 
   35300    288.83323    6.0858902    274193.51    -77160.75    7336.2146   -84496.965    1781.9529 
   35350    284.15548    -44.48027    274185.73   -77158.776    7217.4021   -84376.179    1783.1681 
   35400    286.43803    46.522208    274287.16   -77129.288    7275.3777   -84404.666    1785.0856 
   35450    285.54667    39.945658    274389.19   -77156.177    7252.7376   -84408.914    1788.3116 
   35500    289.40175    474.59249    274210.19   -77164.429    7350.6548   -84515.084      1790.77 
   35550    285.49852   -80.126324    274365.46   -77178.379    7251.5147   -84429.894    1792.5231 
   35600    285.63986    210.64338    274495.92   -77125.388    7255.1046   -84380.492    1793.4818 
   35650    286.98004    78.479143    274612.03   -77126.538    7289.1445   -84415.683    1796.2314 
   35700    285.67235    4.4489781    274533.06    -77132.42    7255.9299    -84388.35    1797.6419 
   35750    288.39061    163.23802    274238.44   -77115.059    7324.9723   -84440.032    1799.9224 
   35800    286.43973   -60.431062    274147.41   -77111.553     7275.421   -84386.974    1802.2371 
   35850    287.39471    210.99344    273985.55   -77111.168    7299.6768   -84410.845    1802.6865 
   35900    285.15483  -0.87914986    274164.79   -77070.637    7242.7852   -84313.422    1804.7427 
   35950    288.92008   -86.523551     274194.6   -77096.555    7338.4204   -84434.975    1807.4157 
   36000    284.68057   -138.17579    274119.99   -77083.317    7230.7392   -84314.056    1809.1856 
   36050    289.97226    -152.0747    274024.87   -77149.439    7365.1454   -84514.585    1812.4874 
   36100    283.17284    286.39393    273808.75   -77098.276    7192.4436   -84290.719    1815.9533 
   36150    289.83873    218.66278    274184.92   -77122.855    7361.7538   -84484.609    1819.3277 
   36200    286.57186   -84.751937    274672.44   -77150.703    7278.7771    -84429.48    1821.1766 
   36250    284.79251    19.308283    274542.54   -77161.815    7233.5823   -84395.397    1824.0417 
   36300    282.31585   -29.823632    274405.55   -77169.051    7170.6765   -84339.727    1826.5537 
   36350    284.87055    249.26932    274071.28   -77187.812    7235.5646   -84423.377    1825.6886 
   36400     283.0799    203.64674    274163.67   -77181.733     7190.083   -84371.816    1827.7494 
   36450    288.37864   -118.10115    274406.71   -77139.931    7324.6683   -84464.599    1831.2579 
   36500    287.98989   -94.065919    274620.79   -77084.828    7314.7941   -84399.622    1836.2321 
   36550    284.89403    -320.4299    274609.66   -77092.271    7236.1609   -84328.432    1839.3328 
   36600    286.26228   -4.3772559    274564.17   -77151.794    7270.9137   -84422.708    1839.5261 
   36650     284.3189    50.607192    274374.31     -77160.5    7221.5529   -84382.053    1840.4654 
   36700    285.25968    418.45888    274167.63   -77195.275    7245.4482   -84440.723    1841.1458 
   36750    280.55833    -12.99563    274376.46   -77183.748    7126.0363   -84309.785    1844.0918 
   36800    283.42915    68.252181    274519.94    -77192.97    7198.9538   -84391.924    1848.2231 
   36850    288.25401   -106.20845    274643.44   -77178.864    7321.5028   -84500.367    1851.1316 
   36900    283.83526   -253.49115    274811.87   -77163.365    7209.2687   -84372.633    1852.3147 
   36950    287.28805   -35.861274    274709.07   -77171.123    7296.9678   -84468.091     1853.438 
   37000    283.72787   -144.56415    274353.42   -77177.871    7206.5409   -84384.412    1851.4039 
   37050    286.43893    57.333003    274033.63   -77174.217    7275.4007   -84449.618    1851.9684 
   37100    287.09069   -237.13092    274058.39   -77103.909    7291.9551   -84395.864    1854.9578 
   37150    289.86887    127.40929    274069.14   -77099.911    7362.5192    -84462.43    1857.2803 
   37200     288.3412   -188.43473    274538.42    -77111.28    7323.7172   -84434.997    1863.0009 
   37250    286.36342    124.62702     274693.6   -77142.461    7273.4826   -84415.944    1867.8093 
   37300    282.67396   -230.15691     274336.5   -77172.012    7179.7724   -84351.784    1869.5312 
   37350    283.71818   -48.366615    273799.58   -77146.479    7206.2949   -84352.774    1869.3814 
   37400    289.73556    29.768101     273603.7   -77113.421    7359.1332   -84472.554     1872.718 
   37450    288.14394    413.63621    274004.51   -77102.593     7318.707     -84421.3    1876.9369 
   37500    288.11937   -181.07725    275027.82   -77065.302    7318.0829   -84383.385    1884.2523 
   37550    280.20813   -265.59528    275256.22   -77117.199    7117.1415   -84234.341    1887.3337 
   37600    285.63007     38.58282    274318.08   -77134.696    7254.8558   -84389.552    1884.8812 
   37650    291.67427    370.20738    273409.75   -77137.713    7408.3755   -84546.089    1881.2969 
[...]
   90850    285.12025    24.449419     273977.8   -77236.047    7241.9068   -84477.953    4341.5501 
   90900    280.02023   -66.611593    274421.38   -77225.621    7112.3689   -84337.989    4348.5585 
   90950    282.29538    107.47322    274710.28    -77223.04    7170.1566   -84393.197    4354.2354 
   91000    284.65343   -256.07036    274914.33   -77249.991    7230.0497   -84480.041    4359.8673 
   91050    280.37432    168.91242    274473.05   -77280.944    7121.3625   -84402.306    4353.4823 
   91100    286.14836   -145.68729     273906.9   -77226.077    7268.0203   -84494.097    4349.2408 
   91150     288.2672    130.69406    273573.88   -77194.376    7321.8378   -84516.214    4344.2434 
   91200    287.72032    181.71592     273858.3   -77212.702    7307.9471   -84520.649    4349.7261 
   91250    278.45668   -193.67563    274604.48   -77169.196    7072.6555   -84241.852     4359.034 
   91300    282.97706    -445.9048    274878.88   -77178.616    7187.4708   -84366.087    4361.1997 
   91350    290.89671   -115.00725    274219.24   -77200.049    7388.6258   -84588.675    4354.7212 
   91400    289.84783  -0.02979478    273513.36    -77228.57     7361.985   -84590.555     4348.277 
   91450    286.52002    121.06855    273489.93   -77177.956    7277.4603   -84455.416    4351.0226 
   91500    287.51368   -157.64013    274070.11   -77229.161    7302.6987    -84531.86    4358.3251 
   91550    287.29448   -132.20425    274753.79   -77196.535    7297.1312   -84493.666    4368.4356 
   91600    279.26133   -60.725027    274871.55   -77199.272    7093.0932   -84292.365     4372.693 
   91650    282.08405    103.19037    274332.42   -77175.693    7164.7888   -84340.481    4367.0115 
   91700    286.62323    86.912454    273906.51   -77196.727    7280.0817   -84476.809    4363.3271 
   91750    289.20592    172.97539    273913.31   -77179.507    7345.6806   -84525.188    4364.0692 
   91800    289.31082   -251.57285    274336.63    -77202.08    7348.3452   -84550.425    4368.2996 
   91850    286.02022    170.85464    274431.11   -77197.804    7264.7656    -84462.57     4371.865 
   91900    282.42648    53.703678    274285.78   -77175.947    7173.4864   -84349.433    4374.6629 
   91950      285.769   -5.9248354    273950.75   -77158.676    7258.3847    -84417.06    4374.8608 
   92000    287.11468    249.53072    273919.67   -77217.687    7292.5642   -84510.251    4380.1706 
   92050    283.31551   -150.32549    274285.72   -77231.902    7196.0674   -84427.969    4387.5547 
   92100    284.04514    142.15305    274514.96    -77204.77    7214.5997    -84419.37    4395.5615 
   92150    285.20871    -219.7628    274647.89   -77232.693    7244.1536   -84476.846    4400.2486 
   92200    287.68072    200.43364    274473.96   -77205.411    7306.9413   -84512.353    4400.2463 
   92250    285.19854   -229.84622    274544.11   -77173.082    7243.8953   -84416.977    4404.4518 
   92300    287.75058    141.85882     274365.8   -77170.191    7308.7157   -84478.907    4404.5228 
   92350    290.16966   -295.95972    274531.45   -77130.634    7370.1592   -84500.793    4411.0079 
   92400    287.21743    4.1339107    274220.43   -77159.151    7295.1741   -84454.325    4411.3483 
   92450    290.44168    29.766326    274048.11   -77167.618    7377.0684   -84544.686     4412.508 
   92500    286.43217     148.6219    274152.19   -77215.931    7275.2289    -84491.16    4416.0095 
   92550    281.92029   -118.05181    274415.64   -77251.179    7160.6294   -84411.808    4419.8486 
   92600    285.09312   -73.391416     274510.2   -77226.205    7241.2176   -84467.423    4423.6824 
   92650    284.44784    60.954626    274391.12   -77189.147     7224.828   -84413.976    4424.8441 
   92700    286.67873    42.527846    274102.33   -77195.885    7281.4913   -84477.377    4426.8733 
   92750    288.37896    21.528591    274040.02   -77170.505    7324.6763   -84495.181    4429.1509 
   92800    287.02733    -23.65673    274120.39   -77162.494    7290.3457   -84452.839    4433.3839 
   92850      287.177   -306.80602    274323.52   -77122.067    7294.1471   -84416.214    4437.6005 
   92900    284.02125   -192.27253    274588.93   -77108.811    7213.9926   -84322.804    4444.7405 
   92950    289.63266    28.405153    274741.44   -77079.936    7356.5196   -84436.455    4448.3375 
   93000    293.06035   -163.56528    274653.97   -77019.003    7443.5813   -84462.584    4450.2417 
   93050     290.4445   -49.810381    274247.55   -76994.486    7377.1399   -84371.625     4449.316 
   93100    288.89175   -16.861707    274205.88   -77026.535     7337.701   -84364.235    4448.5606 
   93150    292.03899   -105.99838    274420.16   -77052.978    7417.6393   -84470.617    4454.7037 
   93200    288.94562    92.921195     274451.7   -77106.536    7339.0692   -84445.605    4458.0822 
   93250    287.52606    64.828902    274503.75   -77102.356    7303.0131   -84405.369    4461.9123 
   93300    284.02723    110.68572    274432.51   -77090.779    7214.1447   -84304.924     4461.378 
   93350    290.03308    161.79742    274168.32   -77107.484      7366.69   -84474.174    4460.1941 
   93400    291.24019    205.60691    274162.62   -77065.948    7397.3502   -84463.299    4460.8405 
   93450    289.62257   -103.93267    274548.35   -77075.432    7356.2635   -84431.696    4467.3014 
   93500    285.34058   -24.861342    274743.73   -77102.301    7247.5031   -84349.804    4471.5997 
   93550    285.23063   -157.99108    274535.62   -77057.482    7244.7105   -84302.193    4471.0595 
   93600    286.25092   -112.40287    273962.56   -77046.664    7270.6252   -84317.289     4463.382 
   93650    290.17012    180.90972     273624.1   -77028.007    7370.1709   -84398.178    4465.9159 
   93700    290.13115    287.27568    273917.44   -76994.221     7369.181   -84363.402    4471.9955 
   93750    285.71798    180.23223    274718.08   -77044.882    7257.0888   -84301.971     4483.522 
   93800    286.31349   -329.67237    275398.52   -77063.773    7272.2145   -84335.987    4493.2297 
   93850    289.97297   -507.97366    275124.42   -77068.571    7365.1632   -84433.735    4492.0785 
   93900    292.78813     31.23905    273921.73   -77062.536    7436.6671   -84499.203    4477.8119 
   93950    292.12145    263.73827    273012.18   -77060.799    7419.7336   -84480.533    4470.7539 
   94000    286.60365    254.56236    273271.24   -77111.779    7279.5843   -84391.363    4474.7297 
   94050    279.04338    119.05622    274188.27   -77175.934    7087.5573   -84263.491    4487.1446 
   94100    285.50805   -212.01757    274699.17   -77185.661    7251.7567   -84437.418    4496.3371 
   94150    286.62742   -11.732124    274363.55   -77218.187    7280.1881   -84498.375    4493.9695 
   94200    289.45879    121.44378    273919.01   -77187.607    7352.1035   -84539.711    4489.7746 
   94250    284.80759    456.01562    273808.85   -77136.835    7233.9653   -84370.801    4494.4983 
   94300    283.13545    213.68522    274108.34    -77131.59     7191.494   -84323.084    4500.2489 
   94350    287.70083   -259.85186    274638.69    -77152.36    7307.4521   -84459.813      4510.79 
   94400    280.95946   -60.226651    274606.34   -77151.698    7136.2249   -84287.922     4516.696 
   94450     284.4143   -124.00581    274268.65   -77147.425    7223.9761   -84371.401    4517.0725 
   94500    284.99879    59.954846    274029.33   -77170.203    7238.8217   -84409.025    4516.5979 
   94550    285.70749    170.34142    274214.18   -77157.813    7256.8223   -84414.635    4522.4421 
   94600    288.38193    -168.6672    274692.02   -77149.768    7324.7519    -84474.52    4532.2144 
   94650    285.25874   -243.50439    274697.21   -77164.915    7245.4244   -84410.339    4532.0882 
   94700    286.51959    56.158404    274027.33   -77149.614    7277.4492   -84427.063      4529.58 
   94750    285.32479    108.17988    273367.13   -77199.105    7247.1019   -84446.207     4523.269 
   94800    286.02199    275.27894    273440.54   -77243.397    7264.8105   -84508.207    4524.7818 
   94850     285.8056    106.97426    274181.77   -77284.353    7259.3143   -84543.668    4533.6046 
   94900    284.68512   -393.41442     275093.7   -77283.626    7230.8548   -84514.481    4545.0828 
   94950      287.001   -219.05439    275124.91   -77226.621    7289.6768   -84516.298    4548.0169 
   95000    280.52987    102.22926    274204.76   -77291.425    7125.3135   -84416.739    4539.9486 
   95050    284.22096    335.73327    273349.43   -77304.594    7219.0654    -84523.66    4530.2258 
   95100    284.59037    251.11978    273422.58    -77275.01     7228.448   -84503.458     4535.365 
   95150    285.77793   -45.310764    274123.11   -77243.616    7258.6116   -84502.227    4549.2422 
   95200    282.96098    5.6090995    274673.08   -77262.681    7187.0623   -84449.743    4558.6729 
   95250    280.60088   -24.447267    274814.41   -77281.012    7127.1171   -84408.129    4562.8133 
   95300    283.68181    231.79086    274511.64   -77308.479    7205.3711    -84513.85    4563.1788 
   95350    284.80223    14.054931    274011.65   -77299.587    7233.8293   -84533.416    4557.8252 
   95400    287.89209    340.18958    273555.42   -77254.204      7312.31   -84566.514    4554.7731 
   95450    287.36709   -95.067683    274045.55   -77249.853    7298.9753   -84548.829    4561.3091 
   95500    284.83915   -240.32809    274676.31   -77233.225    7234.7671   -84467.992    4570.1361 
   95550    287.79686   -310.44273     274740.6   -77171.336    7309.8912   -84481.227    4573.9273 
   95600     282.9507    258.10563    274289.94   -77185.339    7186.8012    -84372.14     4573.955 
   95650    287.69961    58.551882     274109.3   -77150.771    7307.4213   -84458.193    4574.4519 
   95700     288.6544    111.02364    274208.07   -77149.287    7331.6725   -84480.959    4576.7906 
   95750    285.13273   -47.323601    274603.78   -77145.375    7242.2237   -84387.599     4583.511 
   95800    287.61036   -257.48682    274842.36   -77136.774    7305.1543   -84441.928     4587.931 
   95850    292.16912   -223.34047    274502.32    -77126.36    7420.9444   -84547.305    4588.6444 
   95900     285.3514    -6.506812    274009.94   -77124.916    7247.7779   -84372.694    4585.6244 
   95950    287.25587    111.18856    273844.14   -77111.237    7296.1503   -84407.388    4589.1334 
   96000    288.15268   -312.02325    274275.41   -77109.078     7318.929   -84428.007    4602.0996 
   96050    285.89219   -110.77294    274557.85   -77096.062    7261.5137   -84357.576    4608.7607 
   96100     289.4575   -129.06017    274295.13   -77166.039    7352.0706    -84518.11     4606.866 
   96150    285.21347   -67.287257     273918.3   -77183.119    7244.2745   -84427.394    4606.2463 
   96200    288.40255   -79.473009    273834.61    -77178.88    7325.2755   -84504.156    4608.8743 
   96250    286.96852    133.44833    274068.74   -77199.294    7288.8519   -84488.145     4613.515 
   96300    289.51861   -27.239152    274453.04   -77173.028    7353.6228   -84526.651    4619.3582 
   96350    284.56513   -56.075271    274694.22   -77197.024     7227.807   -84424.831    4625.6323 
   96400    282.43816   -100.53375     274527.1   -77211.258     7173.783   -84385.041    4625.6022 
   96450    287.46607   -167.57848    274191.44   -77177.519    7301.4894   -84479.008    4627.5439 
   96500    285.38374    192.40967    273908.57   -77163.009    7248.5993   -84411.609    4628.3034 
   96550    279.49828    113.71467    274135.15   -77187.365    7099.1117   -84286.476    4636.6085 
   96600     285.4354   -116.46731    274507.92   -77248.077    7249.9113   -84497.988    4645.3083 
   96650    284.11495   -107.27762    274452.99   -77265.648    7216.3728    -84482.02    4645.8807 
   96700    285.46551    165.80083    274248.62   -77270.318    7250.6763   -84520.994    4645.6584 
   96750    281.08901    152.06556    274091.11   -77305.952    7139.5153   -84445.467    4648.3888 
   96800    285.43218   -220.23385    274002.13   -77332.392    7249.8296   -84582.222    4649.4708 
   96850     285.0307    37.432757     273871.4   -77320.721    7239.6324   -84560.353    4654.3431 
   96900    288.79339     123.0853    273993.86   -77304.392    7335.2026   -84639.595    4657.5106 
   96950    284.76202    36.899766    274342.82   -77304.476     7232.808   -84537.284     4663.825 
   97000     282.7226   -186.54495    274569.19   -77222.984    7181.0077   -84403.992    4669.8339 
   97050    281.78103    102.15613    274318.57   -77212.732    7157.0924   -84369.824    4668.1062 
   97100    283.79853   -42.118773    273967.32   -77220.606    7208.3357   -84428.941    4670.4893 
   97150    284.17728    310.85708    273536.51   -77257.439    7217.9557   -84475.394    4670.7781 
   97200    287.63445    165.07044     273823.8    -77234.06    7305.7662   -84539.826    4673.5562 
   97250    284.30744   -317.52576    274327.04   -77228.146    7221.2617   -84449.408    4681.4955 
   97300    286.69804    -60.29624    274302.13   -77175.683    7281.9818   -84457.665    4683.6856 
   97350    284.11211   -30.777337     274116.8   -77142.826    7216.3005   -84359.127    4682.6358 
   97400    287.64054   -37.082908    273814.96   -77123.158    7305.9208   -84429.079    4683.1881 
   97450    290.44591    90.457737    274024.85   -77123.887    7377.1758   -84501.063    4691.2465 
   97500     284.6937   -213.54538    274769.56   -77137.961    7231.0727   -84369.033    4705.4015 
   97550    286.46309    -332.6216    275029.56   -77130.366    7276.0141   -84406.381    4712.3061 
   97600     284.0004    175.59216    274381.26   -77105.075    7213.4631   -84318.539    4701.7714 
   97650    287.40104   -47.490602    273849.83   -77093.813    7299.8376    -84393.65    4698.1452 
   97700    286.22518    363.30364    273797.75    -77101.67    7269.9714   -84371.641    4701.0029 
   97750    289.57162    43.062032    274377.15   -77091.344    7354.9692   -84446.313     4712.832 
   97800    289.79145   -142.43285    274692.47   -77112.021    7360.5528   -84472.573    4719.3344 
   97850    282.43872   -94.306372    274539.84   -77128.857    7173.7972   -84302.654    4719.1927 
   97900    287.51281    237.30592    274290.23   -77117.511    7302.6766   -84420.187    4721.2507 
   97950    285.74023   -35.683765    274217.49     -77107.5    7257.6539   -84365.154    4723.1272 
   98000    291.64071    25.394762    274308.02   -77094.955    7407.5231   -84502.478    4729.4608 
   98050    284.91517   -151.72417    274422.01   -77105.357    7236.6978   -84342.055    4731.1901 
   98100    288.12264   -121.64263    274444.41   -77104.062    7318.1658   -84422.228    4733.7239 
   98150    286.63154    176.53168    274345.95   -77129.546    7280.2928   -84409.839    4733.5759 
   98200    288.49831    41.579284    274405.98    -77105.55    7327.7079   -84433.258    4738.0757 
   98250    287.22113    144.46033     274283.1   -77049.749     7295.268   -84345.017    4737.0765 
   98300    291.29752     1.609934    274187.21   -77043.043    7398.8063   -84441.849    4738.7528 
   98350    291.49762     -205.287    274492.64   -76997.462    7403.8887    -84401.35    4746.0336 
   98400    291.70759   -35.704281    274709.43   -77034.079    7409.2218   -84443.301     4749.586 
   98450    285.59672   -380.16301    274838.31    -77057.92    7254.0089   -84311.929    4752.3568 
   98500    286.67859    131.36315    274479.86   -77106.766    7281.4877   -84388.254    4747.3351 
   98550    286.22349   -109.90252    274529.45   -77103.548    7269.9284   -84373.476    4749.6481 
   98600    289.26813    485.28089    274502.41   -77100.585    7347.2607   -84447.845    4752.6791 
   98650    286.80597   -173.80186    274466.72   -77045.097    7284.7231    -84329.82    4753.4425 
   98700    292.46541   -85.669641    274199.73   -77064.792    7428.4701   -84493.262    4754.2506 
   98750    291.44765     95.16501    273939.67   -77028.985    7402.6194   -84431.604    4754.7684 
   98800    288.30962   -51.293952    274234.65   -77040.886    7322.9151   -84363.802    4759.7486 
   98850    286.81765   -94.999238    274619.12   -77061.639    7285.0199   -84346.659    4765.6357 
   98900     286.3805    59.925545    274722.98   -77059.018    7273.9165   -84332.935    4767.6583 
   98950    288.17665    28.954642    274603.42   -77040.701    7319.5377   -84360.239    4769.8536 
   99000    290.56306    72.857277    274333.62   -77049.292    7380.1512   -84429.444      4773.44 
   99050    287.81451     -133.401    274204.31   -77096.619    7310.3397   -84406.958    4776.8019 
   99100    289.09774    31.303625    274090.84   -77048.225    7342.9331   -84391.158    4777.2539 
   99150    289.23004    173.92407    273993.09   -77109.245    7346.2933   -84455.538    4778.5422 
   99200    286.85416   -59.101686    274071.57   -77169.108    7285.9472   -84455.055    4782.9381 
   99250    284.87554    -16.62405    274282.96   -77199.563    7235.6913   -84435.255    4789.5346 
   99300    288.14663    62.318056    274466.48    -77223.17    7318.7751   -84541.945    4795.1157 
   99350    282.43488    8.5461907    274463.37   -77259.312    7173.6998   -84433.012    4795.9326 
   99400    281.21041   -18.261588    274442.15   -77293.969     7142.599   -84436.568    4798.2129 
   99450    286.58688     133.3296    274099.98   -77286.736    7279.1583   -84565.894    4796.0197 
   99500    280.12188    248.24098    273819.13   -77279.643    7114.9509   -84394.594     4795.857 
   99550     283.0141    60.915887    273949.66   -77310.596    7188.4116   -84499.007    4800.4099 
   99600    281.27597     24.39853    274392.63   -77321.513    7144.2641   -84465.777     4809.004 
   99650    280.88356    -74.30957    274675.75   -77257.281    7134.2971   -84391.578    4816.7649 
   99700    282.81296    51.972542    274339.05   -77244.877    7183.3028    -84428.18    4812.9906 
   99750    282.13327    355.46076    273862.61   -77216.975    7166.0391   -84383.015    4808.1585 
   99800    284.74111    303.56154    273711.38    -77241.47    7232.2768   -84473.747    4812.1444 
   99850    281.66196    262.13793    273994.02   -77279.977    7154.0681   -84434.045    4816.3994 
   99900      283.553   -197.59331    274575.54   -77257.576    7202.0995   -84459.675    4824.2516 
   99950    282.92617   -153.28512    274734.83   -77237.322    7186.1782     -84423.5    4827.6547 
  100000    282.99519   -329.80283    274389.99   -77238.934    7187.9313   -84426.866    4823.3756 
Loop time of 253.453 on 6 procs for 100000 steps with 8522 atoms

Performance: 340.892 ns/day, 0.070 hours/ns, 394.551 timesteps/s
99.4% CPU use with 6 MPI tasks x no OpenMP threads

MPI task timing breakdown:
Section |  min time  |  avg time  |  max time  |%varavg| %total
---------------------------------------------------------------
Pair    | 72.727     | 130.6      | 199.27     | 452.0 | 51.53
Neigh   | 30.95      | 36.224     | 39.879     |  61.7 | 14.29
Comm    | 7.8599     | 80.201     | 143.33     | 614.6 | 31.64
Output  | 0.14734    | 0.1503     | 0.16306    |   1.5 |  0.06
Modify  | 5.1332     | 5.1953     | 5.2608     |   1.7 |  2.05
Other   |            | 1.079      |            |       |  0.43

Nlocal:        1420.33 ave        1447 max        1396 min
Histogram: 2 0 0 0 1 0 2 0 0 1
Nghost:        2019.17 ave        2047 max        1990 min
Histogram: 1 1 1 0 0 0 1 0 0 2
Neighs:        0.00000 ave           0 max           0 min
Histogram: 6 0 0 0 0 0 0 0 0 0
FullNghs:      39701.3 ave       40468 max       39091 min
Histogram: 1 0 0 2 2 0 0 0 0 1

Total # of neighbors = 238208
Ave neighs/atom = 27.952124
Neighbor list builds = 20855
Dangerous builds = 0

# Create data file for import to other simulations
#
write_data data.${NAME}
write_data data.coexist_286K_1atm_ML
System init for write_data ...

Total wall time: 0:04:13
