
# Set production fixes - Nose/Hoover
#
fix                 2 all nph iso ${PRES} ${PRES} ${PCOUPL}
fix                 2 all nph iso 1 ${PRES} ${PCOUPL}
fix                 2 all nph iso 1 1 ${PCOUPL}
fix                 2 all nph iso 1 1 10000.0
fix                 3 all temp/csvr ${TEMP} ${TEMP} ${TCOUPL} 837492
fix                 3 all temp/csvr 286 ${TEMP} ${TCOUPL} 837492
fix                 3 all temp/csvr 286 286 ${TCOUPL} 837492
fix                 3 all temp/csvr 286 286 5000.0 837492

# Define Order parameter
#
compute             2 all orientorder/atom nnn NULL cutoff 3.5
thermo              200
thermo_style        custom step temp press vol etotal ke pe c_1[4]

# Run 1ns simulation
dump		    1 all custom 400 prod.${NAME}.dump id type x y z vx vy vz c_2[*]
dump		    1 all custom 400 prod.ice_286K_1atm_ML.dump id type x y z vx vy vz c_2[*]
run                 200000
Neighbor list info ...
  update every 1 steps, delay 0 steps, check yes
  max neighbors/atom: 2000, page size: 100000
  master list distance cutoff = 6.0032907
  ghost atom cutoff = 6.0032907
  binsize = 3.0016454, bins = 20 17 17
  2 neighbor lists, perpetual/occasional/extra = 1 1 0
  (1) pair sw, perpetual
      attributes: full, newton on
      pair build: full/bin/atomonly
      stencil: full/bin/3d
      bin: standard
  (2) compute orientorder/atom, occasional, copy from (1)
      attributes: full, newton on
      pair build: copy
      stencil: none
      bin: none
Per MPI rank memory allocation (min/avg/max) = 5.819 | 5.819 | 5.819 Mbytes
Step Temp Press Volume TotEng KinEng PotEng c_1[4] 
       0     285.9572    -1.810341    148541.28   -47734.004    3926.9335   -51660.938   0.13873748 
     200    286.43886    12.112452    148549.81   -47723.803    3933.5479   -51657.351   0.13786549 
     400    287.27447   -31.923607     148547.5   -47718.323    3945.0231   -51663.346    0.1404337 
     600    286.02282    17.354953     148499.9    -47755.37    3927.8347   -51683.205   0.13601393 
     800    289.57194    15.554422    148512.29   -47770.307    3976.5732    -51746.88   0.13834688 
    1000    286.07797   -25.010362    148532.41   -47782.657     3928.592   -51711.249   0.13962568 
    1200    282.90173    -15.71386    148484.75   -47807.737     3884.974   -51692.711   0.14024273 
    1400    286.67327      33.9183    148463.44   -47798.251     3936.767   -51735.018   0.13621353 
    1600    286.18594   -4.6627938    148501.27   -47800.558    3930.0747   -51730.632   0.13513902 
    1800    284.75989   -22.941955    148500.37    -47806.19    3910.4914   -51716.681   0.13833935 
    2000    285.65796    75.395214     148446.3   -47761.075    3922.8242   -51683.899   0.13786977 
    2200    287.45054   -20.668237    148519.32   -47731.058    3947.4409   -51678.499   0.13963619 
    2400    284.83905    -53.67752    148580.18   -47748.204    3911.5785   -51659.782   0.13755912 
    2600    283.60797   -7.6408178    148474.86   -47792.034    3894.6726   -51686.707   0.13789338 
    2800     284.8389    51.812243    148400.81   -47808.346    3911.5763   -51719.923   0.13723043 
    3000    284.29286    -26.04257     148543.8   -47819.847    3904.0779   -51723.925   0.13858188 
    3200    286.54265   -91.463053     148602.6   -47767.215    3934.9732   -51702.188   0.14133588 
    3400    281.03079    46.523233    148440.05   -47804.909    3859.2811   -51664.191   0.13569519 
    3600    279.27207    99.956144    148388.18   -47833.649    3835.1294   -51668.778   0.13675942 
    3800    281.88065   -53.727909    148567.71   -47761.268     3870.952    -51632.22   0.13963034 
    4000    287.90958   -92.643697    148612.04    -47755.19    3953.7448   -51708.935   0.13853556 
    4200    282.59617    36.621862    148423.46   -47771.395    3880.7779   -51652.173   0.14127845 
    4400    286.17105    77.869573    148432.03   -47759.196    3929.8703   -51689.066    0.1417744 
    4600    285.53284   -90.189818     148633.4   -47738.942     3921.106   -51660.048   0.14348994 
    4800    279.46566   -107.53171    148592.55   -47728.784    3837.7878   -51566.572   0.14414007 
    5000    287.32435    104.40008    148361.12   -47708.806     3945.708   -51654.514   0.14191321 
    5200    281.42376    52.452146    148427.13   -47710.723    3864.6776   -51575.401   0.14399632 
    5400    290.07063    -65.32584    148662.35   -47671.826    3983.4216   -51655.248   0.13865223 
    5600    287.59521   -38.216498    148602.61   -47655.747    3949.4276   -51605.174   0.14278497 
    5800    284.61166    122.02908    148392.39   -47644.874    3908.4557   -51553.329   0.13990022 
    6000     287.7511    28.226002     148514.7   -47631.414    3951.5684   -51582.982   0.13912858 
    6200      289.986   -123.65245    148716.69   -47624.009    3982.2594   -51606.269    0.1413818 
    6400    286.94885   -30.130929    148545.75   -47592.262    3940.5515   -51532.813   0.14856331 
    6600    291.53771    156.42725    148376.88   -47631.638    4003.5684   -51635.206   0.14185525 
    6800    284.91695   -72.541491    148579.34   -47671.097    3912.6482   -51583.745   0.14213226 
    7000     288.4801   -98.414797    148697.05   -47673.457    3961.5794   -51635.036   0.13506639 
    7200    288.30623    38.664713    148472.41   -47623.695    3959.1918   -51582.887   0.14073764 
    7400    287.62932    23.196674    148442.42   -47608.777     3949.896   -51558.673   0.14541899 
    7600    287.11824   -131.96642    148689.19   -47642.282    3942.8776    -51585.16   0.14259985 
    7800     293.1802   -46.521842    148642.66   -47670.193    4026.1241   -51696.317   0.13541633 
    8000    282.42248    109.82055    148375.39   -47636.015    3878.3927   -51514.407   0.13953693 
    8200    288.54011    96.867597    148474.01   -47672.952    3962.4035   -51635.356   0.13267364 
    8400    289.63812   -136.75505    148728.27   -47697.993    3977.4821   -51675.475   0.13667209 
    8600    289.95269   -9.5037416    148555.11   -47657.936     3981.802   -51639.738   0.14053379 
    8800    286.88837    192.07036    148339.54   -47588.484    3939.7209   -51528.205   0.14300032 
    9000    292.91442   -15.064612    148620.07   -47569.686    4022.4741    -51592.16   0.13774501 
    9200    289.23507   -176.46255    148823.06   -47553.623    3971.9471   -51525.571   0.13647827 
    9400    288.61933    42.391315    148456.95   -47603.439    3963.4915    -51566.93   0.14059094 
    9600    291.14244     213.1748    148310.32   -47593.671    3998.1403   -51591.811     0.140629 
    9800    290.67224   -194.57249     148774.4   -47611.773    3991.6833   -51603.456   0.14217274 
   10000    286.48948   -200.01838    148835.27   -47606.402    3934.2432   -51540.645   0.14016985 
   10200    288.77211    210.15447     148313.8   -47599.311    3965.5896     -51564.9   0.13479107 
   10400    288.55166    189.92881    148350.94   -47586.991    3962.5622   -51549.553    0.1383736 
   10600    289.53397   -255.24727    148928.61   -47569.116    3976.0519   -51545.168   0.14117104 
   10800    286.75867   -166.48077    148802.15   -47600.384    3937.9398   -51538.324   0.13890851 
   11000    284.29082    280.73899    148176.21   -47641.452    3904.0498   -51545.502    0.1425968 
   11200     291.3647    104.62277     148399.3   -47661.208    4001.1926   -51662.401   0.13475302 
   11400    290.37976   -350.50208    148968.84   -47685.592    3987.6667   -51673.258   0.14046339 
   11600    283.77684   -86.319474    148579.39   -47656.994    3896.9915   -51553.986   0.14463785 
   11800    283.60832    325.23242    148095.49   -47728.725    3894.6773   -51623.402   0.13835947 
   12000     286.7041   -58.917017    148594.47   -47731.181    3937.1904   -51668.371   0.13933524 
   12200    287.52109   -330.36255    148981.17   -47707.682    3948.4098   -51656.092   0.13686636 
   12400    285.85301    102.24624     148396.6     -47676.6    3925.5027   -51602.103   0.13463066 
   12600    290.05225    308.55348    148131.99   -47687.635    3983.1692   -51670.804   0.13508031 
   12800    291.97991   -191.84635    148740.66    -47699.46     4009.641   -51709.101   0.14081888 
   13000    287.31438   -251.61884     148839.4   -47676.639    3945.5712    -51622.21   0.14351823 
   13200    288.64123    233.05246    148228.02   -47649.918    3963.7922    -51613.71   0.14361081 
   13400     289.3455     192.8987    148297.83   -47669.279    3973.4636   -51642.742   0.13689101 
   13600    287.37135   -269.95361    148883.76   -47659.853    3946.3534   -51606.206    0.1413372 
   13800    290.43197   -126.21287    148697.75   -47654.639    3988.3838   -51643.023   0.13916277 
   14000     292.4798    272.71834    148179.86   -47674.379    4016.5057   -51690.885   0.14246335 
   14200    286.75821    41.987453    148435.03    -47700.71    3937.9335   -51638.643   0.14535487 
   14400    284.37521   -227.94386     148819.1   -47723.727    3905.2087   -51628.936   0.13377589 
   14600    287.70467    4.1866128    148500.03   -47719.805    3950.9308   -51670.736   0.13697303 
   14800    288.09975    231.43372    148256.56   -47702.775    3956.3563   -51659.132   0.13673931 
   15000    285.05808   -62.020518    148612.81   -47755.379    3914.5863   -51669.966   0.13973707 
   15200    286.28645   -188.55459    148740.15   -47807.835     3931.455    -51739.29   0.13929631 
   15400    280.43855    75.747712    148409.55   -47822.884    3851.1482   -51674.032   0.13706148 
   15600    285.53848    172.11901    148339.24   -47859.416    3921.1835     -51780.6   0.13014254 
   15800    284.14707    -70.36859    148601.66   -47811.934    3902.0757    -51714.01   0.12979697 
   16000    281.41925   -108.58501    148626.46   -47797.784    3864.6158     -51662.4   0.13927833 
   16200    285.61409    76.976989    148410.56   -47746.662    3922.2217   -51668.884   0.14185723 
   16400    287.58728    57.090329    148448.11   -47743.755    3949.3188   -51693.074   0.13986238 
   16600     283.6806   -98.096198    148634.29   -47760.892    3895.6699   -51656.562   0.13494759 
   16800    286.81236   -57.018926    148579.52   -47715.674    3938.6771   -51654.351   0.13852362 
   17000    283.21744    39.346116    148444.81   -47738.902    3889.3095   -51628.212   0.13742995 
   17200    285.56582     18.01781    148523.45   -47721.816    3921.5589   -51643.374   0.13918318 
   17400    286.41354   -32.584925     148600.7   -47766.126    3933.2003   -51699.327   0.13804756 
   17600    283.87977   -5.7162321    148520.04   -47802.567    3898.4051   -51700.972   0.13844062 
   17800    283.54805    85.868796    148433.92   -47820.988    3893.8496   -51714.838   0.13352307 
   18000    279.29584   -3.1829841    148521.45   -47853.963    3835.4557   -51689.419   0.13074251 
   18200      281.016   -79.035477    148569.67   -47879.701     3859.078   -51738.779   0.13833084 
   18400    276.70835    19.321747    148452.47   -47899.988    3799.9228    -51699.91   0.13642782 
   18600    278.86418     28.04448    148427.78   -47856.806     3829.528   -51686.334   0.13745208 
   18800    281.70827   -43.705085    148549.23   -47793.036    3868.5847    -51661.62   0.13428775 
   19000    281.64795   -45.948261    148559.15   -47820.174    3867.7563    -51687.93   0.13295563 
   19200     285.2493    74.946236    148422.37   -47794.861    3917.2122   -51712.073   0.13384001 
   19400    283.42169    5.2159526    148484.31   -47785.972    3892.1145   -51678.086   0.13619237 
   19600    285.28107   -86.694289    148600.46   -47814.785    3917.6485   -51732.434   0.13692093 
   19800    285.26369     15.66289    148465.59   -47810.936    3917.4099   -51728.346   0.13530586 
   20000    285.57936    109.39825    148371.64    -47801.02    3921.7449   -51722.765   0.13169388 
   20200    282.71365    -65.32883    148544.23   -47826.743    3882.3912   -51709.134   0.13417325 
   20400    283.69743   -111.79067    148588.87   -47804.923     3895.901   -51700.824   0.13833901 
   20600    287.20995    135.10878    148392.22   -47800.412    3944.1371   -51744.549   0.13190262 
   20800    278.97994    38.409838    148440.17   -47802.388    3831.1177   -51633.506   0.13876716 
   21000    279.66098   -114.13166    148622.76   -47796.909    3840.4701   -51637.379   0.13752296 
   21200    288.60569    12.050123    148486.84   -47786.956    3963.3041    -51750.26   0.13071757 
   21400    284.86399    164.05722    148307.22   -47782.251    3911.9209   -51694.171   0.13296446 
   21600    286.47776   -21.206527    148548.95   -47739.588    3934.0822    -51673.67   0.13667283 
   21800     285.4692    -146.9933    148754.67   -47690.625    3920.2321   -51610.857    0.1382582 
   22000    290.00239    65.200118    148490.45   -47697.517    3982.4845   -51680.002   0.13454683 
   22200     287.6045    178.03437    148355.79    -47657.34    3949.5552   -51606.895   0.13523914 
   22400    287.04329   -139.00083    148710.87   -47634.972    3941.8483   -51576.821   0.13950628 
   22600    287.57763    -146.1573    148793.06   -47641.328    3949.1863   -51590.514   0.13568199 
   22800    284.33593    164.74089    148340.22   -47677.114    3904.6693   -51581.783   0.13746842 
   23000    285.66664    138.64265    148353.25   -47696.276    3922.9434    -51619.22   0.13640207 
   23200    285.42544   -258.85184    148866.31   -47690.201    3919.6311   -51609.833   0.13579883 
   23400    286.07768   -108.89288    148713.58   -47697.961     3928.588   -51626.549   0.13318739 
   23600    287.98535    289.88436    148170.98   -47714.653    3954.7853   -51669.438   0.13405555 
   23800     287.5248     91.05717    148478.59   -47655.857    3948.4608   -51604.318   0.13511327 
   24000    287.95901    -350.5718    149019.59   -47691.434    3954.4236   -51645.857   0.13602334 
   24200    289.67046   -31.027047    148557.03    -47676.33    3977.9262   -51654.257   0.13901026 
   24400    286.88311    354.01836    148072.08   -47681.283    3939.6487   -51620.932   0.13802765 
   24600    290.30447   -68.327045    148641.32   -47682.629    3986.6329   -51669.262   0.13508988 
   24800    289.01738   -336.46146    149009.25   -47604.421    3968.9578   -51573.378   0.13692012 
   25000    288.87141    135.56283    148388.76   -47603.948    3966.9531   -51570.901   0.13975476 
   25200     289.7381    307.36929     148165.7   -47628.744     3978.855     -51607.6   0.13739461 
   25400    286.53688   -192.83474    148801.08    -47690.93    3934.8941   -51625.824    0.1351134 
   25600    282.27993   -265.73582    148843.67   -47711.944    3876.4351   -51588.379   0.13831656 
   25800    285.61787    249.12422    148216.57   -47689.384    3922.2736   -51611.657   0.13690975 
   26000    289.86807    153.30282    148308.81   -47668.942      3980.64   -51649.582   0.13975154 
   26200    289.04656   -231.90402    148863.33   -47713.771    3969.3584    -51683.13   0.13449393 
   26400    282.09146   -82.344049     148632.1   -47736.103    3873.8469    -51609.95   0.13731554 
   26600    283.31563    262.80216    148150.29    -47745.26    3890.6579   -51635.918   0.13768421 
   26800    286.69074     32.32223    148475.67    -47752.63    3937.0069   -51689.636   0.13797864 
   27000    288.70064   -257.09555    148886.29   -47751.359    3964.6081   -51715.967   0.13535621 
   27200    288.38799    9.7022532    148492.51    -47745.92    3960.3146   -51706.235   0.13260002 
   27400    291.20995    298.26701    148168.75   -47711.638    3999.0674   -51710.705   0.13407286 
   27600    290.43328   -83.604553    148622.91   -47716.986    3988.4017   -51705.387   0.13685949 
   27800     286.7239   -212.71417    148853.47   -47711.036    3937.4623   -51648.498   0.13791415 
   28000    286.48361    113.89956    148414.23   -47699.943    3934.1625   -51634.106   0.13574092 
   28200    289.43608    209.95303    148291.17   -47719.358    3974.7076   -51694.066   0.13784406 
   28400    285.90957   -117.85239    148702.48   -47714.083    3926.2794   -51640.362   0.14002869 
   28600    287.05645    -94.03248    148712.04   -47733.329    3942.0291   -51675.359    0.1341314 
   28800    283.59125    181.26325     148279.1   -47744.638    3894.4429   -51639.081   0.13959158 
   29000    288.05689    124.19344    148325.19   -47780.739    3955.7677   -51736.507     0.138489 
   29200    287.97227   -179.21176    148712.48   -47815.721    3954.6057   -51770.327   0.13570446 
   29400    280.21022    -79.69673    148560.82   -47814.514    3848.0126   -51662.526   0.13906047 
   29600    285.28145    189.91278    148196.09   -47776.974    3917.6537   -51694.628   0.14118895 
   29800    293.34588    47.968595    148436.89   -47701.439    4028.3993   -51729.838   0.13685428 
   30000    282.80822   -204.90366    148784.23   -47689.405    3883.6899   -51573.094   0.14225769 
   30200    284.35153    6.5099618    148501.37   -47698.929    3904.8835   -51603.812   0.14605657 
   30400    283.91625    219.74435    148239.96    -47751.15    3898.9061   -51650.056   0.14249631 
   30600    286.29493   -32.898282    148577.87    -47699.29    3931.5715   -51630.862   0.14004663 
   30800    287.10146   -215.57972    148792.83   -47667.009    3942.6472   -51609.657   0.14355248 
   31000    287.14254    40.115902    148448.24   -47653.504    3943.2113   -51596.715   0.14533146 
   31200    292.41231    172.16012    148304.26   -47657.979    4015.5789   -51673.558   0.14049991 
   31400    288.83158   -106.00256    148685.11   -47654.697    3966.4062   -51621.103   0.14109919 
   31600    286.96113   -158.35741    148731.76   -47715.283      3940.72   -51656.003   0.13773429 
   31800    280.22827    168.63344    148308.38   -47686.692    3848.2604   -51534.952    0.1397484 
   32000    284.21108    106.31735    148380.54   -47658.452    3902.9548   -51561.407   0.14241164 
   32200    290.02395   -231.22094    148801.45   -47692.476    3982.7806   -51675.256   0.14464803 
   32400    288.44892   -51.730615    148629.34   -47686.597    3961.1512   -51647.748   0.14355872 
   32600    285.24433    203.95238    148264.49   -47672.573     3917.144   -51589.717   0.14727205 
   32800    288.99379   -12.691066    148533.69   -47671.213    3968.6338   -51639.847   0.13849822 
   33000    293.72368   -223.58877    148818.95   -47659.969    4033.5874   -51693.556   0.14347679 
   33200    290.53949    73.109802    148466.96   -47654.685    3989.8602   -51644.545   0.14404342 
   33400    289.49174    227.36424    148275.75   -47616.179    3975.4719   -51591.651   0.14343283 
   33600    291.81474   -118.76081    148695.04   -47550.842    4007.3728   -51558.215   0.14646218 
   33800    288.72358   -208.91272    148809.61   -47584.184    3964.9232   -51549.108   0.14493493 
   34000    288.35048    149.86405    148325.66   -47605.095    3959.7994   -51564.895   0.14548388 
   34200    286.75491     115.1221    148288.34   -47637.606    3937.8881   -51575.494   0.15014444 
   34400     290.0753   -152.58859    148749.46   -47700.512    3983.4857   -51683.998   0.13925456 
   34600    284.63174   -110.96856    148660.11   -47673.282    3908.7315   -51582.014   0.14656774 
   34800    285.30159    190.12917    148223.19   -47712.518    3917.9304   -51630.448   0.14497628 
   35000    286.67062    66.519461    148416.28   -47737.379    3936.7307    -51674.11   0.14350272 
   35200    285.27047   -228.55839    148806.21   -47723.231    3917.5029   -51640.734   0.14351994 
   35400     284.0108    3.8670075    148523.88   -47683.759    3900.2045   -51583.964   0.14459136 
   35600    283.88277     241.6124    148206.67   -47677.666    3898.4463   -51576.112   0.14612612 
   35800    288.31184   -18.249205    148576.63   -47679.547    3959.2688   -51638.815   0.13805428 
   36000    292.22008   -180.50329    148820.17   -47680.354    4012.9391   -51693.293   0.13824317 
   36200    284.76318    106.43836    148380.39   -47695.787    3910.5365   -51606.323   0.14140642 
   36400    284.48207    212.92467    148229.02   -47722.041    3906.6762   -51628.717   0.14024745 
   36600    287.08572   -171.36439    148694.14   -47699.461     3942.431   -51641.892   0.14047575 
   36800    283.42246   -207.60625       148748   -47741.491     3892.125   -51633.616   0.14029878 
   37000    285.18564    187.73492    148242.88   -47731.165     3916.338   -51647.502   0.14199307 
   37200    288.04691    156.49584    148311.83   -47694.754    3955.6307   -51650.384   0.14239669 
   37400     281.1425   -248.43923    148821.67   -47685.624    3860.8152   -51546.439   0.14434726 
   37600    283.51038   -139.57637    148645.99   -47712.887    3893.3323   -51606.219   0.14365538 
   37800    285.97889    265.12271    148150.85   -47678.397    3927.2314   -51605.629   0.14048231 
   38000     285.5573    62.750438    148430.36   -47733.526    3921.4418   -51654.968   0.13906819 
   38200    283.45153   -277.79462     148882.7   -47726.354    3892.5242   -51618.878   0.14123361 
   38400    283.97588    31.202808    148515.54   -47692.144    3899.7249   -51591.869   0.13908539 
   38600    283.95876    287.46651    148144.96   -47690.462    3899.4897   -51589.951   0.14071836 
   38800     282.4743   -54.915333    148624.64   -47741.959    3879.1043   -51621.063   0.13895233 
   39000    286.53197   -295.01155    148917.23   -47767.814    3934.8267   -51702.641   0.13956645 
   39200    284.38384    146.02548    148321.17   -47787.994    3905.3272   -51693.322    0.1413439 
   39400    280.94976    298.34999    148145.61   -47778.871    3858.1684   -51637.039   0.13963009 
   39600    280.07096   -257.72547    148818.65   -47848.586    3846.1002   -51694.686   0.13972679 
   39800    287.98992   -225.65904    148809.67   -47837.718     3954.848   -51792.566   0.13414236 
   40000    286.01202    369.86148    148063.87   -47848.668    3927.6863   -51776.354    0.1327593 
   40200    285.18059    225.56133    148238.67   -47825.923    3916.2687   -51742.191   0.13196356 
   40400    282.61914   -400.76403    148995.53   -47818.529    3881.0933   -51699.623   0.13991996 
   40600    284.49583   -123.30691    148634.66    -47847.68    3906.8652   -51754.545    0.1453315 
   40800    277.92803    424.07688    147950.76   -47863.797    3816.6722    -51680.47   0.14085068 
   41000     283.3967     38.42419    148463.61   -47822.999    3891.7713    -51714.77   0.13705396 
   41200    279.75671   -403.98596    149003.77   -47853.129    3841.7847   -51694.914   0.13871357 
   41400     281.0839    65.869744    148394.68    -47818.65    3860.0105   -51678.661   0.13877873 
   41600    286.08287    365.92115    148036.11   -47814.296    3928.6593   -51742.956   0.13736468 
   41800    282.09933   -95.569861    148690.43   -47814.298     3873.955   -51688.253   0.13200013 
   42000    285.16592    -305.2838    148907.12   -47785.995    3916.0672   -51702.062   0.13885933 
   42200    282.58694    136.79585    148287.73   -47812.927    3880.6512   -51693.578   0.13673568 
   42400    284.23854    225.33232    148230.41   -47863.602    3903.3319   -51766.933   0.13086241 
   42600    281.67568   -173.31185    148739.55   -47889.983    3868.1371    -51758.12   0.13819414 
   42800    281.26704   -146.40547     148667.8   -47891.612    3862.5254   -51754.138   0.14190721 
   43000    282.07573    205.98486    148246.15   -47845.316    3873.6309   -51718.947   0.14167751 
   43200    282.84213    77.094889    148410.92   -47849.861    3884.1556   -51734.017   0.13782332 
   43400    278.18007   -209.32669    148740.53   -47840.868    3820.1334   -51661.001   0.13925789 
   43600    277.32537   0.99511274    148546.58   -47835.739    3808.3961   -51644.136   0.13351314 
   43800    280.33869    182.32505    148293.86   -47809.259    3849.7769   -51659.036   0.13454425 
   44000    286.01494   -16.796925    148498.97   -47830.149    3927.7265   -51757.876    0.1382953 
   44200    282.99897   -153.37483    148681.91   -47871.469    3886.3093   -51757.778   0.13529053 
   44400    281.89523    47.538216    148433.16   -47846.428    3871.1522    -51717.58   0.14015079 
   44600    283.27017    143.04117    148317.11   -47784.142    3890.0336   -51674.175   0.13889625 
   44800     285.4979   -76.443592    148572.49   -47749.674    3920.6262     -51670.3   0.14343615 
   45000     287.5412   -124.22951     148646.4   -47784.375    3948.6859    -51733.06   0.13791067 
   45200    284.00197    48.700065    148406.26   -47804.012    3900.0831   -51704.095   0.13831813 
   45400    281.65617    100.82621    148362.94   -47852.456    3867.8692   -51720.326   0.13560687 
   45600    280.91415   -99.338279    148601.16   -47841.455    3857.6793   -51699.134   0.13694708 
   45800    285.48139   -63.847322    148596.91   -47815.115    3920.3994   -51735.515   0.13497499 
   46000    283.47939    96.736808    148365.78   -47811.668    3892.9068   -51704.575   0.13851938 
   46200    281.59174    59.378365    148397.19   -47844.228    3866.9845   -51711.212   0.13979934 
   46400    278.08546   -94.756409    148614.76   -47827.434    3818.8341   -51646.268   0.14083242 
   46600     277.5635   -52.204282    148545.26   -47824.404    3811.6663    -51636.07   0.14303772 
   46800    284.54462    152.80011    148332.67   -47790.447    3907.5351   -51697.983   0.13528927 
   47000    279.67756   -4.6461276    148459.93   -47768.969    3840.6978   -51609.666   0.14088502 
   47200    282.97206   -109.11606    148663.58   -47739.457    3885.9399   -51625.397   0.14403497 
   47400    290.63132    26.463088    148526.71   -47672.345    3991.1213   -51663.467   0.14153389 
   47600    286.19892    116.24134    148379.76   -47646.423    3930.2529   -51576.676   0.14596922 
   47800    288.29814   -59.864592    148573.88   -47616.375    3959.0807   -51575.456   0.14734255 
   48000    290.26004   -153.99997    148724.71   -47619.933    3986.0226   -51605.955   0.14853319 
   48200    290.49609    37.831835    148499.18   -47619.518    3989.2643   -51608.783    0.1443676 
   48400     289.6673    178.84451     148387.6   -47600.766    3977.8828   -51578.648   0.14442099 
   48600    290.19703   -81.012763    148670.13   -47664.591    3985.1573   -51649.748   0.14037061 
   48800    285.28891   -142.93558    148721.92   -47607.177    3917.7562   -51524.933   0.14232617 
   49000    287.62073    137.05151    148411.23   -47585.135    3949.7781   -51534.913   0.14031791 
   49200    287.07151    135.36164    148422.41   -47619.907    3942.2359   -51562.143   0.14218057 
   49400    289.19663   -165.32369     148805.8   -47630.416    3971.4193   -51601.836     0.143965 
   49600    287.86766   -107.96621    148659.15   -47647.358    3953.1691   -51600.527   0.14883835 
   49800    293.21118    272.38666    148179.53   -47627.692    4026.5494   -51654.241   0.14448178 
   50000    288.96557    45.167607    148460.97   -47630.336    3968.2463   -51598.582   0.14342997 
   50200    287.66469   -375.71057    148994.32   -47664.853    3950.3818   -51615.235   0.14434089 
   50400    285.28517   -5.2095867    148533.73   -47669.229    3917.7048   -51586.933   0.14075119 
   50600    285.62251    381.58638    148008.38   -47689.091    3922.3373   -51611.429   0.14143841 
   50800    289.22137   -25.665546    148601.65   -47701.829     3971.759   -51673.588   0.13688968 
   51000    290.17914   -395.48239    149047.24   -47636.577    3984.9117   -51621.489    0.1437719 
   51200    283.58053    132.18427    148337.85   -47666.743    3894.2957   -51561.038   0.14453293 
   51400    289.94161    370.43852    148064.35   -47631.002    3981.6498   -51612.652   0.14297767 
   51600    290.39397   -233.87799    148858.13   -47633.188    3987.8619   -51621.049   0.14835517 
   51800     288.2856   -320.79496    148951.37   -47627.198    3958.9085   -51586.107   0.15003753 
   52000    294.28637    275.46229     148159.3   -47590.673    4041.3146   -51631.988   0.14884187 
   52200    288.66355    227.60307    148255.27   -47563.176    3964.0987   -51527.275   0.14500273 
   52400    286.08718    -344.5364    149001.33   -47543.691    3928.7185   -51472.409   0.14765198 
   52600    294.77299   -143.31889    148761.72   -47582.151    4047.9972   -51630.148   0.13960841 
   52800    287.81137    345.87022    148118.94   -47600.072    3952.3961   -51552.468   0.14247573 
   53000     285.3333    64.633188    148475.98   -47606.796    3918.3658   -51525.161   0.14684747 
   53200    287.58455    -336.0687    148986.85   -47614.662    3949.2813   -51563.943   0.14774307 
   53400    294.73042   -16.029754    148557.49   -47644.404    4047.4125   -51691.817   0.14073136 
   53600     286.1007    287.29779    148166.83   -47669.029    3928.9042   -51597.933   0.14502898 
   53800    287.68189   -21.690219    148623.11   -47647.267     3950.618   -51597.885   0.14386501 
   54000    290.67237   -238.73411    148845.96   -47637.757    3991.6851   -51629.442   0.14442393 
   54200    288.77969    171.88081    148375.96   -47645.519    3965.6936   -51611.212   0.14128587 
   54400    280.66894    187.58252    148272.66   -47671.899     3854.312   -51526.211   0.14468752 
   54600    283.44906   -99.726942    148683.11   -47666.047    3892.4902   -51558.537   0.14135341 
   54800    292.83536   -120.12364    148707.98   -47611.256    4021.3885   -51632.644   0.13965539 
   55000    286.53503    113.97222     148343.8   -47613.853    3934.8686   -51548.721   0.14521527 
   55200    284.02552    87.481618    148386.91   -47643.275    3900.4065   -51543.682   0.15102453 
   55400    288.90048   -147.19551    148710.03   -47666.449    3967.3524   -51633.802   0.14729129 
   55600    284.56629   -79.669897    148588.63   -47701.553    3907.8327   -51609.386   0.14685818 
   55800    283.18209    160.00672    148308.84   -47673.567    3888.8241   -51562.391   0.14482709 
   56000    289.89882    59.966605    148499.13    -47659.87    3981.0621   -51640.932   0.14262266 
   56200     282.0297   -145.30769    148743.11   -47692.354    3872.9988   -51565.353   0.14487937 
   56400    290.77415    11.903681    148525.05   -47696.573    3993.0828   -51689.656   0.13956436 
   56600    294.31605    156.53018    148323.08   -47700.962    4041.7222   -51742.684   0.14055096 
   56800    289.41515   -5.9508556    148559.79   -47650.081    3974.4201   -51624.501   0.14262927 
   57000    289.54039   -163.93067    148704.17   -47657.024      3976.14   -51633.164   0.14481125 
   57200    286.65634    50.877042    148407.02   -47686.155    3936.5345   -51622.689   0.14573538 
   57400    286.98652    119.15818    148336.18   -47704.903    3941.0687   -51645.972   0.14438847 
   57600    283.18354   -165.65992    148683.46   -47694.243     3888.844   -51583.087   0.14846698 
   57800    288.70116    -123.2793    148683.14   -47707.029    3964.6152   -51671.644   0.14039829 
   58000    283.23396    181.04813    148355.64   -47719.369    3889.5364   -51608.905   0.13644873 
   58200     285.8394     82.09767    148440.18    -47760.74    3925.3158   -51686.056   0.13821663 
   58400    290.13236   -142.87053    148734.09   -47752.255    3984.2693   -51736.525   0.13713993 
   58600    285.93476   -29.009077    148566.21   -47731.928    3926.6253   -51658.553   0.14484406 
   58800    284.32702    168.68867    148292.84   -47763.682     3904.547   -51668.229   0.14283417 
   59000      285.266    20.467293     148519.9   -47788.403    3917.4415   -51705.845   0.13964388 
   59200    279.55261   -191.56725    148726.04   -47786.901    3838.9819   -51625.882   0.14018312 
   59400    284.45777    98.154397    148422.79    -47730.25    3906.3425   -51636.593   0.13937529 
   59600    288.61678    137.00039    148325.23   -47727.907    3963.4565   -51691.363   0.14513777 
   59800    288.45916   -112.76242    148695.01    -47714.37    3961.2919   -51675.662   0.14130642 
   60000    287.13376   -172.12573    148724.22   -47700.743    3943.0907   -51643.833   0.14310685 
   60200    287.98383    169.35619    148290.95   -47674.075    3954.7644   -51628.839   0.14506273 
   60400    287.81274    102.31924    148384.18   -47643.425    3952.4148    -51595.84   0.14233842 
   60600     286.4535   -252.85091    148862.75   -47683.426     3933.749   -51617.175   0.14303733 
   60800    285.48692   -124.27046    148624.94   -47623.584    3920.4753   -51544.059   0.15040372 
   61000    289.46228    309.91607    148143.94   -47662.093    3975.0674    -51637.16   0.14322424 
   61200    285.74455    11.232453    148551.86   -47667.491    3924.0133   -51591.505   0.14260244 
   61400    289.02048   -360.78699    149064.78   -47663.398    3969.0003   -51632.399    0.1400231 
   61600    290.50116    87.418182    148401.21   -47655.932    3989.3339   -51645.266   0.14092818 
   61800    288.53483     519.4817    147897.46   -47654.823     3962.331   -51617.154   0.14067797 
   62000    292.73865   -295.56455    148972.97   -47683.218    4020.0605   -51703.278    0.1392112 
   62200    289.76254    -603.9307    149344.33    -47690.25    3979.1907   -51669.441   0.14439291 
   62400    287.23493    522.52653    147917.97   -47650.871      3944.48   -51595.351   0.14011779 
   62600    291.48696    553.62415     147875.7    -47673.92    4002.8714   -51676.791   0.13882575 
   62800    289.01032   -635.49834    149376.27   -47649.847    3968.8608   -51618.708   0.14740768 
   63000    286.50975   -386.82875    149059.37   -47617.589    3934.5215    -51552.11    0.1466283 
   63200      288.499      544.234    147810.19   -47621.453     3961.839   -51583.292   0.14831573 
   63400    291.68498    202.79569    148354.58   -47583.259    4005.5908    -51588.85   0.14092066 
   63600    290.78122   -497.40883    149271.96   -47560.214    3993.1799   -51553.394   0.14063379 
   63800    293.01621   -30.746975    148644.34   -47590.889     4023.872   -51614.761   0.13949014 
   64000    291.66602    427.48142    148022.22    -47583.37    4005.3304     -51588.7   0.14507738 
   64200    287.51937   -71.191032    148638.04    -47587.07    3948.3861   -51535.457   0.14770697 
   64400    288.93165   -379.26416    149032.31   -47572.783    3967.7804   -51540.564   0.15214912 
   64600    286.60472    103.86428    148411.98   -47626.671    3935.8256   -51562.497    0.1421805 
   64800    290.04842    237.64002    148168.99   -47638.865    3983.1166   -51621.981   0.14669206 
   65000    285.83279   -196.77581    148752.66   -47627.657     3925.225   -51552.882   0.14826073 
   65200    286.93315   -201.76438    148823.65   -47652.402    3940.3359   -51592.738   0.14631551 
   65400     285.8643    189.69888    148268.36   -47678.344    3925.6577   -51604.002   0.14593085 
   65600    287.03565    190.97755    148306.98   -47702.261    3941.7435   -51644.004   0.13564114 
   65800    283.65422    -235.2884    148804.79   -47677.177    3895.3076   -51572.485   0.14250296 
   66000    285.12335   -148.94889    148681.92   -47675.941    3915.4826   -51591.423   0.14539256 
   66200    286.13493    267.66578    148214.21   -47700.697    3929.3743   -51630.071   0.14541296 
   66400     284.8831    73.725712    148404.37   -47697.081    3912.1833   -51609.264   0.14662358 
   66600    286.25143   -241.39594    148794.13   -47709.071    3930.9741   -51640.046    0.1444294 
   66800    285.34089    -10.41257     148531.2   -47690.644    3918.4701   -51609.115    0.1432431 
   67000    286.33826    200.51341       148238    -47719.85    3932.1664   -51652.017   0.14074267 
   67200    283.67366   -45.876576    148556.36   -47741.186    3895.5746   -51636.761     0.141148 
   67400    286.73355   -186.52744    148763.49   -47773.743    3937.5949   -51711.337   0.13896614 
   67600    287.22951    78.236724    148429.64   -47729.727    3944.4057   -51674.133   0.13713545 
   67800    292.11843    165.75279    148341.06   -47679.232    4011.5431   -51690.775   0.13833161 
   68000    290.49996   -102.72149    148693.85   -47674.989    3989.3174   -51664.307   0.14000882 
   68200    282.52966   -133.75774    148718.36   -47744.316    3879.8645   -51624.181    0.1413438 
   68400    288.66168    164.34872    148358.15   -47689.211     3964.073   -51653.284    0.1414418 
   68600    290.02745    115.54012    148407.15   -47675.602    3982.8286   -51658.431   0.14213848 
   68800     290.9247   -162.58878    148764.23   -47643.907    3995.1501   -51639.057   0.14117953 
   69000     288.7141   -64.703223    148657.48   -47687.967     3964.793    -51652.76   0.13494827 
   69200      292.307    183.65269    148322.86   -47693.734    4014.1328   -51707.866   0.13486986 
   69400    288.90449    45.716025    148465.72     -47732.9    3967.4074   -51700.307   0.13731639 
   69600    287.55651   -137.35161    148721.51   -47744.157    3948.8962   -51693.053   0.14007696 
   69800    289.44733   0.35983473    148518.89   -47711.677    3974.8621   -51686.539   0.14278068 
   70000    287.49381    131.08331    148364.81   -47672.028    3948.0351   -51620.063   0.14120837 
   70200    285.33389   -48.133189    148628.48   -47655.433    3918.3738   -51573.807   0.14396867 
   70400    282.66931   -129.92209     148726.5   -47668.607    3881.7823    -51550.39   0.14579282 
   70600    289.96241    72.361096    148439.26   -47642.328    3981.9355   -51624.264   0.14632454 
   70800    291.57123    117.14867       148389   -47666.649    4004.0287   -51670.678   0.14177465 
   71000    288.17908   -94.342893    148687.58   -47711.472    3957.4457   -51668.918   0.13373108 
   71200    288.31815   -89.411656    148676.45   -47719.501    3959.3555   -51678.856   0.13566329 
   71400    289.28494     139.9717    148372.45   -47687.131     3972.632   -51659.763   0.13984507 
   71600    286.49328    84.147786    148466.86   -47665.411    3934.2953   -51599.706   0.14345815 
   71800    285.19016   -158.37572    148741.22   -47685.234    3916.4001   -51601.634   0.14828072 
   72000    285.32995   -38.645518    148600.96   -47710.424    3918.3198   -51628.744   0.14036708 
   72200     289.4358     170.3383    148352.66   -47745.452    3974.7038   -51720.156   0.13813573 
   72400    284.17392   -22.035849    148536.49    -47728.03    3902.4445   -51630.475   0.14235333 
   72600    283.63711   -161.42502     148775.2   -47693.874    3895.0727   -51588.946   0.14291042 
   72800    288.23058    13.781425    148538.23   -47769.386    3958.1529   -51727.539     0.141442 
   73000    280.98789    184.36676    148271.04   -47766.441     3858.692   -51625.133   0.14012308 
   73200    286.70977   -40.511291     148567.1   -47781.494    3937.2683   -51718.762   0.13866499 
   73400    282.27866   -166.10964       148787   -47774.569    3876.4176   -51650.987    0.1386692 
   73600     284.4472    88.663148    148403.43   -47758.404    3906.1973   -51664.601   0.14523045 
   73800     282.4108    208.03076    148257.36   -47752.323    3878.2323   -51630.555   0.14583123 
   74000    283.23646   -153.29779    148754.88   -47799.862    3889.5707   -51689.433   0.14189492 
   74200    287.72421   -234.44749    148799.62   -47796.421    3951.1992   -51747.621   0.14164252 
   74400    281.25992    236.33852    148176.52   -47758.114    3862.4277   -51620.542   0.14450845 
   74600    284.06842    223.04779    148265.51   -47781.811    3900.9957   -51682.807   0.13851783 
   74800    282.42075   -347.34955    148971.56   -47790.311     3878.369    -51668.68    0.1405449 
   75000    278.32421   -134.92885    148667.08   -47754.366    3822.1127   -51576.479   0.14504733 
   75200    288.78532    460.33169     147940.4   -47741.204     3965.771   -51706.975    0.1423824 
   75400     282.8515    64.264201    148452.45   -47730.307    3884.2842   -51614.591   0.14306804 
   75600     284.7479   -431.67444    149094.69   -47707.013    3910.3267   -51617.339   0.14739327 
   75800    285.55855     46.66824    148442.35   -47685.657     3921.459   -51607.116   0.14782898 
   76000    287.42192    422.31284    147955.18   -47670.609     3947.048   -51617.657   0.14770954 
   76200    283.80328   -137.83746    148690.31   -47698.664    3897.3547   -51596.019   0.14511215 
   76400    289.67231   -386.82571    149016.02   -47666.956    3977.9516   -51644.908    0.1456278 
   76600     291.5402    186.71859    148251.02   -47654.221    4003.6026   -51657.823   0.14440666 
   76800    285.60123    282.89809    148104.26   -47653.766    3922.0451   -51575.811   0.14786405 
   77000    288.39859   -250.76483    148841.53   -47656.866    3960.4602   -51617.326   0.14837598 
   77200    282.16527   -237.68413    148810.91   -47701.062    3874.8605   -51575.923   0.14905145 
   77400    288.49288    274.82672     148137.3   -47691.173     3961.755   -51652.928   0.14628676 
   77600    286.17668    185.41332    148262.59   -47707.574    3929.9475   -51637.522   0.14505382 
   77800    283.82271   -285.72003    148834.21     -47719.3    3897.6215   -51616.922    0.1462062 
   78000    289.33906   -67.157087    148613.15   -47719.495    3973.3752   -51692.871     0.141004 
   78200    282.95444    240.38354    148172.09   -47712.342    3885.6979    -51598.04   0.14557255 
   78400      287.029    30.398319    148480.11   -47733.561    3941.6522   -51675.213   0.14083512 
   78600    286.46902   -227.28118    148807.56   -47750.827    3933.9622   -51684.789   0.14049747 
   78800    285.02971    35.710593    148470.26   -47736.816    3914.1966   -51651.012   0.14430127 
   79000    287.91935    208.04759    148255.86   -47720.326    3953.8789   -51674.204   0.14339025 
   79200    283.49591   -80.380797    148638.47   -47731.032    3893.1336   -51624.165    0.1426422 
   79400     288.8881    -195.3775    148785.69   -47684.782    3967.1824   -51651.965   0.14220149 
   79600    287.37702     116.4246    148391.88   -47675.022    3946.4314   -51621.453   0.14250969 
   79800    288.13253    214.94251    148334.82   -47701.226    3956.8065   -51658.032   0.13735518 
   80000    284.91606    -124.4843    148714.81   -47673.666    3912.6359   -51586.302   0.14094446 
   80200    292.06685   -76.215968    148687.57   -47639.388    4010.8349   -51650.223   0.13662679 
   80400    287.20304    148.65417    148309.57   -47609.772    3944.0421   -51553.814   0.14669316 
   80600    290.86737    111.79441    148388.44   -47630.128    3994.3629   -51624.491   0.14242552 
   80800    286.83283   -195.68533    148776.44   -47572.888    3938.9582   -51511.846   0.15018556 
   81000    291.65895    -85.69982    148647.61   -47625.661    4005.2333   -51630.894   0.14645331 
   81200    294.05136    190.91841    148310.11   -47605.625    4038.0873   -51643.712    0.1428311 
   81400    291.20727    62.073009    148521.15   -47582.935    3999.0306   -51581.966   0.14096393 
   81600    289.75377   -173.51722     148825.9   -47603.374    3979.0703   -51582.444   0.13890829 
   81800    289.31739    22.016251    148561.95   -47608.207    3973.0777   -51581.284   0.14080328 
   82000    293.40685    247.07632    148312.85   -47575.623    4029.2366   -51604.859   0.13701183 
   82200    291.46517   -31.671147    148633.29    -47621.14    4002.5722   -51623.712   0.13823675 
   82400    286.33934   -190.82532    148766.94   -47621.262    3932.1812   -51553.443   0.14176658 
   82600    286.45476    109.30796    148372.94   -47664.317    3933.7664   -51598.084   0.14439036 
   82800     290.0758     185.3395    148310.86    -47703.81    3983.4926   -51687.303   0.14099578 
   83000    283.71694   -126.35783    148723.65   -47687.202     3896.169   -51583.371   0.14403841 
   83200    287.84964   -139.79358    148735.24     -47707.4    3952.9216   -51660.322   0.14011816 
   83400     287.3746    178.85589    148322.79   -47727.813    3946.3981   -51674.211   0.13758783 
   83600     280.5817    115.17336    148386.27   -47743.641    3853.1139   -51596.755   0.13895518 
   83800    285.48233   -178.37272    148803.45   -47694.839    3920.4124   -51615.251   0.13819064 
   84000     284.6322   -86.488773    148671.47   -47724.673    3908.7379   -51633.411   0.13931605 
   84200    283.32894    281.90979    148277.84   -47711.915    3890.8407   -51602.756   0.14068715 
   84400    286.70043    21.913115    148558.28   -47718.542      3937.14   -51655.682   0.14371847 
   84600    287.68466    -260.4819    148917.17    -47713.47    3950.6561   -51664.126   0.14095708 
   84800    288.81611    86.891698    148502.04   -47724.031    3966.1937   -51690.224   0.13581383 
   85000     291.0827    286.81364    148217.12   -47688.953    3997.3199   -51686.273   0.13883429 
   85200    288.03709   -124.81828    148747.77   -47660.074    3955.4958    -51615.57   0.14591375 
   85400    292.48846   -264.05892    148929.96   -47645.503    4016.6247   -51662.128   0.14104972 
   85600    294.21847    235.15662    148312.65   -47643.797    4040.3822   -51684.179   0.13820555 
   85800    291.70833     258.9465    148235.66   -47658.542    4005.9114   -51664.453   0.14024151 
   86000    292.73244   -233.75609    148907.83   -47612.411    4019.9752   -51632.386   0.13766982 
   86200    290.47002   -232.23801    148840.04   -47622.078    3988.9063   -51610.984   0.14805851 
   86400    288.04689    318.52523    148121.03   -47615.202    3955.6303   -51570.832   0.14840195 
   86600     288.6853    144.91136    148335.99   -47614.898    3964.3975   -51579.296   0.14781792 
   86800    289.18909   -424.83829    149055.44   -47641.706    3971.3157   -51613.022   0.14746317 
   87000    289.47644   -87.800768    148646.36   -47663.378    3975.2618    -51638.64   0.13882227 
   87200    287.29729    430.99582    147954.89   -47630.848    3945.3364   -51576.184   0.15100438 
   87400    289.85452    8.4491575    148528.59   -47596.806    3980.4538    -51577.26   0.14500562 
   87600    288.20492   -436.17013    149136.66   -47658.955    3957.8006   -51616.756   0.14371097 
   87800    283.97034    32.977479    148423.81   -47666.162    3899.6488   -51565.811   0.14479477 
   88000    286.55183    456.76591    147977.14   -47615.274    3935.0993   -51550.373   0.14389733 
   88200    286.07954   -212.91592     148770.9   -47627.992    3928.6136   -51556.605   0.14734651 
   88400     289.5174   -303.19671     149029.4   -47610.707    3975.8244   -51586.531    0.1437574 
   88600    283.67523    171.88888    148335.98   -47624.269    3895.5961   -51519.865   0.14891629 
   88800    286.95414    231.02447    148250.08   -47616.144     3940.624   -51556.768   0.14958913 
   89000    284.67021   -166.33473    148832.47   -47636.877    3909.2598   -51546.136   0.14315499 
   89200    289.76785   -164.92513    148777.13   -47610.955    3979.2636   -51590.219   0.14031393 
   89400    289.42844    227.26346    148307.89   -47583.698    3974.6026   -51558.301   0.14677644 
   89600    295.20211    88.222552    148452.92   -47607.945    4053.8901   -51661.835   0.14613449 
   89800    290.23809   -195.22505    148797.13   -47642.703    3985.7213   -51628.424   0.14422653 
   90000    285.63924   -7.0488685    148575.73   -47659.771    3922.5671   -51582.338    0.1403398 
   90200    288.33488    122.94647    148332.48   -47705.428    3959.5853   -51665.014   0.14232214 
   90400      286.772   -12.435441    148531.95   -47725.777    3938.1228     -51663.9    0.1422946 
   90600    288.06369   -103.59276    148693.85   -47718.456    3955.8611   -51674.317   0.14174181 
   90800    287.00576    41.966578    148489.88   -47742.603    3941.3329   -51683.936    0.1451587 
   91000    282.15907    140.81315    148373.09     -47743.4    3874.7753   -51618.175   0.14140378 
   91200    281.64299   -82.346741    148582.73    -47757.52    3867.6883   -51625.208   0.14306513 
   91400    281.22909    -82.91631    148607.38   -47747.521    3862.0043   -51609.526   0.14244572 
   91600    285.47072    95.665792    148392.78   -47753.259     3920.253   -51673.512   0.14804771 
   91800    284.13164    51.853156    148449.07   -47729.833    3901.8639   -51631.697   0.14829402 
   92000    285.20278   -129.58479    148653.07   -47744.855    3916.5734   -51661.429   0.14178298 
   92200    280.34912   -74.318796    148552.12   -47766.401      3849.92   -51616.321   0.14565333 
   92400    290.16961      139.089     148359.7    -47746.61    3984.7809   -51731.391   0.13980668 
   92600    284.99428    39.013632    148487.73   -47802.455    3913.7101   -51716.165   0.13745356 
   92800      280.808    -51.37786     148648.6   -47770.737    3856.2217   -51626.959   0.13948412 
   93000    289.59415     3.020838    148530.31   -47701.251    3976.8783   -51678.129   0.14409571 
   93200    287.04122    94.579306    148422.92   -47700.651      3941.82   -51642.471    0.1440209 
   93400    285.87871   -31.408624    148582.25   -47704.378    3925.8557   -51630.234    0.1446781 
   93600    291.50656    -48.95113    148634.34   -47687.787    4003.1406   -51690.927   0.14454574 
   93800    285.78704    55.908568    148479.72   -47678.183    3924.5968    -51602.78    0.1515097 
   94000    287.11145    5.8426226     148477.5    -47679.17    3942.7844   -51621.954   0.15062124 
   94200    285.34373   -69.674556     148581.3   -47760.183    3918.5091   -51678.692   0.14188218 
   94400    285.53889   -34.487598    148536.39   -47744.626    3921.1891   -51665.815   0.14251936 
   94600    291.43585    67.119075    148440.54   -47742.673    4002.1696   -51744.842   0.13630499 
   94800    281.99751   -15.749259     148536.8   -47793.255    3872.5567   -51665.812   0.14130076 
   95000    281.84168   -57.689546    148594.22   -47799.181    3870.4168   -51669.598   0.14467855 
   95200    286.68306    45.066194    148438.03   -47805.932    3936.9015   -51742.833   0.14372216 
   95400    288.65765     96.71083    148396.44    -47818.37    3964.0177   -51782.388   0.14130332 
   95600    283.94942   -70.613975    148606.44   -47781.267    3899.3614   -51680.629   0.14347181 
   95800    286.30842   -56.243378    148620.04   -47744.674    3931.7566   -51676.431   0.14491923 
   96000     286.4521    127.25042    148364.91   -47737.126    3933.7297   -51670.856   0.14755984 
   96200    282.69638    80.492737    148418.05    -47778.66     3882.154   -51660.814   0.14665975 
   96400    288.85296   -142.73168    148718.24   -47771.874    3966.6998   -51738.574   0.13751158 
   96600    282.99788   -63.937458    148586.11   -47784.207    3886.2944   -51670.501   0.14237456 
   96800    282.28223    154.64546     148249.9    -47835.43    3876.4667   -51711.897   0.14217356 
   97000    284.12877    28.218203    148433.23   -47821.076    3901.8244     -51722.9   0.14523093 
   97200    282.80603    -216.3287    148758.94   -47806.243    3883.6598   -51689.902   0.14693447 
   97400     285.3601    2.6090786    148487.32   -47761.936    3918.7337    -51680.67    0.1466172 
   97600    284.37171    231.53786    148226.66   -47733.727    3905.1606   -51638.887   0.14491334 
   97800    285.20484   -55.061263    148605.28   -47729.706    3916.6017   -51646.308   0.13869776 
   98000    286.87818   -170.38871    148780.17   -47699.313    3939.5809   -51638.894   0.14600517 
   98200    288.84644    97.674469    148381.26   -47710.881    3966.6103   -51677.491   0.14453984 
   98400    283.62159    169.96983    148280.29   -47640.895    3894.8595   -51535.755   0.14824835 
   98600    289.41577   -148.35959    148710.64   -47688.618    3974.4287   -51663.047   0.14174723 
   98800      288.115   -152.54547    148728.37   -47650.917    3956.5657   -51607.483   0.14374145 
   99000    290.26336    160.24518    148333.93    -47654.39    3986.0682   -51640.459    0.1459477 
   99200     287.6166    70.392417    148385.93   -47718.113    3949.7214   -51667.834   0.14795288 
   99400     281.9823   -153.55916    148730.64   -47808.733    3872.3479   -51681.081    0.1431927 
   99600    285.02148   -41.581044    148558.85   -47832.112    3914.0837   -51746.196   0.14099888 
   99800    286.05586    207.50273    148199.52     -47804.1    3928.2884   -51732.388   0.14407217 
  100000    279.16726    26.496805    148441.18   -47803.287    3833.6901   -51636.978   0.14427216 
  100200    281.54634   -234.64952    148751.63   -47760.464    3866.3609   -51626.825   0.14712414 
  100400    286.53056    38.406763    148422.66   -47758.731    3934.8073   -51693.538   0.14440255 
  100600    282.95139    182.64553    148182.14    -47707.54    3885.6559   -51593.196    0.1502105 
  100800    284.62513   -99.722445    148593.46   -47737.515    3908.6408   -51646.156   0.14376636 
  101000    289.09752     -225.916    148807.02   -47719.604    3970.0583   -51689.663    0.1449261 
  101200    285.37296    89.831236    148336.95   -47698.624    3918.9104   -51617.534   0.15108768 
  101400    285.45021    254.32564    148192.03   -47705.195    3919.9713   -51625.167   0.14583017 
  101600    283.35481   -173.85895    148718.41    -47721.75    3891.1959   -51612.946   0.14646133 
  101800    285.07751   -184.47136    148743.54   -47687.245    3914.8531   -51602.098   0.14674257 
  102000    287.60389    172.36771    148180.29   -47689.711    3949.5469   -51639.258   0.15644772 
  102200    285.88215    173.74132    148269.37   -47682.388    3925.9029   -51608.291   0.14626243 
  102400    288.97971   -291.16356     148862.3   -47624.974    3968.4404   -51593.414   0.15328229 
  102600     288.7326   -115.92586     148658.6   -47636.318     3965.047   -51601.365   0.15086945 
  102800    286.01137    319.21495    148105.92   -47647.149    3927.6774   -51574.827    0.1486427 
  103000    290.45743    76.858712    148486.54   -47643.125    3988.7333   -51631.858   0.13934943 
  103200    289.30942   -352.07872    149012.62   -47621.869    3972.9682   -51594.837   0.14642789 
  103400    286.33479    23.755548    148471.97   -47651.086    3932.1188   -51583.204   0.14962734 
  103600    287.99979     408.4313    148030.51   -47654.985    3954.9836   -51609.969   0.14470527 
  103800    293.39832   -135.97733    148739.59   -47662.026    4029.1194   -51691.146   0.14743908 
  104000    283.79645   -402.15617    149045.36   -47668.391    3897.2609   -51565.652   0.15413842 
  104200    285.76831    222.63966    148250.21   -47681.853    3924.3396   -51606.192   0.14741326 
  104400    286.31601    349.69267    148118.06   -47698.919    3931.8609    -51630.78   0.14328632 
  104600    283.75819   -305.49225     148923.5   -47695.232    3896.7355   -51591.968    0.1509883 
  104800    286.92533   -259.90392    148865.01   -47685.234    3940.2284   -51625.462   0.14861549 
  105000    284.33166    352.22519    148091.76   -47713.283    3904.6106   -51617.893   0.14328473 
  105200    290.14589    139.19261    148288.18   -47717.163    3984.4551   -51701.619   0.14619619 
  105400    287.24731   -314.75554    148922.94   -47707.787      3944.65   -51652.437   0.14827457 
  105600    292.93302    -71.95707    148666.18   -47705.777    4022.7296   -51728.507    0.1410411 
  105800     285.8966    238.71243    148186.11   -47721.692    3926.1014   -51647.793   0.14834882 
  106000    289.07021    47.264003    148483.97   -47704.199    3969.6832   -51673.882   0.14719103 
  106200    281.91127   -244.63346    148840.35   -47679.716    3871.3724   -51551.088   0.15126333 
  106400    285.89928    1.5697371    148552.89   -47692.613    3926.1381   -51618.751   0.14753183 
  106600    283.39052    142.41782    148304.96   -47694.621    3891.6864   -51586.307   0.14649355 
  106800     285.7973   -13.539238    148564.31   -47688.785    3924.7376   -51613.522   0.14052401 
  107000    290.21951   -106.52305    148701.03   -47645.641    3985.4662   -51631.107   0.14382274 
  107200    290.33045    62.583755    148473.17   -47634.852    3986.9896   -51621.842   0.14604955 
  107400    288.49837    103.80694    148410.88   -47641.352    3961.8304   -51603.182   0.14608991 
  107600    290.44653   -57.459309    148623.37   -47619.325    3988.5836   -51607.908   0.14554564 
  107800    286.67296   -87.645624    148662.41   -47640.644    3936.7628   -51577.407   0.14715657 
  108000    288.70416    72.759865    148495.66   -47617.606    3964.6565   -51582.262   0.14718907 
  108200    287.87207    64.621215    148502.97   -47652.003    3953.2296   -51605.232   0.14431995 
  108400    286.18773   -92.987851    148682.03   -47649.164    3930.0992   -51579.264   0.15094356 
  108600     285.1813   -46.115404    148634.66    -47620.33    3916.2784   -51536.608    0.1457338 
  108800    286.67385    120.38405    148457.63     -47643.5    3936.7749   -51580.275   0.14423633 
  109000    284.20933    7.8296015    148531.11   -47681.848    3902.9308   -51584.779   0.14618047 
  109200    285.77693   -90.060827    148674.06   -47683.704     3924.458   -51608.161   0.14900655 
  109400     293.6395    8.4888375    148568.81    -47669.65    4032.4315   -51702.082   0.14482604 
  109600     295.0927    83.068142       148450   -47630.549    4052.3876   -51682.936   0.14428189 
  109800    289.05774   -38.284867    148578.73    -47681.43    3969.5119   -51650.942   0.14897752 
  110000    288.06184   -47.027184    148653.03   -47620.089    3955.8356   -51575.924   0.14754164 
  110200    288.18601    34.975088    148504.66   -47607.115    3957.5409   -51564.656    0.1503354 
  110400    287.66653    66.675945    148475.33   -47658.507    3950.4071   -51608.914   0.14881383 
  110600    284.55137   -113.31283    148631.19   -47730.019    3907.6278   -51637.647   0.15083753 
  110800     284.4197    10.114301    148562.07   -47725.266    3905.8196   -51631.086   0.14561147 
  111000    283.53893    81.885512    148414.04   -47727.798    3893.7244   -51621.522    0.1431524 
  111200    283.72338    2.7460901    148532.92   -47716.741    3896.2573   -51612.998   0.14689515 
  111400    287.34348   -115.53802    148695.53   -47768.797    3945.9707   -51714.768   0.14332442 
  111600    282.02465   -14.254356    148488.35   -47821.025    3872.9295   -51693.955    0.1462413 
  111800    279.14698    199.84687    148272.68    -47851.84    3833.4115   -51685.252   0.14648516 
  112000    282.04143   -51.643049    148541.75   -47844.017    3873.1598   -51717.177   0.14427788 
  112200    286.02541   -184.31501    148714.18   -47802.149    3927.8702   -51730.019   0.14697303 
  112400    286.42404    99.866372     148358.2   -47769.897    3933.3444   -51703.242   0.14760343 
  112600    285.73739    146.11091     148240.6   -47746.205     3923.915    -51670.12    0.1492992 
  112800    282.76896   -187.05744    148709.64   -47760.798    3883.1507   -51643.948   0.15130752 
  113000    283.23375   -167.68677    148735.63    -47738.05    3889.5335   -51627.583    0.1492812 
  113200    285.00784    226.66931    148176.13   -47772.062    3913.8964   -51685.959   0.14510693 
  113400    282.32057    222.44541    148229.43   -47753.003    3876.9932   -51629.996   0.14175783 
  113600     282.5602   -299.57121    148849.05   -47755.582    3880.2839   -51635.865   0.15117746 
  113800    283.93493     -146.973     148636.2   -47738.471    3899.1625   -51637.634   0.15175212 
  114000    285.68054    377.89781    148032.87    -47723.09    3923.1342   -51646.224   0.14780241 
  114200    284.23611    73.561999    148419.65   -47737.317    3903.2986   -51640.616   0.14559383 
  114400    283.48305   -396.19136    148979.96   -47677.701     3892.957   -51570.657   0.15482614 
  114600    287.17131    13.870515    148486.08   -47652.317    3943.6065   -51595.924   0.14952397 
  114800    289.33134    351.23592    148046.14   -47638.374    3973.2693   -51611.643   0.14981981 
  115000    284.96007   -79.234758    148629.54   -47668.145    3913.2404   -51581.386   0.15457958 
  115200    287.30064   -335.32267    148950.99   -47681.639    3945.3824   -51627.022   0.15197599 
  115400    283.79072    130.07174    148278.84   -47693.558    3897.1822    -51590.74   0.14933183 
  115600    288.17414    361.58691    148075.34   -47676.276    3957.3779   -51633.654    0.1443757 
  115800    284.31251   -207.82563    148777.56   -47692.334    3904.3477   -51596.682   0.14652423 
  116000    285.08221   -266.78668     148822.9   -47677.603    3914.9176   -51592.521   0.15401846 
  116200    286.82126    272.54069    148148.42   -47695.253    3938.7992   -51634.053   0.14998373 
  116400    283.46564    123.33924     148298.6   -47737.494     3892.718   -51630.212   0.15385097 
  116600    287.81324    -264.5204    148865.74   -47748.539    3952.4218    -51700.96   0.14260309 
  116800    287.18987   -71.197665    148588.42   -47705.122    3943.8612   -51648.983   0.14557829 
  117000    286.52311     287.2714    148140.23   -47712.052    3934.7049   -51646.757   0.15139804 
  117200    289.09868   -8.6395615    148504.59   -47704.121    3970.0741   -51674.195   0.15001115 
  117400    280.32871   -236.54426    148825.06   -47727.583    3849.6398   -51577.223   0.15160786 
  117600    281.97679     27.49307    148433.96   -47708.501    3872.2722   -51580.773   0.15087529 
  117800    288.57088    223.25728    148226.89   -47670.146    3962.8261   -51632.972    0.1463964 
  118000    290.32257     -117.272    148649.63   -47663.175    3986.8813   -51650.056   0.15038559 
  118200    291.25899   -167.56795    148723.96   -47694.849    3999.7408    -51694.59   0.14766957 
  118400     281.5828    122.71345    148257.51   -47743.921    3866.8616   -51610.783   0.15809514 
  118600    284.63084    165.34636    148269.26    -47771.56    3908.7192   -51680.279   0.15266819 
  118800    286.64061   -135.26699    148713.05   -47819.543    3936.3185   -51755.862    0.1418945 
  119000    283.33178    -73.14428    148602.96   -47818.152    3890.8798   -51709.031   0.14403982 
  119200    282.86262    185.90607     148204.6   -47819.801     3884.437   -51704.238   0.14274071 
  119400    279.36073   -5.6907372     148419.8   -47846.067    3836.3469   -51682.414    0.1501395 
  119600    282.96702   -207.88253    148750.69    -47785.59    3885.8706   -51671.461   0.14746225 
  119800    282.14979    25.970802    148494.36   -47781.721     3874.648   -51656.369   0.14242343 
  120000    283.16482    180.67057    148272.41   -47800.932    3888.5869   -51689.519    0.1420867 
  120200    285.15143   -18.317784    148563.36   -47775.601    3915.8682    -51691.47   0.14093487 
  120400    282.85714   -161.92739    148703.67   -47820.005    3884.3616   -51704.367   0.14817123 
  120600    281.77648    49.250426     148376.8   -47814.145    3869.5215   -51683.666   0.15141794 
  120800    279.72014    139.82554    148304.12   -47805.582    3841.2825   -51646.864   0.15071705 
  121000    281.66199   -116.27639    148631.28   -47791.379    3867.9492   -51659.328   0.15137898 
  121200     282.2239   -107.67804    148629.16   -47789.338    3875.6657   -51665.003   0.14075634 
  121400    286.40587    140.87275    148324.69   -47788.683    3933.0949   -51721.778   0.14204755 
  121600    279.38548    31.178418    148390.69    -47779.28    3836.6868   -51615.966   0.15012663 
  121800    278.68153    -115.7341    148644.51     -47776.3    3827.0197    -51603.32   0.14898997 
  122000    285.03201    -35.10347    148528.46   -47754.242    3914.2283    -51668.47   0.14520186 
  122200    286.84544    80.825928    148342.75   -47723.276    3939.1313   -51662.407   0.14210673 
  122400    289.38887    62.489536    148460.61   -47677.706    3974.0592   -51651.765   0.14586377 
  122600    292.27863   -78.577161    148609.08   -47600.595    4013.7431   -51614.338   0.14601061 
  122800    289.36707   -45.403882    148525.89   -47600.493    3973.7599   -51574.253   0.15670358 
  123000    288.78982    24.913939    148439.14   -47646.625    3965.8327   -51612.458   0.15578552 
  123200    286.44375     5.594047     148526.1   -47670.115    3933.6151   -51603.731   0.14748161 
  123400    283.36882   -99.824298    148561.76   -47750.992    3891.3884    -51642.38   0.14316326 
  123600    283.77535     13.65669    148429.88   -47699.298     3896.971   -51596.269   0.14566117 
  123800    284.58898    73.259317    148447.12   -47721.719    3908.1443   -51629.864   0.14695033 
  124000     285.2189   -29.651982    148588.86   -47704.776    3916.7948    -51621.57    0.1473801 
  124200    285.71904   -29.252774    148544.31   -47687.809     3923.663   -51611.472   0.14381571 
  124400    283.37774    57.295568    148424.54   -47701.489    3891.5108       -51593   0.14488593 
  124600    288.25901    39.182396    148487.36   -47719.643    3958.5433   -51678.186    0.1441441 
  124800    288.30094   -34.126583    148577.16   -47722.633    3959.1191   -51681.752   0.14940092 
  125000    284.26226   -12.285909    148483.45   -47730.145    3903.6576   -51633.803   0.15272975 
  125200    289.19271     81.37043    148394.41   -47720.044    3971.3655   -51691.409   0.15030243 
  125400    283.32574    2.0626087    148492.05   -47785.749    3890.7968   -51676.546   0.14436996 
  125600    287.69228    -30.19506    148563.61   -47779.958    3950.7606   -51730.719    0.1373724 
  125800    285.34544    44.856556    148468.67   -47771.052    3918.5325   -51689.585   0.14139573 
  126000    282.87511    38.754204    148413.82   -47739.476    3884.6085   -51624.084   0.15112763 
  126200     284.5091   -48.118462    148528.67   -47720.796    3907.0474   -51627.843   0.15073946 
  126400    282.72797   -67.306232    148546.96   -47749.133    3882.5878   -51631.721   0.14373151 
  126600    285.06848    66.451113    148422.57   -47774.347    3914.7291   -51689.076   0.13817057 
  126800    284.41831     99.24158    148456.88   -47746.403    3905.8005   -51652.204    0.1433461 
  127000      281.922   -43.330821    148611.59   -47764.358    3871.5198   -51635.878   0.14952349 
  127200    283.78648   -48.320916    148562.48   -47798.826    3897.1239    -51695.95   0.14924086 
  127400    281.32964    25.665013    148419.22   -47797.384    3863.3851    -51660.77   0.14715892 
  127600    285.89064    22.966151    148480.33   -47792.446    3926.0195   -51718.465   0.14466886 
  127800    285.54033   -42.102405    148600.96   -47781.444    3921.2088   -51702.653   0.13587129 
  128000    282.24658   -22.402746     148510.9   -47778.031    3875.9771   -51654.008   0.13976286 
  128200     283.1996     75.67623    148381.45   -47744.525    3889.0645   -51633.589   0.14769439 
  128400    279.65503   -25.237394    148511.42   -47771.957    3840.3884   -51612.346    0.1495405 
  128600    282.99423   -71.336975    148617.24   -47803.441    3886.2443   -51689.686   0.14268029 
  128800    289.45434    101.49469    148459.33    -47839.56    3974.9583   -51814.519   0.13470862 
  129000    281.19702    76.772484    148380.93   -47872.952    3861.5639   -51734.515   0.14518924 
  129200    278.72861   -74.944696    148589.41   -47831.689    3827.6663   -51659.356    0.1481744 
  129400    286.90041   -77.951514    148634.65   -47831.157    3939.8862   -51771.043   0.14232956 
  129600     286.3179    101.07668    148367.91   -47832.269    3931.8869   -51764.156   0.14579998 
  129800    278.33982    58.644737    148358.16   -47842.767    3822.3272   -51665.094    0.1517558 
  130000    284.74569   -103.57009    148612.72   -47852.906    3910.2964   -51763.203   0.14078315 
  130200    285.13983   -62.399977       148553   -47870.476    3915.7089   -51786.185   0.13766062 
  130400    282.07007    113.92484    148286.34   -47854.862    3873.5531   -51728.415   0.14607959 
  130600    282.08272    47.712353    148414.45   -47811.709    3873.7268   -51685.436   0.14788163 
  130800    283.54334   -160.04587    148721.39   -47832.896     3893.785   -51726.681   0.14211309 
  131000    288.29362    14.847819    148538.45   -47852.064    3959.0186   -51811.082   0.13975342 
  131200    284.70661    194.79497    148232.49   -47825.546    3909.7597   -51735.305   0.14316701 
  131400    284.23913      14.0936    148497.18   -47827.787      3903.34   -51731.127   0.14606459 
  131600     280.7445    -221.3444    148774.35   -47819.813    3855.3497   -51675.162   0.15091498 
  131800    282.23584    36.692665    148424.25    -47792.61    3875.8296    -51668.44    0.1465902 
  132000    285.86218    214.06319    148206.36   -47737.961    3925.6286    -51663.59   0.14984345 
  132200    285.77191   -86.612235    148635.53   -47746.071     3924.389    -51670.46   0.14295115 
  132400    285.17595   -184.47835    148758.97   -47747.285    3916.2049    -51663.49   0.14029454 
  132600    287.90214    177.31116    148249.26   -47724.279    3953.6425   -51677.922   0.14939005 
  132800    292.44068    202.29496    148226.83   -47695.712    4015.9685   -51711.681   0.15143599 
  133000    289.42923   -225.46419    148782.91   -47689.423    3974.6135   -51664.036   0.15093583 
  133200    288.00552   -184.86338    148719.61   -47637.835    3955.0622   -51592.898   0.15096658 
  133400    288.88206    269.43978    148188.77   -47623.275    3967.0995   -51590.374   0.15267224 
  133600    288.67045    113.21125       148351   -47637.658    3964.1935   -51601.851   0.15892204 
  133800     285.5409   -287.26221    148826.79   -47656.671    3921.2167   -51577.888   0.15294108 
  134000    288.19561   -39.870506    148559.65   -47606.962    3957.6728   -51564.634   0.15189165 
  134200    285.83874    217.89755    148164.52   -47620.104    3925.3068   -51545.411   0.15888955 
  134400    287.82892   -58.972612    148531.58   -47619.477    3952.6371   -51572.114   0.15356411 
  134600    287.96764   -203.21344    148839.31   -47633.305    3954.5421   -51587.847   0.14723582 
  134800    293.37253    95.786809    148401.94   -47676.344    4028.7653   -51705.109   0.14824432 
  135000    287.29275     253.2455    148169.94   -47730.238    3945.2741   -51675.513   0.15079019 
  135200    285.45356   -102.53022    148632.99   -47740.243    3920.0173   -51660.261   0.14752577 
  135400    280.81219   -219.71174    148740.07   -47759.477    3856.2793   -51615.756   0.15042565 
  135600    284.09923    140.29818    148243.71   -47724.583    3901.4188   -51626.001   0.15622211 
  135800    286.29911    211.92852    148240.43   -47794.932    3931.6288   -51726.561    0.1501836 
  136000    280.11755   -214.45942    148742.46   -47825.809      3846.74   -51672.549    0.1484061 
  136200    284.45486   -114.49828    148596.74    -47836.58    3906.3025   -51742.882   0.14381738 
  136400    283.18733    240.58801    148109.52   -47790.495     3888.896   -51679.391   0.14938296 
  136600    283.30055    40.943352    148408.31   -47735.242    3890.4509   -51625.693   0.14427308 
  136800     284.8552    -235.2829    148847.14   -47744.254    3911.8002   -51656.054   0.14348604 
  137000    285.21735    24.233107    148453.35   -47749.447    3916.7735   -51666.221   0.14885332 
  137200    285.65331    319.51884    148106.81    -47780.84    3922.7603   -51703.601   0.15066262 
  137400    284.31979   -95.014804    148574.02   -47740.824    3904.4476   -51645.271    0.1532516 
  137600    282.10242   -247.08556    148861.56   -47731.598    3873.9974   -51605.596   0.14832615 
  137800    289.09732    91.376221    148387.97   -47706.929    3970.0555   -51676.985   0.14826805 
  138000    283.39261    217.89764    148215.43   -47704.685     3891.715     -51596.4   0.15176119 
  138200    284.37815   -147.32766    148731.75   -47755.325    3905.2491   -51660.574   0.14643724 
  138400    282.68597   -157.27326    148772.38   -47739.744    3882.0111   -51621.755    0.1433336 
  138600    288.34922    161.22314    148252.37   -47753.869    3959.7822   -51713.652   0.14568767 
  138800    281.13702    161.84042    148297.01   -47704.175    3860.7399   -51564.915   0.15122347 
  139000    285.38981   -266.63706    148789.24   -47692.892    3919.1418   -51612.034   0.15155899 
  139200    284.51523    -118.7004    148658.92   -47693.713    3907.1315   -51600.844   0.15199105 
  139400    284.35491    197.21192    148251.17   -47720.668    3904.9299   -51625.598   0.15604872 
  139600    287.96549    56.643924    148493.09   -47703.848    3954.5126    -51658.36   0.14582768 
  139800    287.71158   -239.29388    148832.83   -47665.065    3951.0257   -51616.091   0.14423264 
  140000    288.28621    30.890277    148542.68   -47631.865    3958.9169   -51590.782   0.14640331 
  140200    283.47462    188.62365    148322.52   -47673.229    3892.8412   -51566.071   0.15127047 
  140400     286.5888   -65.576903    148617.16   -47700.554     3935.607   -51636.161   0.14592351 
  140600    285.13784   -112.82814     148738.9   -47698.706    3915.6816   -51614.387   0.14129663 
  140800    289.92298    51.350499    148461.29   -47693.195     3981.394   -51674.589   0.14490161 
  141000    282.57755    94.063233    148404.26   -47729.439    3880.5222   -51609.961    0.1434806 
  141200    288.88021   -100.41783    148676.09   -47682.909     3967.074   -51649.983   0.14595703 
  141400    281.44106    -129.1092    148682.83    -47686.57    3864.9153   -51551.485   0.15132526 
  141600    288.31976    107.02962    148418.97   -47671.049    3959.3776   -51630.427   0.15034686 
  141800    284.86543    73.851189       148451   -47724.565    3911.9407   -51636.506   0.14510459 
  142000    286.06222   -102.26609    148669.58   -47740.216    3928.3758   -51668.592    0.1448466 
  142200     284.0906   -92.907645    148608.74   -47736.541    3901.3003   -51637.841    0.1491462 
  142400    285.03359    99.232494    148408.86   -47740.017      3914.25   -51654.267   0.14504163 
  142600    282.91309    60.142594    148496.35   -47730.968    3885.1301   -51616.098   0.14376485 
  142800    283.77976   -89.319757    148668.16   -47735.629    3897.0316   -51632.661   0.14368284 
  143000    283.07469   -10.636395    148536.65    -47796.35    3887.3492   -51683.699   0.14314438 
  143200    288.00402    82.217649    148405.78   -47765.499    3955.0417   -51720.541   0.14288878 
  143400     285.6378   -37.507045    148560.53   -47729.977    3922.5473   -51652.524   0.14545492 
  143600    286.80597   -121.97968    148650.02   -47718.882    3938.5894   -51657.471   0.14716635 
  143800    287.15116    35.983417    148479.53   -47731.139    3943.3297   -51674.469   0.14610841 
  144000    287.23257    111.23795     148417.6   -47719.194    3944.4476   -51663.642   0.14288163 
  144200    290.51609   -48.325967    148609.86   -47693.933    3989.5389   -51683.472   0.14065936 
  144400    288.77127   -53.070636     148651.1   -47694.829    3965.5779   -51660.407    0.1396041 
  144600    284.10004    72.668558    148487.93   -47668.359    3901.4299   -51569.789   0.14572829 
  144800    288.13812    31.279847    148481.46   -47639.275    3956.8832   -51596.158   0.14736884 
  145000    288.08538   -51.598227    148611.73   -47682.897    3956.1589   -51639.056   0.13739875 
  145200    283.48048    10.536742     148583.9   -47711.765    3892.9218   -51604.686   0.13980969 
  145400    285.00829    35.953658    148447.67   -47716.637    3913.9026   -51630.539    0.1433458 
  145600    282.47389   -3.0798609    148482.69   -47733.985    3879.0987   -51613.084   0.14347499 
  145800    280.81587   -88.896856    148572.79   -47749.511    3856.3297   -51605.841   0.14739192 
  146000    285.91951    38.451673    148520.25   -47737.135    3926.4159   -51663.551   0.14224886 
  146200    282.78287    33.458092    148477.95   -47768.775    3883.3417   -51652.116   0.14625193 
  146400    286.65545   -35.311705    148528.83   -47722.183    3936.5224   -51658.706   0.14695751 
  146600    283.49861   -39.751272    148556.15   -47685.418    3893.1707   -51578.589   0.14757249 
  146800    287.64733    38.325782    148507.67   -47641.764    3950.1433   -51591.908    0.1450784 
  147000    288.74534    42.575826    148514.62   -47656.168    3965.2219    -51621.39   0.14231453 
  147200    285.95086    4.6709254    148607.16   -47623.943    3926.8464   -51550.789   0.14283836 
  147400    286.74976   -46.593578    148589.56   -47688.952    3937.8174   -51626.769   0.14774676 
  147600    283.13268    79.370944    148457.21   -47701.244    3888.1456   -51589.389   0.14197094 
  147800    286.48496   -8.9012335    148516.89   -47743.001     3934.181   -51677.182   0.14063313 
  148000    286.11341   -99.775421    148628.49   -47708.014    3929.0786   -51637.093   0.14810982 
  148200    283.70539   -12.125485     148503.2   -47749.569    3896.0104   -51645.579   0.14563587 
  148400    282.18676     60.52792    148401.52    -47797.94    3875.1556   -51673.096   0.14469793 
  148600    289.63921     4.638203    148572.81   -47768.417     3977.497   -51745.914   0.13468927 
  148800    285.00646   -110.40977    148683.27   -47771.003    3913.8773    -51684.88   0.13846682 
  149000     289.9172    62.361916    148446.56   -47778.704    3981.3147   -51760.019   0.13888046 
  149200     281.4422    156.70835    148349.16   -47783.473    3864.9309   -51648.404   0.13756808 
  149400     277.2999   -76.875116    148656.91   -47805.618    3808.0463   -51613.664   0.14176742 
  149600    283.10978   -115.53379    148694.96   -47805.379    3887.8311    -51693.21   0.13876694 
  149800    286.23377    182.21509    148324.33   -47791.937    3930.7315   -51722.668   0.13391396 
  150000     286.0533     133.9334    148381.41   -47751.739    3928.2532   -51679.992   0.13820413 
  150200    282.77255   -213.45665    148785.83   -47697.284    3883.2001   -51580.484   0.15038661 
  150400     291.3557   -43.572008    148640.21   -47669.386    4001.0689   -51670.455   0.14629648 
  150600    285.61952    194.48383    148250.42   -47719.295    3922.2963   -51641.591   0.14940868 
  150800    286.89743    87.960888    148481.62   -47683.795    3939.8453    -51623.64   0.13853444 
  151000    284.26951   -264.84975    148881.65   -47722.462    3903.7572   -51626.219   0.14267208 
  151200    286.40777    20.372647    148538.12   -47710.118     3933.121   -51643.239    0.1407389 
  151400    296.47718    339.05733    148177.86   -47625.029    4071.4001   -51696.429   0.13909015 
  151600    291.60552   -105.05989    148696.64    -47612.94    4004.4996   -51617.439   0.14480683 
  151800    288.03106   -329.53818    148980.79   -47623.303    3955.4129   -51578.716   0.14551403 
  152000    283.49181    143.27969    148358.01   -47624.323    3893.0773     -51517.4   0.14943614 
  152200    290.77767    306.31088    148165.56   -47645.652    3993.1311   -51638.784   0.14177102 
  152400    284.81916   -197.70147     148842.1   -47692.711    3911.3053   -51604.016   0.14280597 
  152600    284.81048    -283.6565    148890.05   -47660.907     3911.186   -51572.094   0.14885484 
  152800    289.58578    301.92203    148181.43   -47594.314    3976.7633   -51571.078   0.14593665 
  153000    291.56258    205.33075    148286.96   -47663.868    4003.9099   -51667.778   0.13989106 
  153200    290.94266    -285.2291    148930.55   -47604.723    3995.3969    -51600.12   0.14227812 
  153400    287.26518   -159.02871    148702.22   -47657.097    3944.8955   -51601.993   0.14567964 
  153600    290.39756    319.07901    148101.84    -47683.93    3987.9112   -51671.841   0.14243414 
  153800    283.93844    49.204862    148446.04   -47713.145    3899.2107   -51612.356   0.14669748 
  154000    287.05332     -305.742    148889.04   -47725.914    3941.9861     -51667.9   0.14455226 
  154200    286.60971    63.127074    148437.72   -47672.747    3935.8942   -51608.642   0.14676509 
  154400    287.00346    285.99626    148168.22   -47666.357    3941.3013   -51607.658   0.13992167 
  154600      284.221   -101.91977    148648.69   -47688.456    3903.0909   -51591.547   0.14744492 
  154800    290.40283   -193.95768    148772.75   -47704.034    3987.9836   -51692.018   0.14783212 
  155000    289.82882     136.0864    148334.25   -47692.064    3980.1009   -51672.164   0.14429065 
[...]
  163200    283.24797    4.0765387    148462.57   -47755.313    3889.7288   -51645.042   0.14253329 
  163400    286.65358    220.20575    148224.08   -47789.898    3936.4967   -51726.395   0.14087161 
  163600    286.77003   -32.350269    148563.93   -47740.359    3938.0959   -51678.455   0.14432793 
  163800    281.38652   -193.85664    148737.98   -47797.949    3864.1662   -51662.116   0.14672883 
  164000    282.48585    125.97618    148325.92   -47814.834    3879.2628   -51694.097   0.14057225 
  164200    285.73099    194.31343    148233.32   -47812.729     3923.827   -51736.556   0.13985109 
  164400    282.93376   -134.45807    148720.99   -47755.835    3885.4139   -51641.249   0.14120127 
  164600     282.8112   -154.02063    148750.62   -47734.823    3883.7308   -51618.554   0.14317269 
  164800    281.81342    193.80141    148259.65   -47773.784    3870.0287   -51643.813   0.15080574 
  165000    285.70368    123.46167    148320.28   -47750.551     3923.452   -51674.003   0.14792187 
  165200    279.65127   -263.66745       148812   -47746.492    3840.3367   -51586.829   0.14947002 
  165400    288.06613   -118.57395    148652.25   -47775.753    3955.8946   -51731.648   0.14005418 
  165600    282.74558    257.91104     148168.4   -47714.785    3882.8297   -51597.614   0.14467135 
  165800     286.2236    35.116973    148460.44   -47741.438    3930.5919    -51672.03   0.14646177 
  166000    284.95054   -289.91517    148877.43   -47699.247    3913.1094   -51612.356   0.14820785 
  166200    280.90088    16.455895    148462.21   -47729.661    3857.4971   -51587.159   0.14694711 
  166400    291.23584    281.12585    148138.99   -47727.234    3999.4229   -51726.657   0.14503963 
  166600    283.78166   -122.20165    148666.61   -47723.032    3897.0578    -51620.09   0.14624668 
  166800    284.16859   -280.02859    148882.54    -47780.03    3902.3713   -51682.401   0.14316371 
  167000    283.72701    208.71863    148224.67   -47781.024    3896.3073   -51677.331   0.14722517 
  167200    286.90113    290.38127    148164.46   -47730.977    3939.8961   -51670.873   0.14611383 
  167400     285.2751   -305.41382    148906.06   -47776.257    3917.5666   -51693.824   0.14501443 
  167600    284.24319   -191.69337    148803.81   -47757.601    3903.3958   -51660.997   0.13857695 
  167800    285.90654    370.62244    148052.57   -47824.737    3926.2379   -51750.975   0.13993781 
  168000    281.43278    139.96808       148282   -47814.718    3864.8015   -51679.519   0.14758654 
  168200     285.8667   -384.15026    148992.68   -47811.213    3925.6907   -51736.903   0.14476766 
  168400    285.26384   -51.293893    148623.09   -47768.774    3917.4119   -51686.186   0.14519578 
  168600    282.84419    391.34077    148024.75   -47779.506    3884.1839    -51663.69   0.14230913 
  168800    283.93592   -29.257066    148527.44   -47821.763    3899.1761   -51720.939   0.14342567 
  169000    283.08894   -352.46606    148977.51   -47805.183    3887.5449   -51692.728    0.1447946 
  169200    285.48832    91.685561    148424.73   -47775.594    3920.4945   -51696.089   0.14224781 
  169400     281.6367    282.19183    148134.52   -47802.396    3867.6019   -51669.998   0.14880914 
  169600    280.97421   -121.20203     148687.2    -47813.02    3858.5041   -51671.524   0.13874021 
  169800     282.5888   -204.44759    148790.05   -47817.299    3880.6767   -51697.976   0.14159497 
  170000    282.05497    180.63105    148293.35   -47855.681    3873.3457   -51729.027   0.13940265 
  170200    278.07436     134.5842    148328.44   -47865.631    3818.6817   -51684.313   0.14663196 
  170400    283.69372    -163.5618    148729.51   -47836.015    3895.8501   -51731.865   0.14301544 
  170600    281.26795   -86.046353     148618.1   -47816.848    3862.5379   -51679.386   0.14134919 
  170800    283.29028    166.36159    148284.12   -47841.104    3890.3098   -51731.414   0.14247446 
  171000    279.69853    65.447602    148407.46   -47839.654    3840.9858    -51680.64   0.14214316 
  171200    283.28886   -141.56419    148674.49   -47866.644    3890.2903   -51756.934   0.13986951 
  171400    277.17612   -55.331445     148511.6   -47860.761    3806.3466   -51667.107   0.14594638 
  171600    280.83391    139.17018    148298.02   -47826.317    3856.5775   -51682.894   0.14661951 
  171800    282.31917   -21.733568    148525.15   -47805.049    3876.9739   -51682.023   0.14500771 
  172000    284.66017   -120.90899    148689.01   -47810.474    3909.1219   -51719.596   0.14145396 
  172200    277.77191     36.70897    148425.87   -47815.144    3814.5283   -51629.673   0.14869477 
  172400    285.24311    139.41204    148325.05   -47785.375    3917.1273   -51702.502    0.1437047 
  172600    283.95736    -106.8393    148581.66   -47769.374    3899.4706   -51668.844   0.14365421 
  172800    282.91382    -107.6763    148616.83   -47776.163      3885.14   -51661.303   0.14308286 
  173000    282.18901     71.77111     148348.2   -47794.417    3875.1865   -51669.604   0.14266558 
  173200    284.81281    108.16215    148343.33   -47830.599    3911.2182   -51741.817   0.13872056 
  173400    281.60127   -102.81934    148600.39   -47816.141    3867.1153   -51683.256   0.14312188 
  173600     287.1735   -50.606853    148590.88   -47767.766    3943.6365   -51711.403   0.14126897 
  173800    287.86408    105.22612    148353.06   -47768.259    3953.1199   -51721.379   0.14584696 
  174000    284.43953    28.136121     148404.4   -47733.657     3906.092   -51639.749   0.14904248 
  174200    285.72286   -110.24677    148653.72   -47726.815    3923.7155   -51650.531   0.14620482 
  174400    284.58708   -46.380891    148549.07   -47709.309    3908.1182   -51617.427   0.14425236 
  174600    286.45608    139.36887    148320.42   -47720.404    3933.7845   -51654.188   0.14217194 
  174800    290.25843    81.869979    148519.88   -47685.985    3986.0005   -51671.986   0.13871407 
  175000     287.5044   -165.89764    148765.53   -47733.426    3948.1806   -51681.606   0.13936683 
  175200     289.0156    42.161435    148504.45    -47730.12    3968.9333   -51699.053   0.13830703 
  175400    284.00633    162.06653    148319.23   -47739.738     3900.143   -51639.881   0.14414153 
  175600    283.06393   -64.853252    148633.55   -47751.482    3887.2015   -51638.684   0.14431307 
  175800    287.63478   -104.82498    148758.84   -47735.065     3949.971   -51685.036    0.1409339 
  176000    286.04504    98.871575    148377.12   -47723.656    3928.1398   -51651.795   0.14899714 
  176200    286.97444    124.93652    148320.49   -47674.184    3940.9028   -51615.087   0.14931952 
  176400    280.22425   -186.93373    148776.56   -47711.283    3848.2053   -51559.489   0.14612757 
  176600    285.42412   -157.13541    148732.84   -47690.545    3919.6129   -51610.158   0.14770375 
  176800    292.92931    254.75074    148208.64   -47698.243    4022.6787   -51720.921    0.1405541 
  177000     288.3476    104.42649    148351.07    -47715.13    3959.7599    -51674.89     0.142406 
  177200    287.93798   -296.55985    148908.35   -47727.031    3954.1348   -51681.165   0.14135147 
  177400    280.01225   -92.882336    148574.54   -47815.323    3845.2939   -51660.617   0.14667446 
  177600    282.79158    411.63497    147976.76   -47779.949    3883.4614    -51663.41   0.14480427 
  177800    281.82179   -26.868499    148532.61   -47760.721    3870.1437   -51630.865   0.14489269 
  178000    282.71634   -445.56067    149103.11   -47716.827    3882.4281   -51599.255   0.14973417 
  178200    286.58933    126.00461    148337.36   -47753.822    3935.6143   -51689.437   0.14375418 
  178400    291.02189    498.67601    147867.69   -47728.966    3996.4849   -51725.451   0.14263705 
  178600    283.79384   -205.65107    148776.38   -47745.799    3897.2249   -51643.024   0.14267595 
  178800    285.00447   -409.80447     149085.7   -47713.586    3913.8501   -51627.436   0.14297699 
  179000    287.05858    297.47795    148137.76   -47689.688    3942.0583   -51631.747   0.14622804 
  179200    285.02133    341.82676    148071.53   -47714.319    3914.0816   -51628.401   0.14360913 
  179400    286.30801   -296.97143    148956.78   -47688.247     3931.751   -51619.998     0.146611 
  179600    287.05898    -261.3229    148841.11   -47693.617    3942.0639   -51635.681    0.1477298 
  179800    287.10347       346.49     148059.8   -47721.238    3942.6748   -51663.913   0.14461413 
  180000     288.9726    139.47477    148319.77   -47690.898    3968.3427   -51659.241   0.14549442 
  180200    287.41846   -330.80391    148976.24   -47651.619    3947.0004    -51598.62    0.1447827 
  180400    288.77371   -43.902159    148640.13   -47609.079    3965.6116   -51574.691   0.14263206 
  180600    283.66444    273.97133    148176.46   -47695.815     3895.448   -51591.263   0.14495059 
  180800    284.54973    8.3036982    148538.12     -47662.5    3907.6054   -51570.106   0.14275738 
  181000    289.07005   -247.39537    148855.78    -47702.29    3969.6811   -51671.971   0.13902206 
  181200    287.88542     48.60028    148448.36   -47686.168     3953.413   -51639.581   0.14187715 
  181400    284.16274    180.90115     148226.1   -47724.921     3902.291   -51627.212   0.14412484 
  181600    288.60394   -51.466239    148590.76    -47746.27    3963.2801    -51709.55   0.13725308 
  181800    290.44538    -168.1749    148726.32   -47716.358    3988.5678   -51704.926   0.14175891 
  182000    286.45972    101.42325    148394.91   -47724.414    3933.8345   -51658.248   0.14121781 
  182200    280.83394    139.65019    148328.34   -47739.854    3856.5779   -51596.432   0.14295046 
  182400    283.83675   -89.405009    148637.75   -47740.617    3897.8143   -51638.432   0.14505527 
  182600    284.77124   -59.789296    148634.87   -47704.636    3910.6472   -51615.283   0.14233802 
  182800    286.48531    138.55235    148361.82   -47670.565    3934.1859   -51604.751   0.14678865 
  183000    285.76675    56.230595    148462.79    -47671.33    3924.3181   -51595.648   0.14428126 
  183200    292.13247   -170.77417    148723.61   -47653.782     4011.736   -51665.518   0.14447403 
  183400    287.99705   -25.817932    148563.69   -47661.126     3954.946   -51616.072   0.14871332 
  183600    282.76391    127.51925    148328.86   -47690.152    3883.0814   -51573.233   0.14504178 
  183800    285.26492   -27.541289    148538.12   -47723.523    3917.4267    -51640.95   0.14502651 
  184000    286.93556   -140.96499    148712.26   -47735.429    3940.3689   -51675.798   0.14516865 
  184200    286.37532     63.34478    148408.29   -47777.516    3932.6754   -51710.191   0.14418218 
  184400    286.20752    171.95689    148236.62   -47787.087     3930.371   -51717.458   0.14666083 
  184600    284.48816   -91.893305    148592.19   -47795.491    3906.7598   -51702.251   0.14461401 
  184800    280.65459   -197.23027    148716.79   -47782.676     3854.115   -51636.791   0.14703121 
  185000    287.21469    122.44959    148336.68   -47773.246    3944.2021   -51717.448   0.14553461 
  185200    280.37333    139.99088    148258.94   -47828.877    3850.2525    -51679.13   0.14156876 
  185400    284.71495   -128.64447    148611.58   -47807.482    3909.8742   -51717.356    0.1429098 
  185600    277.93273   -141.54878    148642.13   -47808.764    3816.7368     -51625.5   0.14274201 
  185800    283.04733    172.83267       148289   -47756.058    3886.9735   -51643.032   0.14355594 
  186000    294.25725    148.84662    148332.49   -47743.436    4040.9148   -51784.351   0.13829116 
  186200    286.20026   -201.02359    148701.85   -47734.215    3930.2714   -51664.487     0.146649 
  186400    286.94752   -103.21374    148582.89   -47683.671    3940.5332   -51624.204   0.14905321 
  186600    289.45791    229.09058    148215.12   -47716.293    3975.0073   -51691.301   0.14247366 
  186800    285.80255   -13.683591    148400.66   -47742.658    3924.8098   -51667.468   0.15038872 
  187000    284.82824   -170.63153    148720.68    -47713.17      3911.43     -51624.6   0.14400685 
  187200    286.55975    1.3305236    148456.83   -47732.361    3935.2081   -51667.569   0.14523111 
  187400    290.30748    258.24351       148149   -47718.192    3986.6741   -51704.866   0.13956883 
  187600    283.85986   -33.848806    148524.68   -47758.374    3898.1316   -51656.505    0.1426744 
  187800    285.94295   -246.17471    148796.79   -47745.956    3926.7378   -51672.694   0.14613591 
  188000    287.19061    105.53219    148363.75    -47720.77    3943.8715   -51664.642   0.14619033 
  188200    285.57973    224.82574    148160.98   -47712.314    3921.7498   -51634.064   0.15214079 
  188400    290.53776   -167.04339    148687.52   -47700.754    3989.8365    -51690.59   0.14592612 
  188600    287.94102   -224.21113     148788.8   -47704.166    3954.1765   -51658.343   0.14673312 
  188800      284.329    329.08913     148132.3   -47716.794    3904.5741   -51621.368    0.1450973 
  189000    283.20986    207.32216    148169.29   -47711.046    3889.2054   -51600.252   0.15033579 
  189200    285.95945   -389.13786    148953.46   -47714.092    3926.9645   -51641.056    0.1460616 
  189400    282.86919    -169.8654    148729.91   -47675.446    3884.5271   -51559.973   0.14038908 
  189600     287.2991    525.85503    147863.73   -47688.987    3945.3613   -51634.348   0.13885141 
  189800    281.35715    96.743768    148350.91   -47729.995    3863.7629   -51593.758   0.14269888 
  190000    285.71488   -516.21683    149201.92   -47758.483    3923.6059   -51682.089    0.1434665 
  190200    283.24652   -7.2045041    148499.59    -47735.14    3889.7088   -51624.849   0.14837467 
  190400    280.58781    491.42695    147819.89   -47731.653    3853.1979   -51584.851   0.15096399 
  190600    289.97263   -108.05931    148659.53   -47680.366    3982.0758   -51662.441    0.1444542 
  190800    285.93296   -487.86404    149137.32   -47708.171    3926.6006   -51634.772   0.14624747 
  191000    283.69816    156.08543    148262.59   -47723.555    3895.9111   -51619.466   0.14482471 
  191200    284.16477    389.17977    148008.61   -47717.275    3902.3188   -51619.594   0.14498851 
  191400    286.49326   -247.64787    148787.18   -47743.485     3934.295    -51677.78   0.14473893 
  191600    292.90597    -200.8333    148822.63   -47698.756    4022.3581   -51721.114   0.14042149 
  191800    286.96777     223.8104    148213.09    -47732.08    3940.8113   -51672.891   0.14525891 
  192000    283.61507    173.45713    148277.62   -47733.092      3894.77   -51627.862   0.14838794 
  192200    288.32861   -189.34883    148711.77   -47703.238    3959.4991   -51662.737   0.15434928 
  192400     286.4728   -20.418203    148579.58   -47709.637    3934.0141   -51643.651   0.14999962 
  192600    288.39678     168.6742    148298.83   -47740.682    3960.4353   -51701.118   0.14627859 
  192800    286.42284    18.901526     148439.9   -47717.419     3933.328   -51650.747   0.14690019 
  193000    286.13452    -124.7128    148645.73   -47707.186    3929.3686   -51636.554   0.14432714 
  193200     289.2445    23.510557    148474.35   -47660.984    3972.0767    -51633.06   0.14601418 
  193400    287.32036    108.71425    148339.55   -47663.532    3945.6533   -51609.186   0.14434498 
  193600      288.338    -45.26212    148535.49   -47676.269    3959.6281   -51635.897   0.14566726 
  193800    285.25598   -130.80355    148636.05   -47723.554    3917.3039   -51640.858   0.14238787 
  194000    283.74049    42.591169    148403.16   -47748.897    3896.4924   -51645.389   0.14410997 
  194200    284.69474    95.962959    148382.54   -47734.694    3909.5967   -51644.291   0.14495961 
  194400    284.60999   -101.88871    148604.98   -47716.438    3908.4328   -51624.871   0.14959751 
  194600    286.82186   -77.607141    148554.98   -47741.198    3938.8075   -51680.006   0.14602048 
  194800    288.14537    123.18141    148338.92   -47727.525    3956.9828   -51684.508   0.14233624 
  195000     286.4404     26.02777     148460.6   -47710.848    3933.5691   -51644.417    0.1478405 
  195200    287.13727   -175.00714    148707.41   -47696.576     3943.139   -51639.715    0.1472937 
  195400     289.8152    18.437883    148526.48   -47697.994    3979.9139   -51677.908   0.14537714 
  195600    283.86679    156.16763    148314.15   -47701.891    3898.2267   -51600.117   0.14541522 
  195800    290.73123    6.7038474    148558.73   -47748.345    3992.4933   -51740.839   0.13802784 
  196000    286.94213   -133.88202     148739.9   -47718.016    3940.4592   -51658.475   0.13966151 
  196200    282.29898     45.52071    148433.54   -47706.045    3876.6967   -51582.741   0.14849749 
  196400    284.76907    170.62516    148308.32   -47706.464    3910.6174   -51617.082    0.1460685 
  196600    285.16049    -96.08091    148693.21   -47772.321    3915.9926   -51688.313   0.13956596 
  196800    281.10585    -192.4325     148754.2   -47762.345    3860.3119   -51622.657   0.14637416 
  197000    285.80337    173.35106    148311.47   -47773.684     3924.821   -51698.505   0.14300596 
  197200    278.51825    143.02077    148309.63   -47828.994    3824.7775   -51653.772   0.14830386 
  197400    281.49392   -195.17548    148787.64    -47786.72    3865.6411   -51652.361   0.14019728 
  197600      284.277   -122.61464    148715.35   -47701.477    3903.8601   -51605.337   0.14481932 
  197800    289.16085    245.36522    148242.61   -47689.751     3970.928   -51660.679   0.14141306 
  198000    285.66868    89.618991    148441.74   -47720.229    3922.9714     -51643.2   0.14027289 
  198200    280.60861   -255.17659    148899.71   -47742.768    3853.4836   -51596.251    0.1407762 
  198400    285.37172     -14.9912    148552.69   -47672.388    3918.8934   -51591.281   0.14505405 
  198600    290.19364    293.40627    148161.06   -47662.644    3985.1108   -51647.755   0.14503026 
  198800    284.22764   -76.545285    148630.74   -47696.105    3903.1822   -51599.287   0.14583627 
  199000    283.33016   -303.44277    148908.56   -47700.135    3890.8574   -51590.992   0.15526314 
  199200    291.82746    159.15742    148329.46   -47695.783    4007.5474    -51703.33   0.14513165 
  199400    290.34835    312.43905    148186.91   -47706.842    3987.2354   -51694.077   0.14266347 
  199600    284.25633   -253.28691    148835.37   -47729.687    3903.5761   -51633.263   0.14629525 
  199800    286.39391   -251.39951    148809.96   -47708.207    3932.9306   -51641.138   0.14736087 
  200000    284.54135    349.73623    148121.16   -47725.488    3907.4902   -51632.978   0.14269522 
Loop time of 121.581 on 6 procs for 200000 steps with 4608 atoms

Performance: 710.638 ns/day, 0.034 hours/ns, 1644.994 timesteps/s
97.9% CPU use with 6 MPI tasks x no OpenMP threads

MPI task timing breakdown:
Section |  min time  |  avg time  |  max time  |%varavg| %total
---------------------------------------------------------------
Pair    | 79.438     | 80.086     | 80.823     |   5.2 | 65.87
Neigh   | 12.491     | 12.67      | 12.949     |   5.3 | 10.42
Comm    | 16.499     | 17.453     | 18.212     |  13.3 | 14.36
Output  | 3.5766     | 3.5783     | 3.5853     |   0.2 |  2.94
Modify  | 6.1645     | 6.2396     | 6.3044     |   2.3 |  5.13
Other   |            | 1.554      |            |       |  1.28

Nlocal:        768.000 ave         783 max         756 min
Histogram: 1 2 0 0 1 0 0 0 1 1
Nghost:        1394.67 ave        1410 max        1380 min
Histogram: 1 0 0 1 2 0 0 1 0 1
Neighs:        0.00000 ave           0 max           0 min
Histogram: 6 0 0 0 0 0 0 0 0 0
FullNghs:      21922.3 ave       22402 max       21522 min
Histogram: 1 1 1 0 1 0 0 0 1 1

Total # of neighbors = 131534
Ave neighs/atom = 28.544705
Neighbor list builds = 12371
Dangerous builds = 0
write_data		data.${NAME}
write_data		data.ice_286K_1atm_ML
System init for write_data ...
Total wall time: 0:03:04
