LAMMPS data file via write_data, version 29 Oct 2020, timestep = 200000

4608 atoms
1 atom types

-0.09015931016295653 57.36066931016368 xlo xhi
-0.08014160903294609 50.9872616090355 ylo yhi
-0.08014160903294609 50.9872616090355 zlo zhi

Masses

1 18.015

Atoms # atomic

5 1 1.8146280580181724 1.6126008981225608 1.5451484442451775 0 0 0
13 1 7.748509133994876 1.6099942252136887 1.9409795316323546 0 0 0
11 1 9.38931889303518 50.97071379819308 3.3156497937854783 0 -1 0
21 1 14.562200750906962 1.3888043048094212 1.3313975209529765 0 0 0
18 1 12.827213299816872 2.909164274345842 3.158890710455909 0 0 0
8 1 4.876115898903587 4.614780588638848 1.366442908814949 0 0 0
10 1 5.875684508832078 3.0698126576496674 3.2937749210309417 0 0 0
16 1 11.289123101473535 4.3801218002639954 1.5464491567880845 0 0 0
164 1 16.031288260309005 41.36932692484939 0.023914011485328623 0 0 0
24 1 17.7437564252361 4.7905500933030405 1.4857778962593033 0 0 0
29 1 1.3823222371988806 7.907424187963116 1.4536732799618022 0 0 0
482 1 0.09882012204660462 28.579583960101342 15.750830085814528 0 0 0
37 1 8.378317545772349 8.021834583699356 1.4275609870466242 0 0 0
314 1 0.255093384658561 34.886805983765484 9.384484512119283 0 0 0
45 1 14.366973304521443 7.793578540461606 1.395196226287977 0 0 0
43 1 16.014127726624654 6.320021787195198 2.965790890887638 0 0 0
762 1 12.692273457255324 48.16441253338702 22.260589566676664 0 0 0
32 1 4.88790052575194 11.442604784889483 1.5607454928544156 0 0 0
34 1 6.404372417606848 9.372500456348526 2.9468395989418523 0 0 0
40 1 11.197391215830086 11.063473533662115 1.9461233905706927 0 0 0
2473 1 18.8552893125935 44.2163025374233 25.405633865098682 0 0 0
48 1 17.322763404980254 11.097122945031154 1.6228508096647485 0 0 0
53 1 1.7445347973940888 14.183823559992586 1.60135545176669 0 0 0
51 1 2.9500131665533638 12.602673422343452 3.213328366440503 0 0 0
61 1 7.68158645288155 14.635198490359016 2.2339085187679975 0 0 0
59 1 9.638225000020919 12.60364089090662 3.3157790828135805 0 0 0
28 1 3.4794125703439165 9.477128608761221 0.19558629231290026 0 0 0
69 1 14.055684888338554 14.542007825491888 1.48580189251726 0 0 0
56 1 4.753678743979012 17.529010496107166 1.8387750793708522 0 0 0
58 1 6.044588772737 16.233342459819106 3.4201572322590854 0 0 0
64 1 10.726747355165609 17.562836087902664 1.8078378610891603 0 0 0
66 1 12.634639224209185 16.186043166693196 3.245671316832524 0 0 0
72 1 17.217450012232774 17.296811007405285 2.100760832909918 0 0 0
77 1 1.4921369354916545 20.428770723958714 1.2160091043330412 0 0 0
75 1 3.167909985314267 19.388286586220342 3.2449123789790035 0 0 0
85 1 8.06007830463464 20.554200170110175 1.8441726788138793 0 0 0
83 1 9.537283305131469 18.980563717749618 3.5285673007479454 0 0 0
93 1 14.043888099256279 20.52475819055034 1.810909194633747 0 0 0
91 1 15.555534330444399 19.100596010719286 3.713995854970374 0 0 0
766 1 14.42512621718127 49.73717667885941 24.029769986243135 0 0 0
80 1 4.4622198489061935 23.86987029952589 1.7387279034041425 0 0 0
697 1 0.10706654829336487 31.60470033931379 18.867017223267954 0 0 0
88 1 11.333754577894544 23.691440186158893 1.7235347782042996 0 0 0
90 1 12.9758918013327 22.30895092581568 3.333204317137535 0 0 0
96 1 17.54372907269137 23.300375125724596 1.3789486047358084 0 0 0
101 1 1.4248666411847644 26.903457032848937 1.6614777797073936 0 0 0
924 1 9.579065241026502 41.50881544175763 25.44909906840826 0 0 0
107 1 9.789181632968843 25.52071542752972 3.3511658695350737 0 0 0
117 1 14.601748560115478 26.773687288976294 1.5585113228919447 0 0 0
115 1 16.385027192582182 25.45933168922251 3.133735600486577 0 0 0
722 1 0.11155322351323321 41.35607050649412 21.927656442332847 0 0 0
104 1 4.737536629393701 30.088204785845846 2.0976970902136594 0 0 0
106 1 6.436355554845046 28.699997670751802 3.514213696726997 0 0 0
109 1 7.901855844221924 27.114244835300696 1.9850537194377837 0 0 0
169 1 0.045716689046161746 44.551300694678105 -0.03861488042171216 0 0 0
125 1 1.5876190211067014 32.925489548170304 1.5199832125848927 0 0 0
698 1 0.17601337628155878 35.072995085617734 21.941229355534002 0 0 0
112 1 11.363408904180677 29.995933188311877 1.7508075272526988 0 0 0
12 1 9.271428903776986 3.2583267608431488 0.09601451138893657 0 0 0
120 1 17.318709889511332 30.37067906831276 1.5471070606524908 0 0 0
758 1 7.8049540052497495 49.645927053332386 24.003764736229805 0 0 0
133 1 8.379212291732394 33.047765699185334 1.8046058767711144 0 0 0
674 1 0.06373090606811191 28.281658686088793 22.503636233389333 0 0 0
266 1 0.18290305092970505 22.079393784252936 9.386001466479549 0 0 0
141 1 14.516151299531387 33.56428298086399 1.4289268836954065 0 0 0
44 1 16.1758925057159 9.409122033770275 0.0659962001937443 0 0 0
128 1 5.03298560245162 36.34445453964595 1.1709192763756626 0 0 0
147 1 3.2173344418943897 37.75380046432454 3.013551922841446 0 0 0
136 1 11.51319730365794 36.6265336382026 1.590867729133918 0 0 0
155 1 9.633357512204789 37.81440634374118 2.9278819770288167 0 0 0
144 1 17.8478789422214 36.64551074646367 1.5986550267344182 0 0 0
530 1 0.0011831190960802235 41.35283860033512 16.115196328358646 0 0 0
149 1 1.8711519588963441 39.71536582982566 1.6462253523532253 0 0 0
140 1 16.305257215441088 34.986042056547376 0.07437437240540817 0 0 0
157 1 7.996942204258719 39.65684701002802 1.616588016329826 0 0 0
154 1 6.411395959294709 41.154314022305684 3.4492267964280474 0 0 0
265 1 0.1300829098541565 19.15003515666421 6.237518767480693 0 0 0
165 1 14.142301785011597 39.64340919981028 1.098937461091198 0 0 0
137 1 12.855888435408184 31.720123243878863 0.14244346479255798 0 0 0
152 1 4.995183677074067 42.86209872633313 1.8866610900901877 0 0 0
900 1 9.589204732835341 35.15415251517727 25.283882271321524 0 0 0
160 1 10.96659375068486 43.01389970077871 1.4317650666033477 0 0 0
168 1 17.684586763694185 43.192753401344746 1.439468002519529 0 0 0
187 1 15.713274130383128 44.59751098405222 2.878872965516138 0 0 0
173 1 1.4231188800158079 46.02697367904253 1.6378988206978695 0 0 0
60 1 9.550461770168738 15.727979364144502 0.07348385648547537 0 0 0
181 1 8.015155805237951 46.09010412965458 1.433989768021978 0 0 0
833 1 12.651212123060848 12.478371819125327 24.977628396347093 0 0 0
189 1 13.873245615431593 46.380175154658616 1.5934784725151365 0 0 0
186 1 12.610854597735027 48.01666161291941 3.1470006136692072 0 0 0
176 1 5.027282912063251 49.694450631716535 1.67080059607043 0 0 0
146 1 0.19148103467723432 40.934285305750265 3.2461608753507307 0 0 0
184 1 11.099910575163468 49.589253915616 1.5251983229180048 0 0 0
889 1 -0.0403191117086548 32.20834540054598 25.353715720367774 0 0 0
192 1 17.763245559034935 49.222674733616245 1.845018558257301 0 0 0
3 1 3.104805846642615 50.511213201313595 2.9877573103602693 0 -1 0
7 1 4.268654729920813 1.390082732667023 4.698441749410118 0 0 0
204 1 9.727654137455975 3.052936948921998 6.448812822116944 0 0 0
15 1 11.182113249957254 1.438699784626709 4.85714218618838 0 0 0
23 1 17.274677180153603 1.6544074173069578 4.800373490723763 0 0 0
6 1 1.413579064066145 4.766237410879482 4.419499559959335 0 0 0
14 1 7.994971274805568 4.325791380795852 4.51728914577563 0 0 0
35 1 9.574410584218487 6.003592991412288 2.772278692638522 0 0 0
22 1 14.396892994881384 4.936447470226749 4.475303947427064 0 0 0
27 1 3.214873378539529 6.153794910868657 2.6267998695750743 0 0 0
750 1 1.3652683908044612 49.7970538613218 23.998117548824233 0 0 0
31 1 4.721138076341518 7.670883964186003 4.333727658906978 0 0 0
39 1 10.74644973533154 7.611317162921335 4.306818411626094 0 0 0
47 1 17.130306194079 8.06293666452437 4.337327608632729 0 0 0
865 1 0.5382676696459628 25.09676137281006 25.323510201202822 0 0 0
30 1 1.5687341314797631 11.009402354000592 4.947537880987165 0 0 0
220 1 3.1976381118194523 9.170599441614668 6.150008189271247 0 0 0
38 1 7.6735135802197725 10.962395514575153 4.6528057116370025 0 0 0
228 1 9.33493615139451 9.293414097762176 5.982536505716963 0 0 0
42 1 12.861861628043936 9.329474834146128 3.096173904907744 0 0 0
46 1 14.355469324672834 11.069308656164448 4.639859243385021 0 0 0
55 1 4.651964923926747 14.255266540384532 4.777837957248635 0 0 0
249 1 5.977235958821552 12.529105747551034 6.206600823018556 0 0 0
63 1 11.318821634595572 14.398082950386542 4.949579891022182 0 0 0
257 1 13.155462330636054 12.529896771954217 6.349472246768632 0 0 0
67 1 15.549508251572595 12.878167410327142 3.132185181644877 0 0 0
71 1 17.27896730831429 14.25594411068767 4.732579349968241 0 0 0
54 1 1.4775086141889477 17.67469788812485 4.561625831301133 0 0 0
244 1 3.1280678116297227 15.852963170801326 6.447707442966391 0 0 0
62 1 7.772814280284842 17.667990121974768 5.222042775151631 0 0 0
252 1 9.630450058956722 15.863615192405286 6.561814842100365 0 0 0
70 1 14.041688742553411 17.36616239357738 5.198255462126922 0 0 0
260 1 15.946498494068525 15.787527741395602 6.5031446601272025 0 0 0
79 1 5.037897140659833 21.016510904846555 4.744464065709764 0 0 0
87 1 11.220707224951179 20.707995856630866 5.062817231357191 0 0 0
281 1 12.638065221418692 19.117180069121265 6.829596982309103 0 0 0
95 1 17.245702738381233 20.683554809095735 5.122089807496504 0 0 0
78 1 1.430560559780669 23.272589727830386 4.678775342699431 0 0 0
82 1 6.716786725945176 22.562316687570537 3.1975216811364606 0 0 0
86 1 8.0670848417777 24.02922456556752 4.9509044432104545 0 0 0
276 1 9.5714239149989 22.38070186534033 6.748823367617385 0 0 0
94 1 14.137603982393404 24.422524108982465 4.690245840081625 0 0 0
99 1 2.6833634701949873 25.01511218282816 3.2669335697959174 0 0 0
103 1 4.428404064596704 26.94502613975075 4.587955978498264 0 0 0
305 1 12.503112729048782 25.963534447366015 6.393223205840889 0 0 0
105 1 6.137708301449676 25.62212417303217 0.4763282074975045 0 0 0
111 1 11.262006062634885 27.312121867224675 4.492904166945301 0 0 0
114 1 13.227496009345975 28.52646656456724 2.950165288235081 0 0 0
119 1 17.555360950452204 27.232328912914006 4.829284345108756 0 0 0
102 1 1.4722954096872334 29.785009464775428 4.689049360153042 0 0 0
123 1 3.031525991610561 31.91479577293878 3.5535631908944736 0 0 0
131 1 10.068832936511503 31.478783799662565 3.571319861572737 0 0 0
110 1 8.158954546152039 30.428332725874604 5.20065809496303 0 0 0
118 1 14.402201085509294 30.35585221784817 4.875536601124749 0 0 0
139 1 15.983906925214633 32.04756116807344 3.3948880700253325 0 0 0
316 1 3.2551884793322294 35.151412393794814 6.014381555107116 0 0 0
127 1 5.062000037368345 33.58342892231548 4.768691177515736 0 0 0
130 1 6.703143476324429 34.93273070862398 2.913638325693952 0 0 0
135 1 11.2370727130878 33.65468947240058 4.696988904934426 0 0 0
138 1 13.153524411372018 35.2773982958788 3.115282813201074 0 0 0
332 1 15.965506201677435 35.2247321435467 6.008351263686854 0 0 0
143 1 17.93401479890779 33.464623499499325 4.881700358646557 0 0 0
126 1 1.476076483621284 36.3931565477216 4.2296629570086735 0 0 0
345 1 6.212298118960243 38.14412713173613 6.575397191441057 0 0 0
134 1 7.746811788540096 36.73231306938139 4.669139499614693 0 0 0
353 1 12.76450420152062 38.355471923505846 6.376993616765817 0 0 0
142 1 14.552252070974276 37.303171553791145 4.694918859021378 0 0 0
163 1 16.12501532400628 38.38418152562406 2.540417745168245 0 0 0
172 1 3.433854031465179 47.35778367582931 0.3311553268692609 0 0 0
151 1 4.804179332543014 39.19228046162479 4.664923510333241 0 0 0
159 1 10.98418758610385 39.52105465521575 4.734929141841155 0 0 0
162 1 12.548922614916856 41.166629172281716 2.912680975392054 0 0 0
167 1 17.45294371361014 39.62300693117946 4.691720892707323 0 0 0
356 1 15.789076010000251 41.14926615817613 6.172452514130495 0 0 0
150 1 1.5284476301610825 42.28664853428903 5.024741392440592 0 0 0
50 1 0.09350645685129483 15.7669282673983 2.953468155062183 0 0 0
171 1 2.94337722091179 44.12131029522443 3.3971685616505822 0 0 0
158 1 7.97738063508902 43.24477595697486 4.806436149208716 0 0 0
179 1 9.49884127036278 44.698597793539435 3.1368806007207444 0 0 0
166 1 14.15156433534297 42.7596196509669 4.35727317099815 0 0 0
377 1 12.654223390620144 44.53977640669952 6.295299543438163 0 0 0
364 1 3.1966893071282785 47.58541274426405 6.273308713349784 0 0 0
175 1 4.508162197811543 45.744765322144374 4.673263670854955 0 0 0
183 1 11.018195985989347 46.416531848433294 4.600980886690884 0 0 0
372 1 9.348663979153024 48.154980677777914 6.234848412522141 0 0 0
191 1 17.16976075508937 46.4169122574872 4.779926724081897 0 0 0
174 1 1.554255057825001 49.25061928337311 4.67693708366564 0 0 0
178 1 6.395525689054854 47.369641163373714 3.0195375995553633 0 0 0
182 1 7.579543189805574 49.20867922456365 4.480744464828592 0 0 0
209 1 12.64956801955198 0.09175692466919386 6.249635408113347 0 0 0
19 1 15.93119622992323 50.78459476281438 3.2893385493545044 0 -1 0
190 1 14.056706882936133 49.492403082948826 4.765084639327279 0 0 0
197 1 1.0236826869351139 1.355894121240325 8.048652634213488 0 0 0
201 1 6.409270442866114 0.23665919495557353 5.919731046486329 0 0 0
205 1 7.855849899618075 1.7847655315005735 8.013378993105974 0 0 0
213 1 14.27047332606837 1.8809135771926029 7.622384086016458 0 0 0
196 1 2.5711030128722565 3.035737754733014 6.343098682764986 0 0 0
200 1 4.464118188378342 4.677736556025934 7.741361982999468 0 0 0
202 1 6.057797635195045 2.9293929109128247 9.145090244283654 0 0 0
208 1 11.06632810071111 5.038999785334944 7.747691249042496 0 0 0
212 1 15.779929486967976 3.458722624864886 6.2786005504880515 0 0 0
210 1 12.578869699786198 3.542093821340115 9.501565805223825 0 0 0
216 1 17.42911530333244 5.0521396005767425 7.68773201354009 0 0 0
804 1 9.586079560198474 9.250151467977652 25.03561353391367 0 0 0
221 1 1.831666352221859 7.774390022838776 7.910789836024687 0 0 0
225 1 6.329856448836404 6.13678479836636 5.95514720693646 0 0 0
229 1 7.969052555565037 7.798327901425401 7.741523930308637 0 0 0
233 1 12.596929919977718 6.404766907712752 5.8914498694312885 0 0 0
237 1 14.098597150055701 7.689287966521913 7.7045435251576535 0 0 0
224 1 4.529445865099176 10.925851791976115 7.763628841691496 0 0 0
226 1 6.468241297633582 9.415499249428853 9.098970971487683 0 0 0
232 1 11.09249360833421 10.859690091722394 7.542228784577707 0 0 0
236 1 15.937923139450408 9.68248674548608 6.194879968013577 0 0 0
240 1 17.573345001907043 11.306796906362196 7.775765419033071 0 0 0
245 1 1.56637244469696 14.253737957913486 7.715172334887566 0 0 0
243 1 2.8882918458146536 12.4646096697135 9.331057553087673 0 0 0
253 1 7.6661607950983175 14.243173526744084 7.681724975412148 0 0 0
251 1 9.550994886452914 12.580492114852023 9.066895603447213 0 0 0
261 1 14.606526242325364 13.8884566488747 8.028022286714425 0 0 0
259 1 15.905854362317184 12.332958945066537 9.81495928998514 0 0 0
248 1 4.6034815713547435 17.288871011501207 7.936798826239249 0 0 0
250 1 6.37649514949363 15.776707116046074 9.464843571614722 0 0 0
256 1 11.288445805783061 17.298783306192927 8.186612291767254 0 0 0
258 1 13.001093298967076 15.503094071008721 9.652095634445361 0 0 0
108 1 9.411044014388864 28.62623391666945 0.16522740774563544 0 0 0
264 1 17.845115542430175 17.38050885704647 7.842921865478552 0 0 0
269 1 1.7891508197096693 20.3875236775745 8.002632462133738 0 0 0
273 1 6.248328069050524 19.33463714689564 6.529793548037335 0 0 0
277 1 8.076417105713924 20.660231542147343 8.053079492044477 0 0 0
275 1 9.463790506154888 18.98345967308925 9.499828194117416 0 0 0
285 1 14.581286165474058 20.582515374751083 8.00948184336653 0 0 0
268 1 3.3593946570944486 21.899675645613755 6.317721879217371 0 0 0
272 1 4.6304902360509566 23.880005182373328 7.814486034732417 0 0 0
274 1 6.401324773431425 22.331501339959306 9.645767081783783 0 0 0
280 1 11.442516427847881 23.74096718489955 7.989064420718844 0 0 0
284 1 15.590261120176303 22.703106435825998 6.407486024078088 0 0 0
282 1 13.029376839511484 22.29330590902809 9.477913766216815 0 0 0
288 1 17.23210835388111 24.15055766299637 7.86539288985956 0 0 0
554 1 -0.003779597475075211 47.891983549251194 15.859618562149146 0 0 0
293 1 1.436469775485289 26.685554320650304 7.971067680278997 0 0 0
297 1 6.258432989104276 25.490697158051756 6.124759672651111 0 0 0
301 1 8.00906901479851 26.644716904934327 7.734911130094028 0 0 0
299 1 9.782329599953389 25.28403403936941 9.39125212845478 0 0 0
309 1 14.217362064303439 27.368014291593536 8.36292872940139 0 0 0
307 1 15.83050460722852 25.800883538545158 9.430243088003708 0 0 0
74 1 -0.04610048242692244 21.85581550910288 2.9972283468786762 0 0 0
292 1 2.8329098641497947 28.419510901528387 6.336772335867668 0 0 0
296 1 4.638021735712368 29.79849280107635 7.896060118026137 0 0 0
298 1 6.166540254617913 28.303679241242694 9.500527428494433 0 0 0
300 1 9.57884694990584 28.621821998328826 6.234105400455536 0 0 0
308 1 15.856899891258802 28.581550141228387 6.289199559307837 0 0 0
315 1 3.217405330610526 31.558680093794322 9.102621501210551 0 0 0
321 1 6.31836673325179 31.766697821825137 6.5569658521595 0 0 0
323 1 9.429313198083431 31.931424155681416 9.520206546450607 0 0 0
329 1 12.56255902557096 31.880654078699347 6.270189233533132 0 0 0
304 1 10.909220002500012 30.3107050015056 7.643549103456121 0 0 0
312 1 17.482850442460286 30.404566565093827 7.883939364336174 0 0 0
317 1 1.7680493997680762 33.31041128654448 7.512529761298476 0 0 0
322 1 6.210550167753847 35.04345426195252 9.502402302915295 0 0 0
325 1 8.029333161280157 33.47873305322517 7.775064071683044 0 0 0
324 1 9.398372906069605 35.085894640276734 6.100914492486295 0 0 0
333 1 14.37110465585544 33.609452251998064 7.848875043362853 0 0 0
330 1 12.730741030396315 34.97478610944307 9.448833813571259 0 0 0
170 1 0.022195350658307786 47.77490619149346 3.3058779938271434 0 0 0
320 1 4.685621987104504 36.46547662308147 7.920084707337516 0 0 0
328 1 11.29342858481099 36.44672732660415 7.7067505517693835 0 0 0
355 1 16.37499570362547 38.36264147161263 9.310036666696597 0 0 0
336 1 17.156187740555616 36.133836195085365 8.057161010603554 0 0 0
341 1 1.6533546296882484 39.26876347150839 7.827052211419995 0 0 0
340 1 3.3132284578392928 40.83806915799835 6.280264059064368 0 0 0
349 1 7.971013411134299 39.82609623618154 7.7774253931044885 0 0 0
348 1 9.408201266829748 41.287453874509325 6.098172773670265 0 0 0
357 1 14.19345396031864 39.93975520791122 8.202481648336772 0 0 0
363 1 3.3887451824605748 44.65480842624149 9.332016853736405 0 0 0
344 1 4.755117901257725 42.58726703041009 7.755790073852956 0 0 0
369 1 6.297604005067881 44.57277231382331 6.4620714248728035 0 0 0
352 1 11.238021936571455 42.79847050911101 7.833404418725874 0 0 0
371 1 9.587060265009365 44.64842030006494 9.38609350786408 0 0 0
379 1 15.672373114007847 44.570861775252226 9.273741944351393 0 0 0
360 1 17.492165988286096 42.83551807698825 7.677127563431832 0 0 0
365 1 1.4777070497205227 46.292123681073136 8.257462874587796 0 0 0
370 1 6.47776782271236 47.919041381320966 9.464807607749046 0 0 0
373 1 7.936474075602447 46.41826298015468 7.856651780557232 0 0 0
378 1 12.743218163028521 47.75667103887362 9.384796788767702 0 0 0
381 1 14.175547405006402 46.07674544920209 7.886681383948394 0 0 0
380 1 15.540101801213664 48.01119153491422 6.389555158537458 0 0 0
368 1 4.61176260024006 49.56121456794028 7.758599386548153 0 0 0
203 1 9.568894128171047 0.39082659657697916 9.69506205212259 0 0 0
376 1 11.08521862154334 49.48277474652775 8.119082487480124 0 0 0
211 1 15.84550288809084 0.39107783811295865 9.357308133603341 0 0 0
384 1 17.293597898998126 49.75756138927167 7.8529593959370185 0 0 0
199 1 4.88424178202066 1.4493150810744466 11.12841465206407 0 0 0
207 1 11.382769238234397 1.799654563673773 11.07994984431107 0 0 0
404 1 15.25442242066479 2.8677923769268028 12.529847957273159 0 0 0
215 1 17.419143998464428 1.5505152571804517 11.023219520935854 0 0 0
198 1 1.3348221707560821 4.581478395852589 10.965334613315969 0 0 0
206 1 7.835831467361821 4.644492015024959 10.736407513847265 0 0 0
214 1 14.21165994746725 4.878261362424839 11.236502679028783 0 0 0
219 1 2.995333018533073 6.135526833782669 9.435603763621753 0 0 0
223 1 5.04127592401766 7.820513366502405 10.638366114444223 0 0 0
417 1 6.565528475620265 6.408133240465965 12.512035101455677 0 0 0
227 1 9.495957864354656 6.434626814140002 9.317010865265525 0 0 0
231 1 11.241327838591552 7.990914607817855 10.955909443381879 0 0 0
235 1 15.818452124968365 6.327291955774463 9.31744989284134 0 0 0
239 1 17.44528642531553 7.870773872595451 11.214397629139935 0 0 0
290 1 0.14622552880586728 28.72694803370138 9.299110656539598 0 0 0
222 1 1.4302136787650235 10.71326963209276 10.814110420351986 0 0 0
230 1 7.757746683928969 11.493302426668729 10.572542074127728 0 0 0
420 1 9.455932808483047 9.861561076439763 12.179227516191848 0 0 0
234 1 12.938777539723912 9.495060397421241 9.530190762031976 0 0 0
238 1 14.318922440594049 10.652494589964926 11.563854552894878 0 0 0
247 1 4.405914735339283 14.337837475936283 10.771674574978439 0 0 0
441 1 6.258177572956205 12.954169243696457 12.567091341141557 0 0 0
449 1 12.5556674441256 12.51215366234693 12.87167428762213 0 0 0
255 1 10.983662067412824 14.086181202542841 11.049770012511072 0 0 0
263 1 17.235012594483365 14.472316317741594 11.269938192827675 0 0 0
246 1 1.234957129832263 17.14747131420267 11.20243801459805 0 0 0
254 1 7.988275403154336 17.24434007520148 11.219438387394884 0 0 0
444 1 9.647798988071397 15.780575563087059 12.556219365655286 0 0 0
262 1 14.27931585346722 17.673194409874313 11.031144518685911 0 0 0
452 1 15.79698666666877 16.172854713183398 12.921048767949916 0 0 0
338 1 0.07428992605544255 41.22845223059889 9.09233179508555 0 0 0
267 1 2.9120932401639004 18.749951774385185 9.725027659701457 0 0 0
271 1 4.600593390239497 20.64316323839648 11.069225282683558 0 0 0
465 1 6.694698613685683 19.16288325936561 12.512525141603568 0 0 0
279 1 11.051899034111944 20.887162285264264 10.886432623074478 0 0 0
283 1 16.223233225559223 18.93692859281014 9.346458545614306 0 0 0
287 1 17.514143692181822 20.586438325510834 11.192632632428019 0 0 0
809 1 12.835946895408172 6.203782530533389 25.167918976769506 0 0 0
270 1 1.416914535175532 23.835441491172453 11.040885402634473 0 0 0
278 1 8.273778086432673 24.08967987293276 11.076472793776746 0 0 0
468 1 10.106480198316858 22.67742840360038 12.643458085186799 0 0 0
286 1 14.679050256871404 24.164621362905063 11.114663607011867 0 0 0
476 1 15.831788887513278 22.35227839753574 12.480147032033528 0 0 0
291 1 3.1458465260359123 25.343785035858453 9.6690582147196 0 0 0
295 1 4.827810209642481 27.06265774431104 11.145581697716528 0 0 0
497 1 12.90855917529725 25.331827384304553 12.876867596327287 0 0 0
311 1 17.322766713055117 27.504814183871815 11.05487725023758 0 0 0
484 1 3.3474276434683214 28.798775624241145 12.829499960192061 0 0 0
303 1 11.01233006700431 27.251973752660636 11.198369048845098 0 0 0
492 1 9.409519902480232 28.846237827268016 12.699323143320898 0 0 0
306 1 12.489521604781704 28.87377690918881 9.34355931475453 0 0 0
500 1 15.814274517249633 28.744312829805924 12.896441496471617 0 0 0
767 1 17.357128801126926 46.02096996304627 23.99077352179327 0 0 0
294 1 1.726730227566116 30.130375955728333 11.061862161999386 0 0 0
513 1 6.9471714463854 31.788776879073158 12.406642750068766 0 0 0
302 1 7.964138575108455 29.86958220518498 10.812828443407424 0 0 0
310 1 14.310904802244218 30.21921044034387 11.31333921467276 0 0 0
521 1 12.523720629705462 31.789005686312116 12.597883854426053 0 0 0
331 1 15.686748663614958 31.93687402237295 9.61871556600458 0 0 0
759 1 10.951462453118426 46.49348645821756 23.743518213761558 0 0 0
319 1 4.86269837110071 32.98402271357088 11.016548994476187 0 0 0
327 1 11.0147818169733 33.65467678597331 11.07159380015498 0 0 0
516 1 9.412013304719336 35.10305390495027 12.837907718502665 0 0 0
524 1 15.641658698125884 34.75902757999049 12.603605948807811 0 0 0
335 1 17.37057573310317 33.07609499886982 11.430786353600908 0 0 0
339 1 3.3440855265247285 37.944748293459256 9.564552851426408 0 0 0
318 1 1.4162160880168884 36.59311683061267 11.146312562896446 0 0 0
537 1 6.16140941199846 38.14067817948579 12.784784514956625 0 0 0
326 1 7.778462044106271 36.52126975434038 11.094811641861142 0 0 0
347 1 9.760101134647877 38.02374890560429 9.44846109702731 0 0 0
334 1 14.201452061763211 36.713342645585726 10.942557531474732 0 0 0
751 1 4.517020137937252 46.173042683974174 24.040910820028156 0 0 0
532 1 2.768481629541133 41.619276473487076 12.698868895043683 0 0 0
343 1 4.552505922317667 39.73659196054162 11.223951734590711 0 0 0
346 1 6.167449551385512 41.26905825612657 9.515361048682271 0 0 0
351 1 10.821759686048187 40.04093271665984 10.925056061878688 0 0 0
354 1 12.66482038364698 41.67373253862266 9.706004988212614 0 0 0
359 1 17.762592250118562 40.06314157535485 11.001837098336038 0 0 0
548 1 15.58061218156362 41.26379250545389 12.200771565341618 0 0 0
754 1 6.0788226114719475 47.802074427660045 22.45808430393047 0 0 0
342 1 1.2120485605644549 43.07158257558696 10.623278178834324 0 0 0
350 1 7.8319257091342145 43.17771730996536 11.19201680102595 0 0 0
561 1 6.489998497190017 44.904430228650426 12.698445260540048 0 0 0
569 1 12.311501656139656 44.863678640231214 12.860491566729044 0 0 0
358 1 14.22734281332957 43.448665602024235 11.176968666969405 0 0 0
556 1 3.2200871145249383 48.17268483611721 12.648657949789136 0 0 0
367 1 4.750968269791807 46.332943779765586 11.122368558462947 0 0 0
375 1 10.87576237383092 46.41200640612141 10.949241310845304 0 0 0
383 1 17.342112647409156 46.088865108765404 11.124380526269869 0 0 0
195 1 2.916262281327686 50.739702833368945 9.546825242078736 0 -1 0
366 1 1.2250593992716488 49.426339263477786 11.289962493724207 0 0 0
374 1 8.04499626448506 49.43938785728642 10.956890827157588 0 0 0
401 1 12.957945202456399 0.08011325143156595 12.845752693293798 0 0 0
572 1 15.603667013106323 47.73967101302185 12.82824898351587 0 0 0
382 1 14.399242194265417 49.649188701816996 11.092676461884123 0 0 0
506 1 0.2819277395858176 34.84117006644435 15.489080599892414 0 0 0
389 1 1.291722270701234 1.5057443207766121 14.278567179905524 0 0 0
387 1 2.891674099897947 -0.05651037935581088 16.04610533550307 0 0 0
397 1 7.915212149629838 1.071995975782242 14.132713384411822 0 0 0
396 1 9.365098812850615 2.8829767585196615 12.334721176938546 0 0 0
405 1 14.05363490853853 1.7075476490497723 14.749152834780798 0 0 0
403 1 15.660960696828324 50.9270013363309 16.187186767033566 0 -1 0
388 1 3.2253116959287773 3.033116843187894 12.559848895154241 0 0 0
392 1 4.827655416932577 4.630620543569401 13.889319945383017 0 0 0
394 1 6.135840830462995 2.6617453968472358 15.665994137855082 0 0 0
400 1 10.672249911157651 4.5341716990780885 14.239721134265992 0 0 0
408 1 17.09349370339491 4.55733347623881 14.089496287457422 0 0 0
413 1 1.7032649047216453 7.600652686342638 14.021979666303851 0 0 0
421 1 7.916726509239707 8.157883855914474 13.867756713905596 0 0 0
419 1 9.081934237541946 6.471983339568632 15.559401033698121 0 0 0
425 1 12.463144666617472 6.306290099852592 12.667825255391621 0 0 0
429 1 14.109286495854231 7.493636680804612 14.345668369590072 0 0 0
427 1 16.03738333382733 6.167369560642479 15.82435361581243 0 0 0
412 1 3.0672036361449146 9.44942882044843 12.299349123375723 0 0 0
416 1 4.70542017401869 10.905627575866305 13.918195249979476 0 0 0
418 1 6.2156859260590265 9.611172599438918 15.84693300261616 0 0 0
424 1 10.771370390333248 10.944690413578662 14.315012048483641 0 0 0
426 1 12.47832484244191 9.13403023610304 15.655634835704072 0 0 0
428 1 15.900591714396883 9.080186351031916 13.022995116249954 0 0 0
432 1 17.46400611537124 11.368381422170355 14.404452712069 0 0 0
437 1 1.6192553309136462 14.386725891142802 14.042739329223497 0 0 0
445 1 7.847444829001382 14.446423835149773 14.34831541324647 0 0 0
453 1 14.161353815969756 14.367686649553079 14.415892170135226 0 0 0
436 1 2.948102943135141 15.86713531158651 12.629685393587593 0 0 0
440 1 4.743263791513906 17.87335997297794 13.715565610058444 0 0 0
442 1 6.07810611487993 16.13719232648558 15.579615374912303 0 0 0
448 1 11.341487924248709 17.280546053605978 14.004054913606641 0 0 0
450 1 12.651907164392254 16.03508810570417 16.150740870624105 0 0 0
456 1 17.48361115976429 17.549074591930523 14.368485298457887 0 0 0
459 1 3.025967646616473 19.274958766679607 15.347036444821812 0 0 0
469 1 8.29708436718668 20.88390950960491 13.949257021179365 0 0 0
467 1 9.81813800424843 19.198278030072863 15.268903753007315 0 0 0
473 1 12.70431458256675 19.323784989727965 12.549850476021863 0 0 0
477 1 14.489615125854087 20.73354017012434 14.2076445203778 0 0 0
475 1 15.903367529524726 19.15580512816209 16.20027839567171 0 0 0
721 1 0.43670248883840035 38.142121174641204 19.075530344680587 0 0 0
461 1 1.4732828889081822 20.87521855880586 14.087456151883456 0 0 0
460 1 3.1323531753668292 22.318070456073734 12.59714111534961 0 0 0
464 1 4.801870945033707 23.711878521838468 14.37256889872484 0 0 0
472 1 11.11262780247278 24.30046845462313 14.521114035911085 0 0 0
474 1 12.6252263554736 22.449302601767645 15.407185671090302 0 0 0
763 1 15.716907538721582 44.57528522270964 22.25824538467296 0 0 0
489 1 6.637145272357828 25.47779567822236 12.848414296382336 0 0 0
501 1 14.089511631745655 27.123610177836103 14.464632652755089 0 0 0
480 1 17.474692886742798 24.125140002051214 14.491777492500347 0 0 0
499 1 15.875433652206574 25.510889081086574 16.030641168321214 0 0 0
485 1 1.6587467747981528 26.75156728999672 14.218974354891458 0 0 0
493 1 8.030173074360164 27.201670097084463 14.325517625515076 0 0 0
498 1 12.548076181505447 28.910795574969406 15.886940924380836 0 0 0
9 1 6.4284375228805395 0.0824218512102792 -0.0030029985918727936 0 0 0
488 1 5.1944583601048055 30.36234224534402 13.887213190834824 0 0 0
507 1 3.703270831146989 31.85676925893129 15.444525435027481 0 0 0
496 1 10.908964235800891 30.49565288046236 14.241046805713284 0 0 0
523 1 15.964800566577942 32.1037315778791 15.914098564771542 0 0 0
504 1 17.413403982499066 30.409480078913937 14.448136581277524 0 0 0
505 1 0.10905246373413269 31.654325155469923 12.37561670097617 0 0 0