LAMMPS data file via write_data, version 29 Oct 2020, timestep = 100000

8519 atoms
1 atom types

-0.17700940119496522 104.8069599911152 xlo xhi
-0.24796050063655528 51.315363718706266 ylo yhi
-0.24796050063655528 51.315363718706266 zlo zhi

Masses

1 18.015

Atoms # atomic

55 1 -0.17060753817290628 48.96915824035999 1.167577268955441 0 0 0
91 1 4.819214545327657 2.557507608333356 2.8798257290997045 0 1 0
164 1 3.2231449035829614 0.21696813615120697 1.5379602897874516 0 1 0
779 1 9.270689486148951 0.707021246780159 1.1463330663430848 0 1 0
93 1 10.901906265496004 2.4521365516013254 2.7339821519110123 0 1 0
765 1 15.565389631415234 0.5512051674698553 1.1967391565366987 0 1 0
881 1 24.064995942692615 2.5557410297735603 2.9093622102284664 0 1 0
2791 1 22.14841985465889 0.7073511850214382 0.7095748155630893 0 1 0
883 1 30.231051976012466 2.2186336230636883 2.6864584235545306 0 1 0
2774 1 28.463287100204916 0.7594426292648317 0.5105620432004362 0 1 0
2792 1 34.508852919052885 0.6714152722742596 0.6647014252658374 0 1 0
730 1 -0.0941627241455793 4.380627790295731 1.3545935404267246 0 0 0
1 1 1.6012354159299313 5.959296905644261 2.753965336216069 0 0 0
436 1 6.222691264587253 4.426581920401759 1.2032481697189785 0 0 0
4 1 14.369934432739784 5.735129418245858 2.539860167346119 0 0 0
1736 1 12.65789451524818 4.546173978265408 0.474378976770517 0 0 0
1017 1 19.03787572632442 4.317671348861847 1.380054608552358 0 0 0
796 1 20.450451285121538 5.95619656663841 2.8385000588711553 0 0 0
798 1 26.894721489178842 6.157846231024299 2.5150842613587763 0 0 0
2781 1 25.42382484443925 4.346257184999687 0.5053191256134942 0 0 0
1402 1 31.43853988643986 4.745191670257087 1.4916194708026205 0 0 0
784 1 3.1261492972930083 7.394951215153378 1.1800810188173683 0 0 0
6 1 4.667797005784297 8.966452054794974 2.574963635302227 0 0 0
59 1 9.070394284182747 7.607750200362163 1.3024297796456639 0 0 0
8 1 11.09143237033769 8.731404370612715 2.7552682044083765 0 0 0
489 1 16.305804037919348 7.267186938787556 1.1556032654005732 0 0 0
10 1 17.55676284230872 9.142512859111564 2.694496394483338 0 0 0
2786 1 21.98854652208562 7.3824437213154654 0.6344151166515132 0 0 0
802 1 23.615983950625047 9.151322375075706 2.8155209375329595 0 0 0
2776 1 28.453376908960582 7.695105722226422 0.3521963193501866 0 0 0
799 1 33.08255950988709 6.506476679592058 2.857551842468301 0 0 0
1111 1 21.97932352909197 48.733672457458454 23.37011879079382 0 0 0
755 1 6.320692309974247 10.707686769287957 1.2662697832768215 0 0 0
1652 1 12.62316437786667 10.250789891721709 0.6263712208355645 0 0 0
15 1 14.174383439404032 12.150518171533324 2.6037646051314316 0 0 0
1229 1 19.25304002506298 10.57058105959958 1.1819074400313834 0 0 0
2793 1 25.473220620822605 10.635264041476583 0.689741670150802 0 0 0
804 1 29.828733798434072 9.234529968474357 2.5238251799948372 0 0 0
2729 1 31.238640781928602 10.836361442927666 0.35248326652337625 0 0 0
11 1 1.16821314241619 12.264552493386804 2.662338571779384 0 0 0
27 1 3.268778945812483 13.836858357209442 1.4021665790979143 0 0 0
13 1 8.175802788719437 12.379152499423096 2.636183003430273 0 0 0
781 1 9.709149524135675 13.958154226441449 1.1563380787220665 0 0 0
66 1 15.986300529993944 13.768739076139642 1.2723617196410317 0 0 0
807 1 20.41864373869104 12.506883592546785 2.5756100795028876 0 0 0
797 1 22.128517335713198 13.802719855985876 1.2339440141484743 0 0 0
808 1 26.649923722715243 12.391938219227548 2.925243401066158 0 0 0
1400 1 28.324397261451715 13.942088834590733 1.2899755715681767 0 0 0
810 1 32.978365143046894 12.314452996311472 2.556244903724118 0 0 0
3137 1 34.766651270723415 14.040244362576765 1.476753108713027 0 0 0
1985 1 0.2093043853756057 17.087127179464236 0.3004308230762268 0 0 0
18 1 4.679601163083583 15.80559188180349 2.7695882335346282 0 0 0
745 1 6.772822925078859 17.062146248710327 1.6501754822662829 0 0 0
732 1 12.469304072175621 16.781420038401958 1.226424048664045 0 0 0
22 1 17.135072117859487 15.459537481079538 2.8317964763738734 0 0 0
801 1 18.909118681125204 17.172214904572012 1.2453512849766044 0 0 0
811 1 23.72566472250418 15.625882619851778 2.868752755946666 0 0 0
1357 1 25.18119036409771 17.241385707377663 1.1688742046853917 0 0 0
814 1 30.018760658525206 15.775274361762701 2.8606883481137046 0 0 0
963 1 31.954923266925476 17.23310470807846 1.2643718952750866 0 0 0
23 1 1.5310259910003694 18.551353629689086 2.810265494604312 0 0 0
522 1 3.07307664929918 20.207873691612676 1.378445242529343 0 0 0
86 1 9.349889586746615 20.098068535599822 1.2798617850882348 0 0 0
28 1 13.862579130502752 18.910131507556734 2.694520430511459 0 0 0
1743 1 15.553988394863946 20.484192757750076 0.5566372697192177 0 0 0
816 1 20.61414641184634 18.96015868365308 2.6734340019768292 0 0 0
2548 1 22.46108214700582 20.160488887091446 0.5622058193785398 0 0 0
818 1 26.649618037653713 18.718652971286687 2.693085353434546 0 0 0
1399 1 28.26351659511547 20.374515153456084 1.394285442548314 0 0 0
820 1 33.328068019604586 18.970180597052405 2.8770970014320763 0 0 0
1646 1 -0.14479005067630663 23.082717690907945 0.38571444191653403 0 0 0
682 1 6.3778036323972636 23.34590700432125 1.528943743733999 0 0 0
731 1 12.303633642223847 23.570304355104422 1.4264225680147151 0 0 0
884 1 18.887288866632918 22.939813597343374 1.643310726520465 0 0 0
822 1 23.738393030272338 22.132684825651232 2.321133878296688 0 0 0
2706 1 25.52520188004028 23.826049291875506 0.2936902457800248 0 0 0
824 1 30.276190462359672 21.900666217608848 2.4690596529664037 0 0 0
2187 1 32.1324154425557 23.123932189636133 0.29894003773641 0 0 0
34 1 1.2782098346416524 24.806650432746267 2.4242805195700945 0 0 0
740 1 3.2420414629408496 26.319197965360637 1.209347571640803 0 0 0
703 1 9.19618032717939 26.622019961984087 1.4106638136888265 0 0 0
1624 1 15.543275068972825 26.19540980333375 0.6511262494392053 0 0 0
833 1 20.137573842405907 25.2155644927739 2.6607733962560505 0 0 0
1410 1 22.25747613540517 26.37874048738274 1.1731209543678704 0 0 0
830 1 26.663425968657055 25.422439831489967 2.427356707529869 0 0 0
2266 1 28.61803435654382 26.66515810684625 0.24913790227616295 0 0 0
837 1 33.50881697618449 25.198109026159592 2.1426641742005077 0 0 0
41 1 4.253215013275986 28.25345288101161 2.94786561114357 0 0 0
141 1 5.931480222824462 30.008610733480737 1.6833737628308834 0 0 0
2136 1 7.953666670162839 28.545261504808888 -0.12934870986254596 0 0 1
43 1 11.13613781370518 28.07472705861304 2.9326473066500376 0 0 0
632 1 12.51768299050391 29.75112605943466 1.212233966756671 0 0 0
45 1 17.356403988015124 27.683013893057367 2.587490056686231 0 0 0
2751 1 18.950374164868805 29.13799684156718 0.5168017933732314 0 0 0
841 1 23.571249262134863 28.295808364394478 2.4362809355510295 0 0 0
2732 1 25.32361782506257 30.206370700716555 0.4986100617661904 0 0 0
836 1 30.08906477788343 28.675125451355186 2.3711336256681634 0 0 0
2734 1 31.88360245421368 30.056182345968644 0.47947448088290423 0 0 0
46 1 1.2108280544808792 31.292067123298406 2.8704874622001384 0 0 0
739 1 2.73570841020822 32.96570648480244 1.2644224692127104 0 0 0
220 1 9.210240776417171 33.01769913439199 1.371757381293952 0 0 0
49 1 14.409547783823704 31.162082314352435 2.767350360921892 0 0 0
1468 1 15.786281826715522 32.77546502968464 0.6236811337844089 0 0 0
845 1 20.058005889193744 31.049957511521626 2.418387110794432 0 0 0
1408 1 21.850317157599665 33.079558667950565 1.2740006055675883 0 0 0
846 1 27.01254638488942 31.42313065019002 2.6454234385063877 0 0 0
2402 1 28.231669563922537 33.251441766761644 0.5059308958600428 0 0 0
848 1 32.96590159416791 31.954876117801145 2.3369048030197255 0 0 0
633 1 5.914453983333329 36.05963338819332 1.5945887584578369 0 0 0
58 1 11.165841285575066 34.38966838410941 2.9599652543387394 0 0 0
79 1 12.660794276399702 36.116715908974186 1.3489356789195874 0 0 0
60 1 17.131011884572963 34.7650353237464 2.755927198603428 0 0 0
943 1 18.98802217320491 36.101649520801786 1.1342871284904408 0 0 0
851 1 23.456313436908548 34.94205046011611 2.553165730942356 0 0 0
1407 1 25.342867283729255 36.406214739739696 1.2386899263710773 0 0 0
852 1 29.683110881274445 35.044225986914554 2.6769652797925882 0 0 0
56 1 1.3738501610071268 37.324079845254246 2.7287583986676562 0 0 0
540 1 2.7761526659802054 39.33382842290257 1.2065299868749841 0 0 0
752 1 9.887329741826884 39.42217927119721 1.3711115150272775 0 0 0
65 1 14.323808664432928 37.96393193886354 2.6375511637541686 0 0 0
74 1 16.115879633535798 39.3880472703995 1.2807537768462056 0 0 0
853 1 20.35425476808327 38.20252363158579 2.586102453191818 0 0 0
855 1 26.728552124550706 38.12212717459755 2.748972757222881 0 0 0
917 1 31.56806063191527 36.67414805970712 1.2350165403561455 0 0 0
857 1 33.13026009288896 38.240636626619164 2.757728989168592 0 0 0
67 1 4.824926686682624 40.74871102617878 2.3791159650483995 0 0 0
69 1 11.315877926683942 41.03125760937118 2.79976039085559 0 0 0
1754 1 12.677877392136455 42.177028380263366 0.5997367807496946 0 0 0
71 1 17.66105791967544 41.05026616805495 2.8075605942058486 0 0 0
2584 1 22.19250272524318 39.65808929664374 0.5336937783321779 0 0 0
859 1 23.90601808537728 41.3133523622306 2.587264723645592 0 0 0
2778 1 28.208084560640277 39.68841030025612 0.5736542032563093 0 0 0
862 1 30.23466481089633 40.965798608276046 2.44430756015251 0 0 0
73 1 1.6578529928566796 44.125208867267816 2.855209757272879 0 0 0
1045 1 28.29636126732579 48.84340643487488 24.13561598104775 0 0 0
1807 1 6.425586314454858 42.80798449473235 0.6385905178467449 0 0 0
75 1 7.79379540068327 44.06659306527895 2.825523303821901 0 0 0
78 1 13.949339575808134 44.05313298481278 2.3070148555886667 0 0 0
2236 1 18.898745400658374 42.77183901172047 0.6532551350752211 0 0 0
864 1 20.589764629599728 44.05311980611883 2.768208496892168 0 0 0
2228 1 25.481058496920955 42.894888132683505 0.6289503451915438 0 0 0
866 1 27.14413105705896 44.12066190471249 2.9433359200134555 0 0 0
2757 1 28.61923116705882 45.36023199577146 0.5195148879160457 0 0 0
2783 1 32.216832563679894 42.66066564433251 0.645750701768632 0 0 0
869 1 33.43588809373464 44.48864089095635 2.6823290194816733 0 0 0
735 1 3.276015648911425 45.89926106468491 1.3547097662687178 0 0 0
1832 1 9.05786687141739 45.7293395951917 0.6746874912965853 0 0 0
458 1 6.358976823297683 48.54084483442688 1.3249827607185243 0 0 0
82 1 10.768368497432038 47.42920933933057 2.6403940503304884 0 0 0
9 1 15.841456634560625 45.781911042391 1.2302097888730315 0 0 0
83 1 17.497495119945963 47.608359450928745 2.648109752187399 0 0 0
854 1 22.05443998621948 45.732860598827614 1.2355128807521742 0 0 0
871 1 23.458087839784515 47.51874208722036 2.667369552114566 0 0 0
875 1 30.061488519988426 47.39276956088908 2.4738577468646783 0 0 0
2200 1 34.65610669041085 45.88691630818563 0.3991914767687793 0 0 0
85 1 1.2090773967785404 50.447276831135 2.846869426206047 0 0 0
3179 1 0.009597812442932646 49.15747505688553 20.060775570331742 0 -1 2
87 1 7.812039186736564 50.5105119067121 2.642622438709523 0 0 0
780 1 12.301718430564442 49.12170051434033 1.400466646014889 0 0 0
89 1 13.679837504257247 50.80106366123037 2.8023754609742477 0 0 0
2787 1 18.882822859104753 49.128460005618834 0.5987595361490788 0 0 0
876 1 20.43085565060323 50.708057827619825 2.593795892701979 0 0 0
1118 1 25.27449668060976 48.749850671692286 1.3862920981422742 0 0 0
878 1 26.89851054559301 50.69360191000432 2.632310244424268 0 0 0
2789 1 31.570237791830326 49.000933300463814 0.6233618440465915 0 0 0
879 1 33.36568564478917 50.45629352714954 2.592550794087374 0 0 0
182 1 1.3404309042266551 2.1129407062475187 5.890944232859268 0 1 0
3053 1 34.76951533974026 49.3106673252358 23.432688451687444 0 0 0
184 1 7.375704638318527 2.0709311409304236 5.694426467508591 0 1 0
183 1 6.189724886568706 0.2288452748979885 4.230797970266172 0 1 0
90 1 12.415354348535782 0.8769380198497658 4.3584722265510605 0 1 0
187 1 13.863602818835147 2.355125209785055 5.9792378738859995 0 1 0
95 1 17.57628427509938 2.0849498444875056 3.054332419597099 0 1 0
959 1 20.52385270630134 2.1797224987946167 6.000717690376645 0 1 0
1401 1 18.944761560402583 0.5078225658161333 4.540649297972813 0 1 0
882 1 25.042526094093287 0.3851318263889252 4.213416770423763 0 1 0
961 1 26.612281003399893 2.0738172883897548 5.899167924098476 0 1 0
962 1 33.105661478444354 2.533446913635834 6.049884361707955 0 1 0
958 1 32.0061665857639 0.7760000715338662 4.171631411742635 0 1 0
96 1 2.8935513930969035 3.3756237839143792 4.19896501216715 0 0 0
97 1 4.059329102285558 5.736409964819136 5.912484537900936 0 0 0
2 1 7.544950606741182 5.956685912742528 3.1504524273741255 0 0 0
3 1 9.188479650408436 3.8358859029045957 4.527400905933174 0 0 0
99 1 10.984245173310867 5.785107588948506 6.071447986070947 0 0 0
186 1 15.741198723445333 3.649458415781045 4.501046056348142 0 0 0
100 1 17.086906200594758 6.001172710024545 6.014585208864095 0 0 0
885 1 22.352862404265572 4.432521257513384 4.62114707594953 0 0 0
886 1 24.06028696414114 5.894272458199164 6.028179952360022 0 0 0
887 1 28.191815958096186 4.290660755681799 4.311873057711206 0 0 0
888 1 29.82684024178202 5.885984713748374 5.818223356505855 0 0 0
889 1 34.57097277816253 4.399106586569362 4.386279626260872 0 0 0
101 1 1.199521770662839 9.118159883714798 5.633080062555384 0 0 0
7 1 5.669022182868403 7.418923676122786 4.5054897803438285 0 0 0
102 1 7.791821204843653 8.676983910313544 5.731031713300934 0 0 0
5 1 12.63207161802019 7.258009053131285 4.370382028582106 0 0 0
913 1 18.997960450010805 7.686869790267182 4.438890730057768 0 0 0
891 1 25.33534557840574 7.611798092250163 4.38692165169999 0 0 0
892 1 27.175187867983368 8.928421600549102 5.993808568501395 0 0 0
805 1 31.449806515279437 7.789319238422044 4.292400809427996 0 0 0
894 1 33.19684708839325 9.035169200827221 5.775420385506086 0 0 0
105 1 3.0038013379432114 10.508016957898542 3.8374093630808197 0 0 0
107 1 4.512562341252702 12.027620255733337 5.547166013267509 0 0 0
103 1 9.373878090736945 10.35756611149084 3.983129285591092 0 0 0
108 1 10.547859641344363 11.967954735475761 5.520212169772858 0 0 0
104 1 14.204352715131224 9.28865202914513 5.688976933635091 0 0 0
16 1 15.824267661030749 10.67451931904991 4.1769621881405286 0 0 0
890 1 20.54059023845831 9.485122794947076 6.161937238969025 0 0 0
896 1 22.121892644431526 10.91579980086868 4.367450228507661 0 0 0
897 1 23.903069780228055 12.239143883260093 6.006507560405112 0 0 0
809 1 28.364971441924762 10.899686440805834 4.32559325564291 0 0 0
3316 1 34.809581859872345 13.997081066940762 20.282507597490252 0 0 0
692 1 -0.14864810045216242 13.777972259896906 4.5438151307749495 0 0 0
19 1 6.198586276645797 13.732056806433743 4.157979488558593 0 0 0
115 1 12.666777368300814 13.688959878638148 4.307561283595056 0 0 0
109 1 16.942295951069468 12.4203226979903 5.5507719291255695 0 0 0
764 1 18.826289647837246 14.120616382937502 4.144551372356628 0 0 0
813 1 25.38701416122406 13.993026565296816 4.5550592228909395 0 0 0
901 1 27.022137137945606 15.147932103861768 6.1670275953151075 0 0 0
815 1 31.574522311175592 13.876638741810236 4.274066954303945 0 0 0
111 1 1.3549339737908828 15.371671512285024 6.161993492035661 0 0 0
24 1 2.7385021778713514 16.967583080233897 4.424909903119009 0 0 0
113 1 7.469830764177843 15.324586769265991 5.866772868339787 0 0 0
20 1 10.999548459082993 15.425832303144091 3.1556048111367714 0 0 0
26 1 9.437798265028366 16.96855215216625 4.527530409229782 0 0 0
116 1 14.16286039421597 15.431677096089635 5.853804944137752 0 0 0
121 1 15.358878180444794 17.24353363947049 4.343632241176864 0 0 0
900 1 20.850730781615216 15.386162990267465 6.04439861299932 0 0 0
817 1 22.090884555197285 17.03283609724712 4.162854492025894 0 0 0
819 1 28.278694556964847 17.04100388035907 4.228178483117016 0 0 0
902 1 33.21390661048811 15.384513141734661 5.785991332693159 0 0 0
171 1 -0.12273856924246376 20.137081988173154 4.164619030066224 0 0 0
117 1 4.443274549411087 18.622915011252278 5.99201232765271 0 0 0
30 1 5.838206368785103 20.604269160482325 4.632081542713002 0 0 0
25 1 7.477917015867137 19.003476615642946 3.4438668804738346 0 0 0
119 1 11.121180122306379 18.765968108333517 6.164038886257645 0 0 0
32 1 12.439178392845859 20.556891479084573 4.457306454903799 0 0 0
122 1 17.091203438707463 18.623593704480633 5.946678714093237 0 0 0
835 1 19.100860353520744 20.516522870345806 4.484664212591882 0 0 0
905 1 23.77482297225272 18.663755029314302 5.665832530310634 0 0 0
910 1 25.252167455468594 20.701980564159527 4.01498275993307 0 0 0
907 1 29.83672585401845 18.726585459086827 5.849115617399724 0 0 0
827 1 31.52507513749908 20.2775978503043 4.138025754612635 0 0 0
123 1 1.263557270084042 22.04801332132522 5.775441877221183 0 0 0
35 1 2.956760113127456 23.764441919280504 4.456546259276188 0 0 0
29 1 4.545156937955421 21.902084484202415 3.048078593504196 0 0 0
31 1 10.528124608776528 21.935966134545534 3.0170901035238353 0 0 0
37 1 9.33668928127554 23.356043339001605 4.7406712772666095 0 0 0
39 1 15.364914246228967 23.476274559341373 4.926407138911349 0 0 0
33 1 17.029584191113216 21.66950017544559 3.310498531340186 0 0 0
908 1 20.77590794037656 21.966565092965123 6.023803598891364 0 0 0
829 1 22.098936533059273 23.428371070290595 4.277104913233447 0 0 0
911 1 27.0843824315629 22.07979768610811 5.67274115791748 0 0 0
831 1 28.784492476278935 23.741114899073104 3.831491513192918 0 0 0
912 1 33.08530619269942 22.07183703451676 5.719696815534302 0 0 0
129 1 4.829846364695418 25.395364664908474 5.958583126161358 0 0 0
36 1 7.857036135387123 24.932287750872298 3.053485138292195 0 0 0
134 1 6.511518343622087 26.943732283872553 4.40907702167854 0 0 0
38 1 13.850762790814404 24.902796977646464 3.0201665271350593 0 0 0
44 1 12.780996521753275 26.689946623579353 4.544984522082323 0 0 0
770 1 18.79715732610474 26.42876820444587 4.490904668834919 0 0 0
914 1 23.41838099709202 25.146623212767977 6.106220265080758 0 0 0
834 1 25.028551157783163 26.80910414266409 4.365423140238568 0 0 0
920 1 29.919466409257804 25.46463961791944 5.6427796007357705 0 0 0
921 1 31.657171899874502 26.67637098702344 3.755445840501894 0 0 0
133 1 1.2165314095060833 27.655182446921682 5.892785538406422 0 0 0
138 1 2.4714105677467826 29.40059275317646 4.478603945417723 0 0 0
135 1 7.8640542843390815 28.413071242023822 6.165365633602279 0 0 0
48 1 9.589005075699754 29.90703392508039 4.562975841838934 0 0 0
137 1 13.944633987605833 28.8070225937281 5.904275045638538 0 0 0
50 1 16.195781812031647 29.845548456603506 4.345185229499601 0 0 0
923 1 20.501855612246686 28.187184577071 6.118968765471781 0 0 0
839 1 21.7870113341621 29.605779887750973 4.264792636053277 0 0 0
925 1 26.438151036633172 28.334529756257332 5.64602923632835 0 0 0
842 1 28.467816325607746 29.98710359166678 4.259534856498222 0 0 0
922 1 32.81700289225558 28.63955115045758 5.488669299923227 0 0 0
844 1 34.31189528627876 30.18820161006123 3.96691407106532 0 0 0
139 1 4.219343186672691 31.333705121936173 5.801815660899772 0 0 0
54 1 7.698551455724689 31.50320426059929 3.194599658542557 0 0 0
53 1 6.230622418964465 33.09158513582507 4.726293885275019 0 0 0
142 1 11.064270390915679 31.70140923058559 5.706606321681619 0 0 0
143 1 13.033017708914473 32.91776643964559 4.161310689457481 0 0 0
144 1 17.36805514307828 31.621484036840616 6.043543976690301 0 0 0
754 1 18.80918158058435 32.95256756107415 4.025741261349937 0 0 0
928 1 23.423053769830915 31.529052323730152 5.660181460256755 0 0 0
847 1 25.069092938649597 33.12251549394287 3.931581146658943 0 0 0
926 1 30.03518744817101 32.05017599686127 6.049605408317389 0 0 0
929 1 31.33846380105373 33.38955755992146 4.18879821822028 0 0 0
145 1 1.258335425831918 34.17839510046207 5.903076582805543 0 0 0
146 1 2.8201500926734746 36.31171106533036 4.765708592654391 0 0 0
52 1 4.528988071333165 34.4820929017076 3.3074297111577926 0 0 0
147 1 9.869119840339945 35.874976497218825 4.783494691144779 0 0 0
149 1 14.209669602762576 34.75018390100554 6.089872885741766 0 0 0
150 1 15.79399677522897 36.44469649017596 4.606770502349422 0 0 0
930 1 20.80510988310986 34.44338418819392 5.526971877900037 0 0 0
932 1 26.44974073173453 34.3304773363257 5.677954663159429 0 0 0
933 1 28.374761194806464 36.29924898731069 4.657261993558645 0 0 0
934 1 32.93541788942819 35.0090453582299 5.79742415879236 0 0 0
3470 1 34.809829744044976 0.6897317105484991 19.932390201347136 0 1 0
152 1 4.853989206702642 37.9831096105402 5.982850389126011 0 0 0
62 1 8.176699017525896 37.446558642343405 3.0138527628975926 0 0 0
153 1 6.497852483288299 39.33464757053518 4.124723191435051 0 0 0
154 1 11.039295719775119 38.05448825946017 5.911029285652486 0 0 0
157 1 17.74733652777542 37.864107293624656 6.096046858348591 0 0 0
850 1 21.985655249291543 36.81644045030332 4.227799599719448 0 0 0
938 1 23.888960149520017 37.958955541524844 5.756378300431224 0 0 0
941 1 31.40571801901974 39.433803586397914 4.597894401662035 0 0 0
158 1 1.2621227660720407 40.79749374721952 5.442928846802485 0 0 0
68 1 3.006266479974331 42.16039263461336 4.224802373597539 0 0 0
160 1 7.5432504483060665 41.13721234690814 5.883133726011711 0 0 0
70 1 9.432922710411091 42.22109895506982 4.138990448517863 0 0 0
155 1 12.958923519135666 39.67988636920805 4.326701860740503 0 0 0
162 1 14.359969265037742 41.70901690486045 5.908955809089194 0 0 0
1405 1 19.108260572714688 39.701123216343916 4.514576452407774 0 0 0
942 1 20.74826736520306 40.81670912472957 5.927569057628967 0 0 0
860 1 22.115470623629836 42.55224944474399 4.257624618857144 0 0 0
937 1 25.2608134729021 39.63677193789478 4.251382080502569 0 0 0
945 1 28.60649460230314 42.061929477711445 4.187365800897468 0 0 0
947 1 33.227239201256076 41.03709127889417 6.173332755579491 0 0 0
92 1 -0.024601619903055066 45.34614843660884 4.45779682475849 0 0 0
165 1 4.595741220240877 43.60125659905415 5.8789107496468915 0 0 0
76 1 6.20562145832359 45.56654180281677 4.661199283350151 0 0 0
166 1 10.785991490798606 43.93057566422782 5.949032400234071 0 0 0
167 1 12.353319726951774 45.57887736247055 4.123764254533614 0 0 0
163 1 15.935339030441561 42.79181841515761 3.7508840791251368 0 0 0
168 1 17.265468171983915 44.03269690387127 5.905752542842604 0 0 0
949 1 23.592495549318958 44.400061885624325 5.722688834955081 0 0 0
950 1 30.24158341323963 43.91710894775041 5.654177373500021 0 0 0
2871 1 34.69997929067202 42.844617891851826 4.636716253151033 0 0 0
172 1 2.731855234595859 48.53845522551899 4.609054773392662 0 0 0
80 1 4.787062112851336 47.27715678784753 3.09604396485184 0 0 0
173 1 7.77420141247465 47.660468222610646 6.020657914884342 0 0 0
175 1 13.958617476798517 47.174507875743316 5.57075054691414 0 0 0
746 1 18.811182189879354 45.72593733461778 4.202096459816383 0 0 0
952 1 19.81489309354276 47.25297666275978 6.1707884706831635 0 0 0
872 1 25.311608200597924 45.91920945122797 4.177113234179698 0 0 0
953 1 26.969558418720943 47.48274302313155 5.635934319516471 0 0 0
868 1 31.58293556468281 45.8146803976105 4.23532536531478 0 0 0
955 1 33.26685583324768 47.41914512278903 6.027392462244864 0 0 0
178 1 4.299233501613414 50.164600775379526 5.887264732167112 0 0 0
174 1 9.298183537210987 49.11669945206296 4.348335441886082 0 0 0
179 1 10.820056252196588 50.83748060830435 5.8148621550396085 0 0 0
84 1 15.522915465512474 49.01544511322001 4.089900215248516 0 0 0
181 1 16.981815899417175 50.83786164780385 5.99410455616202 0 0 0
877 1 21.550870076350886 48.78094786179824 4.469151577620197 0 0 0
956 1 23.522215339422814 50.25664267619746 5.4770254437747985 0 0 0
954 1 28.60333769043178 49.03196334186126 4.018560044421183 0 0 0
957 1 30.18277928760919 50.424696171260365 5.543890069338627 0 0 0
282 1 4.403005599133486 2.4240507348171705 8.977713719485738 0 1 0
177 1 2.9855871303962473 0.4449744501650038 7.489961500655032 0 1 0
180 1 9.147757359866016 1.0154863184137126 7.451437460259574 0 1 0
284 1 10.887189963163891 2.3454809164920785 9.338794242604672 0 1 0
281 1 15.34945614094407 0.8714588763784332 7.60640059899443 0 1 0
286 1 17.105858276407826 2.6207229582197993 9.07223011002779 0 1 0
1046 1 23.656851401941967 2.1773834050910112 8.907131090455437 0 1 0
1039 1 22.10659226893537 0.501977998427622 7.372112197805603 0 1 0
1047 1 28.255376044883818 0.27901484757424544 7.659573045816491 0 1 0
1048 1 29.826556685590404 1.9724130874192958 9.191373954605124 0 1 0
3086 1 34.71965949262906 0.6738641716998235 7.302219568169348 0 1 0
188 1 0.8089792252486941 5.7021646932202845 9.268247667203232 0 0 0
189 1 6.203492419314627 4.581074878935391 7.135797855856754 0 0 0
190 1 7.652469266292576 6.131746864386871 9.232915567722294 0 0 0
185 1 12.45413192941298 4.435932464713268 7.466248962073838 0 0 0
863 1 18.922031039553296 4.279689900190414 7.378234033371539 0 0 0
964 1 20.39878787565579 5.955610380566252 9.03575694847321 0 0 0
965 1 25.358433656484063 3.7123549129900795 7.576899207559277 0 0 0
966 1 26.999565690194384 5.568563381592436 9.195122183945566 0 0 0
967 1 31.24621033641876 4.459298695998625 7.674157392879161 0 0 0
968 1 33.0998440993835 6.064395946872141 9.136357853891091 0 0 0
192 1 2.358964063178524 7.384792301479591 7.5598671317363495 0 0 0
193 1 4.255116498832124 9.029512357979572 8.960447748696412 0 0 0
98 1 9.527375611771266 7.402019999585 7.665756469238595 0 0 0
191 1 14.077723533264223 6.228054254511683 8.84127267177581 0 0 0
196 1 15.58968128882609 7.808478176861746 7.495262107860473 0 0 0
969 1 22.1150409046077 7.4915749252306325 7.404362741803593 0 0 0
970 1 23.87144623964498 8.680398474063065 9.192297353574535 0 0 0
893 1 28.570209196520054 7.362264067130872 7.647920816101906 0 0 0
971 1 30.252163191599685 9.105169798614767 8.965659402828537 0 0 0
895 1 34.682876567238175 7.354964143016924 7.5021042360236425 0 0 0
200 1 1.6183019473934575 12.131297853123485 9.130156391468034 0 0 0
464 1 -0.12664882759651538 10.753866891375386 7.284483699753241 0 0 0
201 1 6.12394681389487 10.490978654841188 7.171272710875058 0 0 0
202 1 7.765859530973683 12.155275403527337 8.960609964398332 0 0 0
195 1 10.868268135410165 9.391374302368718 8.966787504118962 0 0 0
203 1 12.401406593659491 10.759404886138059 7.107469808913499 0 0 0
204 1 13.905562509943216 12.046054758692941 8.923568272283715 0 0 0
198 1 17.241600271307526 9.404535893990703 8.906728899249831 0 0 0
838 1 18.879694817018066 11.410330098946439 7.186430626094284 0 0 0
974 1 25.34465521508029 10.370876843182296 7.621322298340567 0 0 0
975 1 26.996845728540286 12.087246525986831 9.370938856924857 0 0 0
899 1 31.67012600005431 10.82849731426098 7.471555423046649 0 0 0
112 1 2.9865375075242415 13.529821184763772 7.366456632825989 0 0 0
205 1 4.320552441941594 15.287982483410033 8.982751509855163 0 0 0
114 1 9.134006781224608 13.652839379440978 7.198707401450082 0 0 0
207 1 10.894477006660475 15.221711134555182 8.760984530391235 0 0 0
208 1 15.747936781359822 14.042556830295934 7.411402776763606 0 0 0
973 1 20.69929630509937 12.344727042900725 9.196876674100295 0 0 0
978 1 22.454233350433295 13.826834324413523 7.672173774337534 0 0 0
981 1 28.367996760993577 13.849261918817161 8.020039289734404 0 0 0
898 1 29.957402112018038 12.569253630821589 6.187181717580593 0 0 0
903 1 34.459076496322 13.97769995719474 7.6937095448911705 0 0 0
118 1 5.770741932257314 16.893893483052445 7.4231430565320595 0 0 0
120 1 12.96086465007834 16.894685818406067 7.566251258533676 0 0 0
214 1 14.414333384001624 18.25549721227845 9.247583129398574 0 0 0
209 1 17.38606899917877 15.66955893131153 8.99490820092894 0 0 0
803 1 19.179497991883963 16.903919131530074 7.769854609921438 0 0 0
979 1 23.779435155485796 15.573358847168782 8.939240844721773 0 0 0
906 1 25.64580359957948 17.2484583772035 7.3736515443479105 0 0 0
982 1 30.25607677722004 15.556491515680356 9.248172744050715 0 0 0
989 1 31.685770483185575 17.118035691973596 7.390978960516867 0 0 0
210 1 1.3525683730268836 18.621383895489185 8.93421469694972 0 0 0
124 1 2.916851909722019 20.22325947568078 7.664649258162649 0 0 0
212 1 7.462465793417615 18.61080195607656 8.900711905764862 0 0 0
126 1 9.430010438693039 20.233929150689377 7.778945765446 0 0 0
128 1 15.756526347756967 20.157715601310006 7.720178350430817 0 0 0
985 1 20.801531173324193 18.41827873614068 9.345171862106364 0 0 0
909 1 22.21031093107045 20.045063586827354 7.224677644990262 0 0 0
987 1 27.31558561755471 18.96039382716768 9.097433234478556 0 0 0
993 1 28.51123383679601 20.754819736757867 7.4182826720317605 0 0 0
990 1 33.0328168450454 18.636958091541754 9.14372267933852 0 0 0
77 1 -0.08610149873878961 23.52579563989729 7.454112240749569 0 0 0
216 1 4.3947108462472855 21.661547020728737 9.156208485916762 0 0 0
223 1 6.042283318585286 23.710703567701003 7.7468714030657075 0 0 0
125 1 7.569296033514611 22.04129443851504 6.4369533182452745 0 0 0
218 1 11.090753952176426 21.671475742890472 9.406435962826507 0 0 0
131 1 12.442610067899404 23.49288610220634 8.047171696199609 0 0 0
127 1 13.848559789156612 21.738966496427953 6.413126582932467 0 0 0
221 1 17.65828994015255 21.753336736034395 9.062175944550024 0 0 0
916 1 19.027953535491843 23.575984814417403 7.23571074180701 0 0 0
991 1 23.879658427515423 21.734681965596895 9.10580502373571 0 0 0
998 1 25.385218353726863 23.429600154082756 7.31043803109937 0 0 0
994 1 30.47656500222297 22.34562128737328 8.868233292598438 0 0 0
915 1 31.679052945642578 24.119720264355358 7.084974962814222 0 0 0
222 1 1.5757159546506427 24.765335028371496 9.22215122671638 0 0 0
227 1 3.1485621290248815 26.279993058784026 7.534448271666834 0 0 0
224 1 7.873402014468779 25.038494846802777 9.272681861586266 0 0 0
130 1 11.022903109407837 25.08633832022949 6.27746389280868 0 0 0
136 1 9.370886471763882 26.761816474649223 7.966264216842864 0 0 0
226 1 14.389051477222383 24.96064988179425 9.229011959306495 0 0 0
231 1 15.399698588047249 27.084755360456196 7.62436118103703 0 0 0
132 1 17.057883739998417 25.061856766984477 6.336834700326712 0 0 0
996 1 20.276021397312157 24.92636484160705 9.386237226424504 0 0 0
918 1 21.92166743199024 26.63561209401428 7.896827785423808 0 0 0