LAMMPS data file via write_data, version 29 Oct 2020, timestep = 200000

4608 atoms
1 atom types

-0.3328482910505244 53.732848291048896 xlo xhi
-0.2854453171299376 51.192565317132846 ylo yhi
-0.2854453171299376 51.192565317132846 zlo zhi

Masses

1 18.015

Atoms # atomic

125 1 1.0960395878387745 37.76333663354529 2.4708117452533593 0 1 1
3241 1 6.914382122135222 1.119443873315963 4.718517068714583 1 0 0
1955 1 8.795365891296873 7.199693964171471 1.3301726943674055 0 0 0
2482 1 1.242938402834161 8.042036374047463 15.13528736213632 0 0 -1
2360 1 0.3627986892463356 23.766008511662008 1.9167482859680574 0 0 1
2374 1 1.0903978248628632 30.140231060078367 11.885057172769582 1 0 0
3059 1 6.643465554197174 5.5315212373544576 2.99123851569969 1 0 0
3602 1 3.3797228153671353 43.96997755318331 23.48655337060246 0 -1 -1
1152 1 -0.1770796874614291 17.644989265949807 20.00262115951336 1 2 -1
264 1 -0.21553782880707928 35.123206361494226 13.777294354025571 0 0 0
1244 1 3.514571006936136 22.74121632534024 20.466276685463722 -1 0 -1
2483 1 2.1707670448547445 6.425080925718316 4.489613044445001 1 0 1
2237 1 2.022821818969103 18.903651700566733 19.526546278404954 0 0 0
2104 1 9.827408332885755 4.846026052721292 3.3203998110881647 1 0 0
3600 1 1.0748515534792125 2.743347668638661 6.142966212409208 1 0 0
2927 1 15.344409506022826 5.6636801542391355 1.325889226515964 0 -1 2
1899 1 10.655180107852253 19.744643576170944 1.4260375295544294 1 0 1
2138 1 6.584137924128059 9.206877858807085 0.6188218829166332 0 1 0
1817 1 9.74723076430946 9.616175435516032 2.4999012034390007 1 1 0
1564 1 1.057124619455886 15.185381071887482 12.618447884756376 0 1 0
1351 1 13.327510379389357 10.55803721206638 4.988801219344925 0 0 1
4275 1 6.8840736586608555 29.40526473592842 1.0555759685256347 2 0 1
4086 1 8.014760847053665 3.409499222280006 22.881965785261556 1 1 0
2498 1 6.201829993532341 13.365501870118875 2.777740001045637 1 0 0
3404 1 8.955731157633952 12.411279386791259 2.181432369601217 1 0 0
1855 1 14.888281726949417 47.12847635574445 0.038347998871181455 1 0 1
518 1 12.64077134559785 49.62918272292568 23.65414252066002 -1 0 -1
3953 1 7.176126495378089 3.3530611489918094 25.403730028079554 1 1 0
1727 1 -0.04390028293844017 34.01109087596079 11.266929739033644 0 0 0
1168 1 8.25678007401857 15.733165822109534 3.190238445133823 1 0 1
190 1 5.039759025164337 16.724860774227462 25.00501510226153 0 1 0
1231 1 10.744337878915408 14.17733511533292 3.763005944125542 0 0 1
67 1 15.174560834571988 19.48032109715022 2.0153715094214326 0 0 1
929 1 1.0804080186772342 21.618625906092934 20.09445061608262 0 0 1
2778 1 1.2248814675773863 32.922905892010874 1.4493572037118378 0 -1 0
3795 1 1.2320635494095749 17.40441810946798 10.169243894286524 2 0 0
1608 1 6.811576212108027 0.6052927368000955 23.26349200365229 0 0 0
4061 1 2.4201213131216495 26.549225635832595 1.946646600816778 1 -1 1
3782 1 5.036933384332046 24.941951831766364 24.525715929773327 0 0 1
505 1 8.25015525318794 26.478894428569987 0.6743274914349724 0 -1 1
2896 1 12.81731298613589 20.892084256101068 2.746932663839358 0 0 1
720 1 10.54766111114416 22.00609277768827 4.552001505391923 0 0 0
3868 1 5.420426821185907 25.62429757627199 0.3624243377150549 2 0 2
1037 1 15.092169916865553 29.70375490349434 6.785933696441317 -1 0 0
2619 1 17.54261497507051 41.5572583944853 16.88427460375752 0 0 0
3489 1 13.473771388694967 24.670772522441965 1.4994812249085656 0 -1 0
2315 1 14.907660419697619 1.756684489354758 19.24998384737347 1 -1 0
590 1 0.13814087829836152 29.07137904112069 6.437229238548614 0 0 0
1554 1 0.5655718831248289 28.23881093069105 2.8147833697664697 1 1 1
1687 1 -0.006681629793985011 32.63977009954618 15.2609868541304 0 -1 0
525 1 9.891050854393765 26.423522333481337 4.31876387383136 0 0 1
738 1 8.825959762025235 31.510685517200848 0.5284373370368725 -1 1 1
666 1 11.142400512429875 25.769424586701447 8.97770820948111 0 0 0
6 1 10.69599686119255 27.4637924551523 1.7036419521502058 1 0 1
2132 1 15.522788207788714 28.830809817471508 0.8306648126902398 0 0 0
4371 1 13.062375776527714 22.291716561647526 0.03698426609761263 0 1 1
450 1 4.907619639142815 33.84823355566142 1.2491320217270967 -1 0 0
4433 1 11.562784068465882 30.01475879514801 1.5891584974066828 0 0 1
252 1 11.516254089933785 32.00289775603788 3.9798496283202685 1 0 0
3623 1 6.1835397128705 13.524409183094582 -0.22925966122590175 1 0 0
3923 1 4.073479909734906 4.330294691667811 0.3535301278543246 0 1 1
3920 1 5.35536594553661 36.48240497119039 1.1372655781350207 1 -1 0
2474 1 7.705327366082116 11.38831417485435 24.97963983756173 0 1 1
2575 1 0.5795537938665059 18.420934664828994 13.998332045390677 0 0 0
3232 1 9.679460895987443 35.90220042069403 0.3646756800934964 0 0 0
1695 1 2.6051465758249357 21.715327385099883 24.54243597843913 0 0 -1
1441 1 1.947013357134788 11.581089699989192 8.266543651747869 0 1 1
2873 1 7.443707678772684 51.15641765060525 2.2501346285165575 1 -1 2
2057 1 1.352949839025403 4.235645871391707 2.4652096261505867 1 0 1
1560 1 1.0768250996465558 0.0367811621304156 9.340065698270326 0 0 0
7 1 0.894372429131109 19.59328715184076 24.134669977680225 0 0 -1
4537 1 14.441975232342822 38.752946271958365 0.26719705891224155 0 -1 1
3112 1 5.328867159930804 41.61424886213018 3.452988967446028 1 0 0
3743 1 2.8560730346202527 37.66729241529879 0.29426204109629894 0 1 0
4274 1 10.876537610989887 38.78923576570128 3.471126881637425 -1 0 2
151 1 1.356564072716115 44.261804977090705 20.043443681587227 0 1 1
1097 1 6.3819769197933445 10.368414881183268 3.153154949374672 0 -1 0
4347 1 15.033695721641788 5.406498059684627 24.577566165976137 0 0 1
1835 1 2.5252870185457703 36.59816524847102 4.725212856330528 1 -2 -1
1275 1 2.5438348561731488 48.82815985648142 0.9637997155535929 1 0 1
4214 1 3.7309053911624606 41.39038222899377 0.9083634763780619 0 1 0
4225 1 17.25534273539862 17.524584562621268 17.258103745161318 0 0 0
1685 1 9.884717795941356 44.10566900149607 -0.08332491189634628 1 -1 1
1323 1 6.445419854190879 43.68193766736337 5.056730260698666 0 0 1
490 1 13.016822541351262 42.88028349765162 2.858777722551271 -2 1 -1
4440 1 15.186317950484682 16.772167415014877 0.05192092856869107 1 0 0
2247 1 9.32177755834741 45.55978911205355 2.1273488387657364 0 0 0
797 1 12.842040726238876 47.32746241220168 3.9240154835115817 0 -1 0
22 1 9.405743254696034 48.501858532171866 0.50950500110875 0 0 -2
617 1 15.557112120602321 6.377376281620163 20.834457889134615 0 1 -1
1972 1 13.514757888096282 44.93335484021047 5.094714658706659 0 0 1
4141 1 2.3222505077935818 46.06945925396701 1.4405994049977244 0 -1 1
649 1 1.0618692025271923 50.220943334364264 24.674381112595054 1 0 0
4133 1 11.784891503429762 50.294678813974585 3.408363887937005 1 0 0
1452 1 4.935485926300067 1.8390903006795476 1.8211247419123175 0 -1 0
1092 1 4.909154770933972 50.36300139146634 4.477393381714031 0 0 1
757 1 8.524791146459377 48.746050296783906 7.373551379345707 0 0 -1
4340 1 10.058424536564125 2.796518896183692 1.4159726267673176 1 0 1
1675 1 11.557439176528582 1.769071630047772 3.2777762259359924 1 0 -1
2564 1 16.296615193079425 4.694787093217497 3.943504462114973 0 0 1
1113 1 15.269673631409 0.06308297626891302 5.51329107404429 -1 0 1
2740 1 9.98097708698022 5.751050777786953 9.134978689283404 0 -1 1
1491 1 6.669625776546926 44.263580825671696 22.88788261866879 0 0 0
1497 1 4.459604370761932 7.0488525767740065 1.4162964164653837 0 1 2
3119 1 2.8110686746051643 4.812879400424866 6.8639828002385475 1 1 0
499 1 6.770953324955006 7.594515996697425 4.614382029935922 0 0 0
3894 1 12.372469877777636 6.034755634351648 3.3662140991860734 1 0 0
3345 1 12.311511127825469 8.065337791028718 1.5076818105899257 1 0 1
2005 1 14.654518340631894 7.119890706855017 4.831504073313811 0 1 0
143 1 4.259504790802936 8.365913029686451 5.96559919074139 2 0 1
1084 1 5.0103179775892235 11.0160110036543 5.382693716850019 -1 1 1
2253 1 2.3863210053967956 11.957683426083552 5.568576354139103 0 0 0
4607 1 9.130944865680789 9.023659637711777 4.94871533119474 1 0 0
1309 1 11.867291384133592 7.9299979798823585 5.396971658233067 0 1 2
2885 1 0.9550765013920628 36.705468797418405 7.15414131641084 1 -1 2
1163 1 15.646006895576678 9.50539565582654 3.5817798668122847 -2 1 0
1240 1 1.739284319190069 17.857818378149982 2.8006914529502285 0 0 1
1508 1 3.557264787839182 15.640170826691966 3.2054696315727234 1 0 0
1761 1 9.294545768485603 11.473914749130525 6.806759805101981 0 0 1
1023 1 7.067599577464708 15.498934862167868 7.28054007744694 1 0 -1
996 1 12.356315404792657 16.731946175102717 9.331610880725233 0 1 1
4550 1 11.202452412458976 13.503911730948511 6.28988924670304 1 -1 1
2722 1 14.45732940153307 14.971820179720307 5.887220515162622 1 -1 1
3952 1 5.220129209882332 18.432047866974994 3.038313041146135 1 0 0
3672 1 5.9064936685486815 16.309001993591856 4.608111810348069 1 0 -1
549 1 8.351591739488148 17.537964847713944 0.7454992915548928 1 0 0
1520 1 2.0207339981335894 21.700409120400717 1.3829809046636923 0 1 1
1344 1 3.630306094177884 49.380226254426276 23.992548621121255 0 0 0
3497 1 6.291607844247434 19.548952343081805 0.4847522206180179 1 0 0
623 1 7.257247707491003 23.345052514478382 0.4177398543339689 0 -1 0
3750 1 9.558900737256248 18.227223580178293 3.6734701852072607 0 0 0
1390 1 9.809625053025881 18.41495433165213 6.437301687586538 0 0 -1
4435 1 12.88828227338933 17.450835042937392 1.7829121370673784 1 0 0
961 1 16.685055668121194 18.624276545913037 4.3113829331975255 1 0 1
1678 1 6.071940450922282 45.91281894778234 25.105581662044198 1 -1 -1
85 1 3.492088479465421 25.925450928309896 8.419726074439481 0 0 0
745 1 8.861824386425623 21.796786997653953 2.0763567516577637 0 0 0
2337 1 15.277030412276105 27.248553744143575 10.41560913331927 1 0 1
4408 1 11.731926913615693 24.41302090863581 3.7511439877244808 2 1 1
2502 1 4.679211921969347 25.444428469819155 3.22965573662417 -1 -1 0
3885 1 7.250242224828873 20.128845229317932 3.7123724363581427 1 1 1
3047 1 13.745013778397553 25.682756170828938 6.398219231891698 0 0 0
3098 1 11.857616591332427 28.082193206078035 5.668514633695469 1 0 0
4026 1 2.930145569202684 30.81776815916713 2.970328597456975 1 0 0
2728 1 8.795764364249505 31.20669547628022 3.6612159834844977 1 -1 1
913 1 -0.1288188934955158 16.08663869123856 25.095795016132193 1 1 1
809 1 0.6899462872342474 40.09516627282673 18.81568203499174 1 -1 1
2966 1 0.3451158155198102 27.68748029868009 8.86373906664682 1 1 1
2709 1 6.399479358645148 31.237788551202538 5.665897114253712 1 0 1
3312 1 10.2450565323002 30.610481715960404 9.536911806896377 0 0 0
1454 1 3.0310924191802187 33.98219343474342 3.7052877131992767 -1 0 -1
3255 1 2.7013001186846055 33.24578885978316 8.603207241416712 0 0 1
4562 1 11.5212019732578 34.57015491542529 2.3965100802877255 1 -1 1
150 1 14.958125612352251 31.26193782231101 3.681334449606202 0 1 0
811 1 4.5121805004390385 21.844403418067444 0.04819157944653796 0 0 0
2808 1 6.169239024343965 37.60622660474108 3.5522779279522303 1 -1 1
1618 1 8.577995176249612 33.22354143106361 5.9135496321189835 0 0 0
3749 1 8.826098586062919 38.02858882666081 1.7635601998382748 0 -1 0
825 1 15.548963503591724 33.749395798820245 5.239152616030281 0 -1 1
2382 1 14.076639404936678 36.162662845960526 8.330077259245412 1 0 1
1357 1 16.361982741722496 14.300178296315803 2.0243742965624993 0 1 1
4471 1 0.8370242144560964 43.97985556683173 2.4659729348022483 1 1 1
2353 1 7.966979654723728 41.3717260991415 2.048888942564847 1 0 1
3265 1 0.01294721302906604 44.20977577190783 15.35922922599869 0 1 0
3483 1 11.54630362407637 42.2220020993105 5.293565756764226 1 0 1
4168 1 15.150510487035246 38.87296773621503 5.476978093122231 0 1 0
2800 1 0.7268235834649366 9.166195243941539 0.4166701945161251 1 1 0
1140 1 2.286276700862288 46.91187258214936 4.150398690050097 0 -1 1
1691 1 8.520875255652134 45.16236115990722 8.072712076327027 0 -1 1
3473 1 9.160770557042257 44.40539804823048 4.835867056907497 0 0 0
4224 1 10.922385888224603 41.49717190493065 1.886402221880803 0 -1 1
4416 1 15.13344418591564 41.33475303882871 1.9541314032697428 2 0 0
309 1 11.212020595441029 45.38066639002635 7.040179504213905 0 -1 0
1224 1 1.8471635527341688 26.983793016022478 22.914573535733265 0 0 1
4324 1 17.117422747223777 21.419614869385576 5.071870600528689 0 0 1
900 1 6.873003678439593 48.434062366379095 4.967754178415261 0 -2 1
244 1 9.364056125952658 49.33322034276924 3.021211558307055 1 0 0
840 1 10.313909821305785 47.58229328767072 5.177101184523308 -1 -1 1
2590 1 15.016069782935196 48.93597754341191 4.546956065979967 0 -1 0
206 1 1.8011809441758149 12.429251461092472 0.2846738442274527 1 0 0
1488 1 2.4969160947964832 1.6989495519110285 2.769621440918188 0 2 0
1782 1 4.487992953909843 2.55767562658496 6.859950655679559 1 2 0
941 1 8.629946987829598 0.2753748214213829 6.711918632163931 0 1 0
4496 1 15.663582058737425 1.5220830639570666 8.199847740046678 1 0 0
4439 1 14.728314360839791 41.48770540886578 16.64778692079535 1 0 1
2419 1 6.54427153952053 46.73518529777799 2.5296957858483418 1 0 1
978 1 5.674995221070587 3.461181684539174 4.320340492331267 1 1 0
734 1 10.764545256145604 1.7812588750601872 6.473887958854355 0 -1 1
1447 1 12.275597295962788 2.217758716347841 10.870427081953771 0 -1 1
4341 1 12.364548236370839 3.8078875719948755 5.787684509807501 0 1 0
1339 1 16.312696813726212 24.278076318253333 3.352595675848024 0 0 0
1930 1 16.77687796202925 4.297700668011566 7.002236829555461 0 1 1
4188 1 0.9175817634973058 5.609275340995125 17.514366047968714 1 0 0
4110 1 2.0445049813033327 5.824337289973061 9.129506151233299 1 0 1
1853 1 6.066594858594071 8.473535857421227 8.916903690814525 0 0 0
3391 1 10.660745775208857 10.535126736175057 9.082085034661782 1 1 1
2984 1 11.983026210705928 7.4130504606248095 8.303955609119592 1 0 1
1887 1 15.225927866982673 8.206310397354036 7.499786333077981 0 1 0
4143 1 14.03546968348367 5.392905176096227 7.588421498774296 1 0 1
4431 1 2.2391594851745262 8.70925416884931 8.182147871309606 1 0 0
3717 1 5.890092791977232 12.21009221891024 9.803946496775724 1 0 0
489 1 6.670665552918113 12.479701932657564 7.023790019292504 0 1 -1
4521 1 13.226761303813129 12.099514221529368 7.475688071537017 1 1 1
4237 1 15.617990035452328 17.94277096686611 8.94878905576908 0 0 1
857 1 1.4377426268689224 14.400930902213942 4.705212411091432 0 1 1
2366 1 17.171065909594965 50.410822117515536 23.2273339752444 0 -1 1
572 1 10.248156325029141 12.558492609661332 10.966619633080665 1 -1 0
3905 1 9.055263315486572 42.59656830477388 19.891917239372813 1 -1 1
1199 1 13.863843979471701 14.591714708961952 8.73699889997731 -1 1 2
1360 1 14.238747307645575 14.0258090182209 11.442653385384185 0 1 1
3051 1 0.7393177714319779 25.297970554513103 7.797807839611833 0 0 0
10 1 5.802688047829799 31.47305689969582 2.7400140207058667 0 0 0
350 1 5.8685294370884415 21.197609630838247 6.095583638351151 0 -1 1
4533 1 9.703125634798088 15.636674805251515 7.30198985251102 1 -1 1
598 1 14.732704908611474 17.881018877857322 6.26587704508023 0 0 0
1546 1 17.261704388791845 39.70123365819154 21.321545461042916 1 -1 -1
1773 1 7.2651292467804724 19.28764424691275 7.811193563969043 0 -2 0
191 1 9.830573178577232 15.245113931922726 10.156450821195165 -1 1 1
202 1 12.017654893516998 18.708038040295655 7.4937079507287905 0 -1 0
1929 1 11.272717380004375 18.12743961445818 11.897441401676232 1 1 0
3457 1 14.23477565255703 9.940244361491187 1.2509565807956016 0 1 1
3479 1 11.186912347819527 0.9244138026194051 22.152858007355448 0 1 -1
4277 1 3.39106204789916 23.20262626042242 5.558051612188383 1 0 0
83 1 5.250923225686097 22.39790462257274 2.869072490427201 0 0 1
4137 1 11.775925438944308 23.72068907735489 6.665525021447312 0 0 0
2985 1 8.976415421510401 24.237443802945176 7.292419233432328 0 0 0
1962 1 7.880516967587653 21.114750342284793 10.025759750303816 0 0 0
2052 1 14.745680301271598 22.256792732672974 8.97984471478718 -1 0 0
1904 1 15.89795497446546 24.49681474628165 7.903775701608808 0 0 -1
1770 1 0.02353484863232569 33.283383309766876 24.09589656669642 0 0 1
1859 1 2.5281928922163805 28.27726232508177 10.382019128247 0 0 0
3210 1 6.05579228555039 25.44533982332295 9.774758600034394 0 0 0
2471 1 9.93107707787089 28.199282851700946 7.9429630755728 0 0 0
2882 1 13.332300864880287 24.593336522582632 13.809502065431952 -1 -1 0
2390 1 14.456127636032212 26.440317542869806 3.962726462668102 0 0 2
1867 1 4.2372878567605605 26.794745088178992 5.943478219196047 1 -1 0
176 1 7.126977350191981 27.803860678559303 8.836051256656985 0 0 0
2301 1 7.608873636081489 26.514398846211858 6.232227713798367 1 0 1
4483 1 -0.17505169240241458 10.714049585173615 2.6409558817366534 1 0 0
164 1 2.69943995034271 29.763417390126342 5.479918730684759 0 0 -1
2977 1 4.778365282218417 29.38647305575365 7.3234328217138 0 -1 1
194 1 1.8695349507705163 32.498201510240946 5.754009253726751 0 -1 0
1101 1 11.17729057462255 32.78338989014328 7.829342669358422 0 0 0
4305 1 7.985844484646661 35.864198103948084 7.30043668197489 0 0 0
16 1 13.30151461427813 28.11474267681802 8.70286559202436 1 1 -1
1046 1 13.191031394399399 31.720814340182844 6.345320830688429 0 -1 1
717 1 0.10949366948587069 42.64666012705915 7.972939338577717 0 0 0
896 1 17.20423358817578 30.091548483350874 8.547950564508717 0 -1 0
1584 1 7.956916277627624 38.90308846118633 25.10434174340553 1 -2 0
1869 1 5.055269180452487 36.6667170700327 6.249452963769357 0 0 1
619 1 10.10829988605039 37.3386177416311 8.332865496895186 0 0 1
1192 1 10.256577285700477 35.518816219279174 4.560493611767279 0 0 0
2162 1 14.381315949553093 35.646470137644016 3.5210508699635077 -1 -1 1
2517 1 11.070113696714326 33.86415139897345 10.752296215219042 -1 0 0
4227 1 5.010403542111036 44.746972553042525 2.052429622796013 1 0 1
1434 1 0.6205864180622231 23.221917738732294 15.311085537464828 -1 0 0
3881 1 4.764482722605986 39.39224333179895 7.435522694831257 0 1 2
3647 1 8.688496201927231 40.07530182962596 7.738131392130171 1 0 -2
3970 1 12.574533343217842 37.43363435450446 5.353069561634521 1 -1 -1
1692 1 17.654548938958584 12.043380203912019 1.0063341021077454 1 0 0
2894 1 1.6059270465938251 41.06196532500405 3.3636571434418716 0 -1 1
2449 1 9.120112916018382 40.69569395779641 4.804622402231982 0 0 1
4417 1 3.8465751627853875 39.32514867264385 4.2682644553685085 2 0 -1
864 1 10.085534080642201 36.64948424302304 11.029884726721246 0 0 0
3971 1 12.959433517290174 41.49462830997486 7.532787625038202 1 -2 1
3961 1 7.913450794790592 35.72890610352327 21.81852233290615 1 0 -1
370 1 13.93111488702348 13.199838510310563 1.140177430929432 0 0 1
2431 1 3.126934757411241 43.712982638789555 4.088507021050425 0 0 0
4488 1 6.353212442788022 41.718433166163365 7.027806198245978 1 0 1
165 1 11.017212999127993 44.298544562356994 10.880546072537436 -1 -1 1
3245 1 13.438898137255253 44.39949956873933 8.99105930791039 2 -1 -1
642 1 13.419878537343719 47.408522387453374 9.133775922312577 0 -1 0
1349 1 1.9931326031819485 46.972310810688995 8.477593491203551 0 0 1
2402 1 4.853230780249845 46.21140514577762 5.698895820541049 2 -1 1
1872 1 2.2075153129904868 49.7401460128618 7.561412643350328 0 -1 1
277 1 6.239503514794852 47.00500913887147 8.370206346831502 0 -1 0
1054 1 10.141570405610263 47.19212863108105 9.929765838919616 0 -2 0
447 1 12.127421572721067 11.58402733829921 2.539951602326003 0 0 0
4182 1 11.558183159346342 48.64664145108003 7.348362185342506 0 1 1
741 1 0.7482941507222376 14.003784004479993 15.094333041725763 0 1 -1
1195 1 4.807947038154497 49.30640842984117 7.179635059721595 0 -1 1
1 1 2.8025999488612916 0.6154346569763518 5.490256979154249 1 -1 0
1852 1 7.691725897409842 48.12654529112743 10.925727260208872 1 -1 0
3929 1 8.432284791620896 50.88737610432 9.599535837750842 1 -1 -1
1816 1 12.465599555848184 51.094177071304216 6.451737337996704 0 0 1
3228 1 2.403421353352572 3.314240954234873 10.856954650396029 1 1 1
3728 1 5.978454373833768 0.14826927430717735 7.708563894304677 1 0 0
4552 1 7.607179908110288 2.59469759946817 9.491414496541646 1 0 0
1586 1 10.427344416683262 0.1265720664325964 11.43575395214302 1 0 0
4294 1 16.58120879050289 1.3718663214990245 11.121007308909423 0 0 0
3068 1 15.41976874195507 5.521278821362535 12.55758324887754 1 1 0
3376 1 0.466069174314395 46.95940119672629 10.9761098779698 0 0 0
481 1 6.233198891291034 4.703815923529566 8.225686175872122 0 0 0
1536 1 8.12183764358134 6.861772695211812 7.269181194526127 0 1 1
1793 1 11.921716611348891 5.603854908521928 12.261877065071685 1 -1 1
2054 1 10.3584873676262 2.9809368814891752 9.095336449204313 1 0 1
3912 1 14.550167979097933 2.757111785078676 4.2761241012201125 -1 0 2
2577 1 13.697167727144013 6.668456283081353 14.396398440678581 1 0 1
3425 1 2.946190736524203 7.657655855306058 11.682504339754187 1 0 0
3650 1 9.44338247556802 7.393400220573458 11.528010188596447 1 -1 1
2538 1 12.902843039625298 10.818407878489843 16.16098116946499 0 1 0
3898 1 14.206371629418229 6.905682722139924 10.48247823385205 0 1 0
1256 1 12.401345488931428 47.04274272479567 1.2936977581780909 1 -1 0
2039 1 8.19524241290329 9.772219478601878 10.31123097233154 0 0 1
3373 1 7.54750130849965 9.496637872879209 13.457076209619215 1 0 -1
3737 1 10.229106717278153 8.372852357400042 14.332612603065371 1 1 0
1701 1 14.843039092081934 9.538172135165079 11.803399509378774 0 -1 0
2107 1 13.397047710160207 9.952437120402278 9.409308034408067 0 1 0
2554 1 16.087477468034944 12.052449534665024 11.519921063626857 0 1 1
4541 1 1.5699655164082693 12.525776747525246 10.88040736017775 0 -1 1
4459 1 2.6952610953430254 12.453929297061597 13.494044223494921 1 0 0
1011 1 7.807730139676753 12.385870833709957 12.054176842062677 0 0 0
46 1 10.990295119115757 13.916823217791576 15.011094933962916 0 0 0
3264 1 14.18357618506083 3.5869092520901886 -0.19777965319162533 0 0 0
137 1 7.409937483073579 15.647301734370954 23.485199912084628 -1 0 -1
1178 1 13.142610294763287 15.245665676442709 3.1169471888592484 0 1 0
1307 1 3.495816008805402 16.494705476992987 12.562179256363896 0 0 0
4103 1 3.5228411716470283 18.262043335363018 8.928510721825713 1 0 1
1981 1 6.097950754935787 16.968830500007467 9.344053425089742 0 -1 0
3824 1 12.614059406545206 12.59901482849493 12.906240639954285 1 -1 0
1965 1 17.12940187850835 20.342885107459853 8.746712133101042 0 1 0
2130 1 15.135546772873287 16.432557412219406 12.82600693388692 1 -1 0
1423 1 17.307380044688983 2.0827206579351265 2.2713248637981813 -1 -1 0
3579 1 2.6540926218003236 20.677437989894052 6.579911485817484 1 0 0
3386 1 3.5125513497851766 19.457195892602925 11.688964592335 2 0 0
638 1 6.264416783362314 19.426538624636425 11.577586095736516 0 -1 1
2268 1 13.968771143705712 18.511875042433918 11.068926113712596 1 1 1
2867 1 3.5354673894246 23.201937926709956 8.705417176767556 1 0 2
30 1 6.628261801372566 22.87220793123454 8.285772786768675 -1 0 -1
703 1 4.784746511178981 22.41824955470039 11.091327271054109 0 0 1
848 1 9.165455276890627 23.65139457946696 10.407660689374966 0 0 0
4504 1 10.838504182209132 20.974126364513346 9.896017288798069 1 2 0
1998 1 12.677201930335869 21.436197823697334 7.674131583853071 1 0 0
4273 1 14.502532635120426 22.552838741676414 11.843026806170586 1 0 1
1238 1 14.816155458258876 9.90130844692645 24.329047131080703 1 0 0
1409 1 5.408947664032969 25.192124975642447 12.546803461190466 0 0 1
4191 1 2.8054498202003932 26.75167265881501 12.919843859613895 0 0 0
4226 1 10.948223366948255 25.84751698803438 13.915625614811923 1 0 0
4342 1 14.583885882196434 24.35229668257181 16.2255651133162 -1 -1 -1
3841 1 2.4465923765040123 32.69482989302129 11.516573409317544 0 1 0
2186 1 3.9585931038739375 30.456544400575872 9.719059318083495 1 0 -1
3524 1 5.391313557923605 30.67672000633411 12.12185076799419 2 -1 0
3496 1 11.335951058229384 27.70508586840923 11.384537834034905 1 -1 1
2658 1 8.396078783909536 28.37108735452828 12.463814904382701 0 0 0
4486 1 13.193052336138026 28.627531779234737 13.14500408537705 1 -1 1
643 1 15.181275792526776 26.73710028087938 13.328159906342957 -1 0 0
3890 1 3.8546270753470067 36.14207498181163 9.085199821866894 1 0 0
3333 1 7.660605003585423 30.5336921467907 10.612851456366807 2 -1 0
3226 1 -0.1815120662315512 8.778715185027991 25.330166923277083 0 0 0
561 1 1.1068640426675858 41.63367935843189 -0.15565321080335254 0 -1 0
819 1 6.677705639625877 35.153141381862596 9.953358863249736 1 -1 1
735 1 7.366575188416278 31.71049408593505 14.55360622422528 0 0 -1
337 1 7.549463899023011 37.419052259421164 11.513490558638216 1 -1 0
17 1 7.4678102046892665 34.10909235517957 0.09047778103021087 0 0 0
3550 1 16.415183255652412 40.77736012391786 4.2602565637411836 1 -1 0
2447 1 6.561187695820874 39.36918171111968 9.73412395826658 1 -1 1
4155 1 3.960086818808761 33.63923816095354 13.795378201494009 1 -1 1
1361 1 13.75586625832616 32.6958820553683 9.205748579914346 1 -1 1
2227 1 11.624123734780266 35.53735175360893 7.276074181001957 2 0 0
843 1 13.328505255336935 34.08036807608745 12.318184397179175 -1 0 0
1050 1 3.988161142567656 38.16393450152982 11.055325893150663 -1 0 0
3288 1 2.114529771556012 41.537654290578814 6.665432886900061 2 -1 -1
820 1 4.252598872464479 42.85464503195921 8.201904466111634 0 1 0
4036 1 10.950303398599017 41.64719536112085 9.46201328926658 1 0 1
1063 1 7.1002183116694955 41.76449717610684 11.669903640559628 -1 -1 0
4270 1 8.161447462706015 42.56320774272574 9.148194950836752 1 -1 0
1884 1 13.222941477617905 40.01470207980557 12.667893228297212 1 -1 0
736 1 17.6241581596482 43.66608733185319 11.487185304527035 -1 0 -1
3341 1 1.580638497809708 44.70918051292732 6.533031848997476 0 0 0
3826 1 4.055966660231808 45.445128108175396 9.441943270604641 1 -1 0
3793 1 4.962753324975876 43.902291207198644 12.04646612312886 0 -1 1
1513 1 7.915154025815703 45.07676492527146 11.213440691568266 -1 -1 1
861 1 12.084754707514076 48.650451210507114 12.063898235343887 0 -1 0
2251 1 16.180817092963643 45.96962698607376 10.951125578538806 0 -1 1
764 1 14.240017433674806 47.033607867264905 13.114021776730713 -1 -1 0
2994 1 14.82181783601501 40.49246102273146 22.510013018164187 1 0 0
4234 1 10.553733073621691 47.210219024332986 14.93017618897197 1 0 1
1897 1 14.003535085020866 49.70115779983436 10.41491035591446 0 -1 1
485 1 16.336239166768795 20.971814863053588 20.879948802369295 1 -1 0
521 1 15.7561639174127 42.66596961677888 24.053997349826687 0 -1 0
3521 1 3.6967218081340922 1.170883093053195 9.601088708187167 1 1 0
2240 1 2.0420407199329906 51.07443920446752 11.963227424311627 1 -1 0
3624 1 5.903676290742985 50.68656442922551 11.094276931664497 1 0 0
2395 1 11.071135077567837 50.413861289820545 14.09498058271135 0 -1 1
3705 1 13.132543610158145 0.36301144164909527 9.114399264162355 0 1 1
1673 1 2.458916937699041 1.9516975100985587 13.546598037159553 1 1 0
2042 1 11.919194266486103 3.0847791752928186 13.62692821897853 0 1 1
1296 1 9.50297630630063 1.978947638835204 13.833383834518353 -1 1 0
528 1 15.072643464715327 2.5386783997285636 12.994544119953193 1 0 1
280 1 13.91684203992922 0.41473625520073965 14.28063492496347 0 0 0
2628 1 5.881695365001775 13.544409296022078 24.51383819016791 0 0 1
2466 1 10.260965856075197 48.28930436197588 23.143946385742726 1 -1 -1
1095 1 7.708734687809951 3.7881609348731953 12.06939717172513 1 0 1
1718 1 9.174673118243064 4.025034593262656 16.739775897469777 1 1 0
3956 1 13.09641727310399 9.619997765298981 13.73921706246869 1 0 0
737 1 4.071993654433394 5.129845598995001 12.135442273563278 0 -1 1
3889 1 6.085630554700366 7.220381039821705 15.11317205285253 0 0 0
3969 1 6.42951708929055 6.064308592020965 10.714299142538236 1 0 0
2785 1 8.650369117761187 6.414450387785856 15.891073621668085 0 1 0
2365 1 10.00359480738629 10.411872864872606 16.623861652824235 0 1 1
674 1 4.02501121499818 10.415627604165824 10.338822396890915 -1 1 1
402 1 4.703004592844492 9.144671162647684 13.101257549003451 0 0 -1
554 1 5.216698326928585 10.828806287667046 17.041390925569388 0 1 2
1413 1 15.658474327809106 11.948946667958916 17.343318494047644 0 -1 0
755 1 17.423726757999248 25.71155970143523 9.653533634883052 2 -1 0
1921 1 4.848086121494478 14.33067149202649 14.205060836114802 0 0 0
1838 1 3.2319491259272075 10.180021408315735 15.198277263472196 1 1 0
3706 1 8.506737895767603 12.48393558329119 14.772362251470174 0 0 2
1984 1 12.188522277781138 14.150380772572028 17.735664954517407 0 0 0
2441 1 14.238723318854424 17.19039687807244 15.459078763287975 0 0 2
3599 1 6.497082589869751 15.114493882437374 12.051400290283476 1 2 0
952 1 11.795049164432413 18.213895758862535 16.069854253620758 1 0 0
1056 1 10.620639866348464 16.372774718179823 13.896211088546465 0 0 -1
2546 1 3.8263562874568953 14.34295489182323 10.254964298230531 1 0 1
3948 1 7.615162936315343 19.068320620410937 14.222659620356877 0 0 0
344 1 7.97065033112556 16.32507602354783 14.242984485937217 -1 0 0
2837 1 12.480327140675595 21.123688896860344 12.401286711586948 0 -1 0
543 1 17.039389808373816 27.806216333626118 5.201482721866197 0 0 0
1870 1 0.7083880442121604 17.784684704449017 -0.057115311959308496 0 0 1
1478 1 3.0075900600550884 21.209617216976408 13.818702493157101 1 1 0
2496 1 8.396868413386654 25.444581330239767 12.330128626718118 1 -1 0
1547 1 10.31366028372024 20.094668777267803 14.678376775664413 0 0 0
1301 1 2.372227426048333 23.667434142397255 12.664610845498341 0 0 1
3944 1 4.20104825022761 23.70380683205953 17.451916048963835 1 1 0
1574 1 9.186861638465455 26.12767224388276 16.35952982204319 1 1 1
681 1 11.04238536273794 26.667707082562348 18.672412388854525 1 -1 1
4051 1 12.8592255052345 21.739818333168664 15.503689715987772 1 1 0
3548 1 5.592775276349996 29.182555148713657 14.69079958915882 0 0 1
1664 1 1.2976474710881603 27.236623115160846 15.583750710103804 1 0 -1
1693 1 7.313047443174735 24.16358448723131 15.181893491645043 0 -1 -1
4264 1 12.776225551395566 30.647260676104633 10.564425552197113 1 0 0
145 1 12.744293176620456 29.2026021514812 17.889387328341204 -1 0 0
865 1 4.677494144585322 50.341865786815504 1.6019970640021681 0 0 1