
# Define the lattice
#
variable	    lattice_constant equal 6.36339
lattice		    diamond ${lattice_constant}
lattice		    diamond 6.36339
Lattice spacing in x,y,z = 6.3633900 6.3633900 6.3633900

# Define region
# multiples of lattice spacing
#
region 		    simbox block 0 9 0 8 0 8

# Create Atoms
#
create_box          1 simbox
Created orthogonal box = (0.0000000 0.0000000 0.0000000) to (57.270510 50.907120 50.907120)
  3 by 1 by 2 MPI processor grid
create_atoms        1 box
Created 4608 atoms
  create_atoms CPU = 0.001 seconds
mass                1 18.015

# Define potential
#
pair_style          sw
pair_coeff          * * /data/emrosky-sim/Freezing_Simulations/Melting/MLmW_fancy/ML_mW.sw mW
Reading sw potential file /data/emrosky-sim/Freezing_Simulations/Melting/MLmW_fancy/ML_mW.sw with DATE: 2019-02-27

# Add velocity/set timestep
#
velocity            all create ${TEMP} 120598 rot yes dist gaussian
velocity            all create 297 120598 rot yes dist gaussian
timestep            5.0

# Define output
#
compute	            1 all msd
thermo              100
thermo_style        custom step temp press vol etotal ke pe c_1[4]

# Neighbor lists
#
neigh_modify        delay 0 every 1 check yes

# Set fixes
#
fix                 1 all momentum 10 linear 1 1 1 rescale
fix                 2 all nve
fix                 3 all temp/csvr ${TEMP} ${TEMP} 500.0 928347
fix                 3 all temp/csvr 297 ${TEMP} 500.0 928347
fix                 3 all temp/csvr 297 297 500.0 928347
fix                 4 all press/berendsen iso ${PRES} ${PRES} 1000.0 modulus 20000
fix                 4 all press/berendsen iso -1000 ${PRES} 1000.0 modulus 20000
fix                 4 all press/berendsen iso -1000 -1000 1000.0 modulus 20000

# Run 0.5 ns equilibration
#
dump		    1 all custom 1000 eq.${NAME}.dump id type x y z vx vy vz
dump		    1 all custom 1000 eq.ice_297K_-1000atm_ML.dump id type x y z vx vy vz
run                 100000
Neighbor list info ...
  update every 1 steps, delay 0 steps, check yes
  max neighbors/atom: 2000, page size: 100000
  master list distance cutoff = 6.0032907
  ghost atom cutoff = 6.0032907
  binsize = 3.0016454, bins = 20 17 17
  1 neighbor lists, perpetual/occasional/extra = 1 0 0
  (1) pair sw, perpetual
      attributes: full, newton on
      pair build: full/bin/atomonly
      stencil: full/bin/3d
      bin: standard
Per MPI rank memory allocation (min/avg/max) = 4.779 | 4.779 | 4.779 Mbytes
Step Temp Press Volume TotEng KinEng PotEng c_1[4] 
       0          297   -606.10702    148418.52   -51818.604    4078.5798   -55897.184            0 
     100    198.54685   -836.38486    149000.99   -50141.656    2726.5629   -52868.219  0.099721319 
     200    229.48566   -905.92711    149370.33   -49149.802     3151.433   -52301.235   0.11025148 
     300    252.66545   -955.96009    149588.06   -48520.242    3469.7515   -51989.993   0.13899052 
     400    267.57344   -971.20482     149737.4   -48103.157    3674.4769   -51777.634   0.14247736 
     500    283.04111   -946.28648    149841.23   -47809.184     3886.888   -51696.072   0.13920517 
     600    290.69615   -951.29331    149925.54   -47528.804    3992.0117   -51520.816   0.15778507 
     700    294.45993   -1019.0746    149992.29   -47479.371     4043.698   -51523.069   0.14408206 
     800    291.95243   -1026.7744     150005.9    -47381.23    4009.2636   -51390.494   0.15889536 
     900    299.63924    -1006.949    150002.14    -47358.28    4114.8233   -51473.103   0.16107388 
    1000    291.16673    -1003.638    149978.22    -47407.04    3998.4739   -51405.514   0.15228372 
    1100    295.32059   -1000.5132     150007.3   -47349.637    4055.5171   -51405.154    0.1484456 
    1200     292.1503   -988.53286    150020.01   -47338.892    4011.9809   -51350.873   0.15973609 
    1300    292.50009   -1031.1598    150008.16   -47257.126    4016.7844   -51273.911   0.15896288 
    1400    295.59748   -993.64681    150026.96   -47361.931    4059.3195   -51421.251   0.15277631 
    1500    292.01822   -1023.3151    149981.71   -47386.897    4010.1671   -51397.064   0.15362845 
    1600    301.39659   -978.17496     149985.1    -47325.17    4138.9564   -51464.127   0.15734464 
    1700    294.67031   -967.50672     149985.5   -47348.186    4046.5871   -51394.773   0.15371966 
    1800    299.20944   -988.92938    149957.64   -47339.454    4108.9212   -51448.375   0.16004728 
    1900    300.13947   -1016.4497    150002.48   -47247.927    4121.6929    -51369.62   0.16033476 
    2000    301.22223   -1031.5497     150042.2     -47194.5    4136.5619   -51331.062   0.15231988 
    2100     295.9959   -1024.8881    150010.77   -47358.295    4064.7909   -51423.086    0.1611261 
    2200    296.96313   -962.26275     150009.4   -47283.222    4078.0735   -51361.296   0.14575967 
    2300    302.30971    -1001.012    150009.83   -47219.517    4151.4959   -51371.013   0.16647506 
    2400    301.03266   -1007.9052    150022.16   -47244.325    4133.9586   -51378.284   0.15819668 
    2500    300.39906   -1008.0311    150016.28   -47295.196    4125.2577   -51420.454   0.14779761 
    2600     296.0022   -1017.3856    149999.77   -47329.198    4064.8774   -51394.076   0.16354185 
    2700    301.62239   -948.45264    149995.69   -47300.164    4142.0572   -51442.221   0.14276413 
    2800     298.9757    -970.7811       149984   -47197.392    4105.7112   -51303.103   0.16279743 
    2900    299.25544   -1019.6234    150018.16   -47222.651    4109.5528   -51332.204   0.16292927 
    3000    299.48636   -991.42699    149965.83   -47274.873    4112.7239   -51387.597    0.1634312 
    3100    300.98448   -1025.6909    149991.56   -47250.935     4133.297   -51384.231   0.15803581 
    3200    297.04438   -1005.0086    149964.86   -47362.695    4079.1893   -51441.884   0.15540456 
    3300    298.08534   -976.24718    149906.79   -47424.609    4093.4844   -51518.094   0.14319929 
    3400    291.34533    -1007.112     149932.4   -47357.726    4000.9266   -51358.653   0.15677404 
    3500    296.56574   -997.76195    149937.51   -47320.164    4072.6162    -51392.78   0.16020666 
    3600    295.23839   -1022.5495    149927.62   -47325.395    4054.3883   -51379.783   0.16136557 
    3700    297.96516   -1005.8367    149939.45   -47285.655     4091.834   -51377.489   0.15821139 
    3800    301.80442   -1029.1407     149984.7   -47286.626     4144.557   -51431.183   0.16176088 
    3900    298.53022   -990.95488    149979.87   -47292.592    4099.5937   -51392.186   0.16068787 
    4000    297.07157   -1010.2335    149956.39   -47340.085    4079.5627   -51419.648   0.15085377 
    4100    293.34492   -975.99046    149969.66   -47357.806    4028.3861   -51386.192   0.16376589 
    4200    293.57399   -997.52022    150005.16   -47316.417    4031.5318   -51347.949   0.14925325 
    4300    290.79368   -995.02335    149965.85   -47450.968    3993.3509   -51444.319   0.16024718 
    4400    298.02518   -1018.6605    150000.16   -47334.977    4092.6582   -51427.635   0.14999211 
    4500    293.24913   -981.29084    149986.28   -47394.561    4027.0706   -51421.632   0.15717659 
    4600    295.25194   -981.14301    149961.81   -47428.092    4054.5744   -51482.666   0.14965924 
    4700    300.96263   -973.23329    149974.68   -47327.982    4132.9969   -51460.979   0.14864461 
    4800    302.87717   -976.28138    149983.73    -47222.13    4159.2886   -51381.418   0.15773425 
    4900    302.43004   -968.88532    150003.98   -47193.662    4153.1484   -51346.811   0.16028412 
    5000    295.19995   -980.29838    149982.42   -47324.102    4053.8605   -51377.963    0.1628364 
    5100    299.61821   -995.53468    149999.54   -47255.293    4114.5347   -51369.828   0.15850246 
    5200    296.65996   -1033.6378    149985.79    -47324.19    4073.9102     -51398.1   0.16489894 
    5300    294.42658   -1012.7891    149961.66   -47435.276      4043.24   -51478.516   0.14922557 
    5400    297.37917   -979.82573    149950.73   -47396.523    4083.7867    -51480.31   0.15563352 
    5500    293.50539   -993.51524     149938.8   -47359.364    4030.5898   -51389.954   0.16219313 
    5600    293.94493    -988.3231    149928.43   -47399.751    4036.6258   -51436.376   0.15379928 
    5700    296.61888   -997.65949     149941.6   -47386.691     4073.346   -51460.037   0.14913154 
    5800    297.15018   -980.07856    149970.46   -47329.524    4080.6421   -51410.166   0.15506716 
    5900     296.7959   -1000.0275     149947.5   -47407.737     4075.777   -51483.514   0.15006246 
    6000    295.16617   -975.02981    149950.69    -47388.69    4053.3965   -51442.086   0.15333382 
    6100    291.21076   -981.50912    149939.13   -47465.965    3999.0785   -51465.043   0.15570442 
    6200    292.63727   -976.72357    149937.47   -47442.064    4018.6682   -51460.732   0.15413581 
    6300    298.62168   -1009.3575    149977.36   -47326.474    4100.8496   -51427.323   0.15829167 
    6400    295.49828   -1008.1491    149969.97   -47375.832    4057.9573    -51433.79   0.15401388 
    6500     299.0151   -985.65589    149983.55   -47395.763    4106.2523   -51502.015   0.15100841 
    6600     294.8136   -1005.9686    149944.45   -47396.047    4048.5549   -51444.602   0.15334476 
    6700    291.94804   -1037.6142    149939.87   -47454.513    4009.2033   -51463.716   0.15649031 
    6800    297.17907   -984.10143    149935.34   -47401.836    4081.0388   -51482.874   0.14925094 
    6900    299.68919    -1006.758    149950.47   -47323.743    4115.5093   -51439.253   0.15365756 
    7000    298.19387   -966.98864    149950.82   -47322.669    4094.9747   -51417.643   0.16094574 
    7100    294.66194    -990.1744    149969.26   -47335.562    4046.4722   -51382.034   0.14566656 
    7200    292.71447   -1002.7227    149938.88   -47445.211    4019.7284    -51464.94   0.16162226 
    7300    292.58977   -990.68465     149903.8   -47493.995     4018.016    -51512.01   0.14723499 
    7400     294.2918   -987.93791    149920.99   -47377.819    4041.3893   -51419.208   0.15416001 
    7500    298.41289   -1006.6834    149956.47    -47308.98    4097.9825   -51406.962   0.16459816 
    7600    296.89679   -1001.9762    149993.79   -47283.824    4077.1624   -51360.986   0.15512837 
    7700    297.45056   -1027.5433    149968.11   -47380.163    4084.7672    -51464.93   0.16113761 
    7800     298.4175   -1011.2337    149996.37   -47447.686    4098.0458   -51545.732    0.1503442 
    7900    297.84257   -970.12516    149977.21   -47382.637    4090.1504   -51472.788   0.14765899 
    8000    301.31969   -980.55473    150005.09   -47287.841    4137.9004   -51425.742    0.1502917 
    8100    302.01366   -956.52018    150028.67    -47247.61    4147.4303    -51395.04   0.15640526 
    8200    296.75826   -989.06083    150024.83   -47276.618      4075.26   -51351.878   0.15303559 
    8300    299.76644   -968.32278    150022.82   -47235.941    4116.5701   -51352.511   0.16039476 
    8400     295.9684    -986.3625    150018.08    -47207.67    4064.4133   -51272.084   0.15830321 
    8500    295.40391   -1003.8541    150013.77   -47306.556    4056.6613   -51363.217    0.1570481 
    8600    296.46471   -1017.0334    150006.43   -47311.276    4071.2289   -51382.504    0.1512301 
    8700     299.4572   -994.54871    149994.34   -47283.454    4112.3235   -51395.778   0.16242091 
    8800    297.57477   -991.24135    149984.13   -47328.744    4086.4729   -51415.217   0.14953671 
    8900    298.69438   -1001.9993    149991.19   -47401.979     4101.848   -51503.827   0.15292058 
    9000    295.60499   -1020.5332    149990.21    -47320.28    4059.4227   -51379.702   0.15687551 
    9100     293.6327   -1033.5417    150000.19   -47373.249     4032.338   -51405.587   0.14557453 
    9200    302.92222   -966.44546    150018.38   -47267.369    4159.9072   -51427.277   0.16118879 
    9300    294.69282   -1016.0247    149992.64    -47424.18    4046.8962   -51471.076   0.13977913 
    9400     294.3669   -1004.3603    149986.05   -47380.771    4042.4205   -51423.191   0.15426593 
    9500    297.21034   -991.94575    149990.55   -47425.069    4081.4684   -51506.537    0.1498115 
    9600    291.25087   -1008.6231    149984.51   -47417.649    3999.6293   -51417.278   0.14985948 
    9700    299.44404   -944.07462    150012.21   -47287.405    4112.1429   -51399.548   0.15145802 
    9800     297.6162   -1008.7447    150058.02   -47241.835    4087.0418   -51328.876   0.15770353 
    9900    299.69822   -981.75926     150031.5   -47274.899    4115.6333   -51390.532   0.14994595 
   10000    297.53744   -986.67888    150030.92   -47331.675    4085.9603   -51417.635   0.15069049 
   10100     297.5263   -1007.4294    150001.62   -47280.503    4085.8073    -51366.31   0.15574118 
   10200    300.02477   -1000.8407    150029.11   -47250.674    4120.1178   -51370.791   0.15174286 
   10300    302.64962   -978.08842     150046.4   -47252.628    4156.1638   -51408.791    0.1510366 
   10400    296.86486   -981.74362    150023.78   -47249.601     4076.724   -51326.325     0.150956 
   10500    303.23658   -1004.0898    150019.93    -47303.57    4164.2242   -51467.794   0.15027704 
   10600    301.42851   -995.57811     150018.8   -47325.712    4139.3946   -51465.107   0.14872632 
   10700    296.41483   -1066.1991    150004.41   -47350.364    4070.5438   -51420.908   0.15645337 
   10800    291.48661   -1029.6166    149986.59   -47485.527    4002.8666   -51488.394   0.14790665 
   10900    292.56627   -994.83347    149968.86   -47471.877    4017.6931    -51489.57   0.14964609 
   11000    293.97878   -997.61766    149996.78   -47487.575    4037.0906   -51524.666   0.14809903 
   11100     297.8029   -947.81228    150037.81   -47390.044    4089.6057    -51479.65   0.13853832 
   11200    296.60066    -1004.363    149993.72   -47501.188    4073.0958   -51574.283    0.1505355 
   11300    295.32521   -1019.8382    149991.72   -47415.081    4055.5806   -51470.661   0.14577206 
   11400    295.78393   -1001.4974    150000.35   -47391.451    4061.8799   -51453.331   0.15135082 
   11500    299.89305   -995.53675    150019.55   -47288.304    4118.3088   -51406.613   0.15149441 
   11600    294.28408   -1017.5703    150040.15   -47288.115    4041.2832   -51329.398   0.15306164 
   11700    300.95534   -1026.1442    150085.09   -47155.249    4132.8969   -51288.146    0.1549351 
   11800    304.32932   -970.53913     150075.1   -47228.616    4179.2304   -51407.847   0.15059165 
   11900    302.89206   -989.86949    150056.53   -47284.209    4159.4931   -51443.702   0.15088795 
   12000    304.08293   -989.74098    150072.43   -47237.989    4175.8468   -51413.835    0.1501152 
   12100    296.70073    -994.8312    150037.16   -47297.467    4074.4701   -51371.937   0.15800444 
   12200    299.00455   -967.84706    150045.55   -47300.483    4106.1074    -51406.59   0.14334745 
   12300    295.84345   -982.25646    149991.19   -47356.515    4062.6974   -51419.213   0.15719943 
   12400    296.26654   -1026.6633    149997.58   -47345.227    4068.5075   -51413.735   0.14962562 
   12500    299.34125   -993.85321    150019.37   -47274.825    4110.7312   -51385.556   0.15485705 
   12600    304.96238   -994.29828    150052.85   -47239.208    4187.9239   -51427.132   0.14481997 
   12700    292.49858   -999.13774    150051.91   -47317.768    4016.7637   -51334.532   0.15760769 
   12800    297.69772   -958.19886    150026.35   -47295.639    4088.1613     -51383.8   0.15091107 
   12900    298.49977   -991.61704    150031.95   -47362.353    4099.1755   -51461.529   0.15287502 
   13000    298.64303   -1021.6847    150009.25   -47332.833    4101.1429   -51433.976   0.15768599 
   13100    296.14529   -1010.8768    149982.44   -47410.443    4066.8424   -51477.285   0.14763913 
   13200    296.31329   -980.56875    149972.23   -47443.534    4069.1494   -51512.683   0.15259165 
   13300      286.652   -984.76268    149958.18   -47521.429     3936.475   -51457.904   0.14828043 
   13400    293.42126   -974.06871    149945.14   -47508.781    4029.4344   -51538.216    0.1502927 
   13500    290.64875   -994.87508     149975.8   -47418.765    3991.3607   -51410.126   0.15081366 
   13600    301.71196   -976.34397    149990.17   -47366.203    4143.2872    -51509.49   0.15096465 
   13700    297.74186   -985.70436    149979.37    -47398.27    4088.7675   -51487.038   0.14373537 
   13800    294.88315   -985.58086    149996.89   -47345.679      4049.51   -51395.189   0.15884365 
   13900    300.31504   -959.32238     149997.9    -47338.21    4124.1039   -51462.314    0.1485531 
   14000    301.79802   -995.64178    150009.94    -47220.58    4144.4691   -51365.049   0.15824634 
   14100    296.46676   -1024.3279    149983.36   -47308.669    4071.2571   -51379.926   0.16405611 
   14200    301.01659    -1008.858    150007.64   -47320.349     4133.738   -51454.087   0.14762856 
   14300    296.33497   -991.89021    149994.48   -47353.055    4069.4472   -51422.502   0.15532983 
   14400    295.24189   -1020.1142    150000.89   -47414.613    4054.4363    -51469.05   0.14825853 
   14500    296.37703   -1015.7747    149965.92   -47428.817    4070.0248   -51498.842   0.15238993 
   14600    296.76322   -994.49128    149993.83   -47383.296    4075.3282   -51458.625   0.14941755 
   14700    304.06173   -987.65348    149986.95   -47330.655    4175.5557   -51506.211    0.1502297 
   14800    300.92623   -1013.3923     150002.8   -47306.276    4132.4971   -51438.773   0.15636963 
   14900    294.10118   -1016.1875    150020.34   -47317.741    4038.7715   -51356.513   0.15560813 
   15000    292.86248   -1037.9328    149994.17    -47388.99     4021.761   -51410.751   0.15822461 
   15100    294.29703   -998.42586    150004.88   -47405.597     4041.461   -51447.058   0.15131961 
   15200    292.33864    -1000.504    150016.87   -47333.383    4014.5672    -51347.95   0.15571854 
   15300    294.94372   -963.50969    150017.32   -47416.706    4050.3417   -51467.047   0.14616095 
   15400    294.95567   -1023.9547     149981.7   -47407.019    4050.5058   -51457.524   0.15196135 
   15500    297.01304   -993.96405    149984.96   -47340.615    4078.7588   -51419.373   0.14875396 
   15600    302.90984   -985.04304    150026.67   -47215.737    4159.7373   -51375.474   0.15952168 
   15700    298.88087   -1015.4153    150036.88   -47231.044     4104.409   -51335.453   0.14648302 
   15800    298.32839   -1024.3056    150050.06   -47237.502    4096.8221   -51334.324   0.16017609 
   15900    299.77608   -997.67312     150046.4   -47254.437    4116.7026    -51371.14   0.15123625 
   16000    298.45486   -1009.7997    150001.95   -47301.519    4098.5588   -51400.078   0.15107179 
   16100    298.39977   -1010.4491    149979.15   -47336.608    4097.8023   -51434.411   0.15899378 
   16200    300.57194   -958.36502    149995.39   -47347.751    4127.6318   -51475.383   0.14003004 
   16300    295.31241   -1034.1559    149978.11   -47368.257    4055.4048   -51423.662   0.16393278 
   16400    298.07653    -1020.379    149987.54   -47376.661    4093.3634   -51470.024   0.14741513 
   16500    294.88764   -1018.6895    149993.77   -47292.867    4049.5716   -51342.439   0.15867052 
   16600     300.2273   -992.97074    150029.97   -47217.198     4122.899   -51340.097   0.15264694 
   16700     302.1841    -1019.217    150024.92   -47258.781    4149.7709   -51408.552   0.15151627 
   16800    293.80238   -1025.9316    150000.27   -47315.019    4034.6681   -51349.687   0.15184546 
   16900    299.26434   -979.43054    149972.79   -47342.673     4109.675   -51452.348   0.15192315 
   17000    297.62855   -1016.5303    149942.41   -47390.822    4087.2114   -51478.034   0.15152528 
   17100    295.43653    -1010.472     149972.5   -47343.641    4057.1092    -51400.75    0.1531141 
   17200    292.92473   -1011.1865    149968.94   -47399.391    4022.6158   -51422.006   0.15331188 
   17300    291.01557   -1022.8872    149948.47   -47497.424     3996.398   -51493.822   0.15204484 
   17400    295.04283   -992.60619    149926.37   -47488.575    4051.7028   -51540.278   0.15186564 
   17500    293.63112   -1029.6058    149942.81   -47380.422    4032.3164   -51412.739   0.14949809 
   17600    293.84079   -1013.4109    149933.35   -47388.046    4035.1957   -51423.242   0.16084268 
   17700    295.25403     -955.095    149936.97   -47451.141    4054.6031   -51505.745    0.1414126 
   17800    296.80045    -977.0018    149946.69   -47399.415    4075.8395   -51475.254   0.15565598 
   17900    301.57262   -981.18091    149945.83     -47340.6    4141.3737   -51481.974   0.15021743 
   18000    304.97751   -991.51913    149954.21   -47249.876    4188.1317   -51438.008   0.15520624 
   18100    300.28683    -1034.845    149973.03   -47261.503    4123.7165   -51385.219   0.16286582 
   18200    301.14556    -1012.854    149939.56   -47305.887    4135.5091   -51441.396   0.15166792 
   18300    299.02048   -1011.4433    149933.78   -47310.513    4106.3262   -51416.839   0.16262438 
   18400    298.54891   -994.52516    149933.93   -47409.407    4099.8503   -51509.257   0.15279182 
   18500    294.10338   -1007.1499    149935.68   -47337.649    4038.8017   -51376.451   0.15373645 
   18600    299.41899   -1005.0138    149929.51   -47291.326    4111.7987   -51403.124   0.15962179 
   18700    297.47839   -1012.3978    149928.35   -47311.021    4085.1494    -51396.17   0.15978313 
   18800    292.67147   -993.04666    149908.03   -47326.017    4019.1379   -51345.155   0.15822207 
   18900    297.37145   -1024.7758    149929.35   -47289.444    4083.6807   -51373.124   0.15870124 
   19000    296.18797   -1014.6589    149933.44   -47319.707    4067.4285   -51387.136   0.15758922 
   19100    301.24546   -958.57101    149967.04   -47228.627     4136.881   -51365.508   0.15432422 
   19200    297.02338   -962.21811    149960.93   -47254.007    4078.9008   -51332.907   0.15708958 
   19300    296.69984   -1001.7754    149999.72   -47136.452    4074.4578    -51210.91   0.16049567 
   19400    302.56045   -1029.8053    149980.91    -47210.75    4154.9392    -51365.69   0.16583197 
   19500    301.83608   -1024.7816    149997.55   -47213.182    4144.9917   -51358.173    0.1561927 
   19600    297.61916   -1029.8359    150013.17    -47211.46    4087.0824   -51298.543   0.16308297 
   19700    301.23654    -992.6756    149993.19   -47258.091    4136.7585   -51394.849   0.15163666 
   19800    304.70352   -962.40984    149998.61   -47214.894    4184.3691   -51399.263   0.15427684 
   19900    298.72948   -1010.8294    149973.84   -47299.199    4102.3301    -51401.53   0.15805725 
   20000    297.66246   -1047.4323     149967.2   -47330.975     4087.677   -51418.652   0.15344809 
   20100    295.59881   -1029.8482    149933.74   -47371.247    4059.3378   -51430.585   0.15898985 
   20200    295.65324   -973.97558    149943.48   -47347.288    4060.0853   -51407.373   0.15375135 
   20300    298.27579   -1008.1899     149943.3   -47307.245    4096.0997   -51403.344   0.15812959 
   20400    296.14596   -991.66616    149966.66   -47370.368    4066.8516   -51437.219   0.15238245 
   20500    293.11226   -999.95271    149927.33   -47409.669     4025.191    -51434.86   0.15693275 
   20600    293.81965   -993.85546    149925.41   -47431.446    4034.9053   -51466.351   0.14843935 
   20700    296.48355   -1020.5201    149933.62   -47373.862    4071.4875    -51445.35   0.16026767 
   20800     301.1946   -990.07522    149986.44   -47231.732    4136.1826   -51367.915   0.15116878 
   20900    300.24718   -1039.0224     149945.5   -47341.942     4123.172   -51465.114   0.16070517 
   21000    295.81895   -1000.5444    149940.88   -47352.123    4062.3609   -51414.483   0.15294662 
   21100    303.06138   -981.10203     149966.8   -47229.743    4161.8182   -51391.561   0.15204271 
   21200    298.76919    -980.7689    149982.59   -47245.787    4102.8753   -51348.662   0.15978717 
   21300    299.60671   -1013.0722    150005.71   -47241.304    4114.3767   -51355.681   0.15154134 
   21400    301.40933   -980.96367    149954.59   -47279.466    4139.1313   -51418.597   0.15834392 
   21500    304.24626   -980.24083    149975.88   -47186.097    4178.0897   -51364.187   0.15696962 
   21600    307.38732    -976.2543    149953.03   -47184.244    4221.2246   -51405.468   0.15787493 
   21700    294.94463   -1010.5668     149929.7   -47325.455    4050.3542   -51375.809   0.15535652 
   21800    297.61136   -999.77865    149913.45   -47360.517    4086.9753   -51447.493   0.15234762 
   21900    296.50263   -1010.9722    149921.94   -47334.536    4071.7497   -51406.286    0.1559658 
   22000    291.56044   -1008.3887    149931.62    -47364.33    4003.8805    -51368.21   0.15673895 
   22100    294.36837   -988.25788    149936.75   -47404.912    4042.4407   -51447.353   0.14913897 
   22200    290.38525   -1007.3829    149910.48   -47493.131    3987.7421   -51480.873   0.15434023 
   22300    297.37405   -1044.0014    149953.94   -47379.581    4083.7165   -51463.297   0.15161465 
   22400    300.91952    -963.4117    149979.82   -47325.466    4132.4049   -51457.871    0.1547376 
   22500    301.31932   -970.58348    149962.49   -47273.378    4137.8953   -51411.274   0.15600639 
   22600     300.0274   -1003.3143    149970.53   -47318.076    4120.1538    -51438.23   0.15102293 
   22700    296.76867    -1021.761    149937.26   -47380.114    4075.4031   -51455.517   0.15931467 
   22800    300.45222    -991.5835     149938.9   -47297.081    4125.9877   -51423.069   0.15224414 
   22900    297.34005    -1003.664    149936.46   -47340.613    4083.2496   -51423.862   0.15447764 
   23000    296.21616   -1042.7262    149919.33   -47416.277    4067.8156   -51484.092    0.1566339 
   23100    291.97704   -1040.4352    149914.74   -47356.152    4009.6015   -51365.754   0.15304853 
   23200    298.19364     -990.662    149912.48   -47294.236    4094.9716   -51389.207   0.16543872 
   23300    294.58365   -997.08114    149926.79   -47287.739     4045.397   -51333.136   0.15461407 
   23400     296.2649    -1033.388    149905.18   -47343.686    4068.4849    -51412.17   0.16135861 
   23500    300.69814    -1006.153    149933.04   -47225.061    4129.3649   -51354.425    0.1609591 
   23600    296.33686   -1033.2182    149954.09   -47248.911    4069.4732   -51318.384   0.16253094 
   23700    301.50803   -969.68073    149944.67   -47238.463    4140.4867   -51378.949    0.1570366 
   23800    301.61117   -1020.6048    149975.45   -47251.166    4141.9031   -51393.069   0.15820356 
   23900    300.58797   -996.60591     149962.3   -47342.211    4127.8519   -51470.063   0.15166616 
   24000     297.4971   -1027.0558    149957.95   -47291.855    4085.4063   -51377.261   0.15821125 
   24100     300.8954   -1012.3792    149948.61    -47213.71    4132.0738   -51345.784   0.15765373 
   24200    295.51682   -990.66246    149931.35   -47343.699    4058.2118   -51401.911   0.15779424 
   24300    293.38466   -989.82979    149894.78   -47383.393    4028.9318   -51412.325   0.15352863 
   24400    290.70806   -1009.5161    149869.42   -47407.737    3992.1752   -51399.913   0.15318643 
   24500    297.27258   -967.73968    149877.29   -47354.514     4082.323   -51436.837    0.1601134 
   24600    292.65177   -988.27604    149906.78    -47407.33    4018.8674   -51426.197   0.14893553 
   24700    293.49944   -974.33352    149896.09   -47413.957     4030.508   -51444.465   0.16034194 
   24800    295.10137   -982.99014    149931.39   -47351.549    4052.5067   -51404.056   0.14858309 
   24900    295.40525   -982.20144    149933.09   -47415.041    4056.6798   -51471.721   0.15653037 
   25000    291.34338    -989.5173    149924.99   -47398.747    4000.8998   -51399.646   0.15493105 
   25100    292.65568    -997.9868    149941.94   -47455.009     4018.921    -51473.93   0.15469018 
   25200    287.93032   -1049.7963    149908.86   -47590.621    3954.0296   -51544.651    0.1538549 
   25300    291.94069   -1007.4679    149959.66   -47422.554    4009.1023   -51431.656   0.15465094 
   25400    294.40047   -1009.7394    149933.04   -47464.226    4042.8815   -51507.108   0.15431282 
   25500    295.40763   -967.54453    149980.07   -47349.346    4056.7125   -51406.058   0.15536565 
   25600     299.5544   -977.85893    150007.22   -47268.104    4113.6584   -51381.763   0.15937464 
   25700     291.6518   -1021.0959    149999.82   -47360.253    4005.1351   -51365.388   0.15360063 
   25800    296.99297   -998.72793    150018.43   -47213.543    4078.4833   -51292.026   0.16413572 
   25900    299.19787   -1018.2037    150051.82   -47242.077    4108.7623   -51350.839   0.15620233 
   26000    297.19892   -1005.8559    150036.87    -47291.34    4081.3114   -51372.652   0.15899326 
   26100    301.36151    -978.6372    150036.81   -47273.557    4138.4746   -51412.032   0.15231969 
   26200    294.72208   -1012.2207    149979.31   -47384.778    4047.2981   -51432.076   0.15577249 
   26300    298.05318   -999.91081     149978.9   -47339.801    4093.0426   -51432.844   0.15420153 
   26400    292.14536   -1027.4068    149983.67   -47401.132     4011.913   -51413.045    0.1535769 
   26500    299.71336   -999.71784    150006.92   -47312.207    4115.8413   -51428.048   0.15480912 
   26600     298.1569   -986.09401     150001.2   -47254.117     4094.467   -51348.584   0.15622914 
   26700    298.32953   -986.71078    149998.14   -47261.494    4096.8376   -51358.332   0.15643254 
   26800    300.27611   -970.19545     149969.3   -47309.878    4123.5693   -51433.448   0.15483996 
   26900      298.974   -1006.1652    149991.23    -47249.84    4105.6879   -51355.528   0.15397203 
   27000    300.73792   -995.02988    149975.08   -47277.133    4129.9112   -51407.045   0.15619011 
   27100    300.62117   -1008.8716    149950.61    -47219.28    4128.3078   -51347.588   0.16087518 
   27200    300.70286   -965.06987    149957.53   -47289.099    4129.4296   -51418.528    0.1497668 
   27300    302.57408   -973.82847    149974.61   -47114.217    4155.1264   -51269.344   0.16524406 
   27400    299.85121   -986.69499    149963.62   -47246.821    4117.7343   -51364.555   0.15747189 
   27500     293.8637   -1002.6895    149943.53   -47354.353    4035.5102   -51389.863   0.15562371 
   27600    290.88634   -1009.8517    149904.59   -47405.804    3994.6235   -51400.427   0.16002371 
   27700     298.4785   -1009.9747    149921.53   -47298.133    4098.8834   -51397.016   0.15137656 
   27800    297.25585   -1027.4824    149937.85   -47276.508    4082.0933   -51358.602   0.16606984 
   27900    295.77183   -984.22244    149934.35   -47337.569    4061.7139   -51399.283   0.15283311 
   28000    296.75041   -986.00665    149899.36   -47413.534    4075.1523   -51488.687   0.15656696 
   28100    294.81379    -998.4697    149894.88   -47386.159    4048.5575   -51434.716   0.16060456 
   28200    301.10522   -1012.3992     149897.8   -47354.486    4134.9551   -51489.441    0.1520102 
   28300    294.46208   -1013.1109    149874.81   -47373.589    4043.7276   -51417.316   0.16585584 
   28400    291.99292   -1015.3987     149909.5   -47308.185    4009.8196   -51318.004   0.15442563 
   28500    298.43173   -988.08626     149898.1   -47339.087    4098.2411   -51437.328   0.16107926 
   28600    297.75782   -1023.0573    149891.05   -47344.135    4088.9866   -51433.122   0.15599712 
   28700    297.82117   -993.98524    149890.33   -47342.168    4089.8566   -51432.025   0.15973586 
   28800    297.75993   -1029.6921    149871.73   -47384.601    4089.0155   -51473.616   0.15981459 
   28900    299.12279   -989.71161    149883.62   -47356.439    4107.7313    -51464.17   0.15629442 
   29000    299.12147   -985.98975    149880.12   -47293.323     4107.713   -51401.036   0.16243122 
   29100     296.1077   -1031.4513    149906.64    -47295.27    4066.3262   -51361.596    0.1666119 
   29200    305.46934   -991.07838     149917.2   -47222.813    4194.8858   -51417.698   0.15623681 
   29300    301.46541   -972.88767    149922.14   -47228.688    4139.9014   -51368.589   0.16647681 
   29400    301.28734   -991.36818    149950.54   -47247.561     4137.456   -51385.017   0.15534118 
   29500    296.85013   -1034.2459    149925.21   -47285.227    4076.5217   -51361.748   0.16242379 
   29600    302.83131   -1014.1777     149948.5   -47258.757    4158.6588   -51417.416   0.16461305 
   29700    297.56321   -1019.1828    149932.39    -47337.09    4086.3142   -51423.404    0.1526494 
   29800    297.76431   -982.00273    149896.23    -47434.29    4089.0757   -51523.365   0.16428027 
   29900    292.86452   -1019.1425    149906.47   -47410.136    4021.7889   -51431.925   0.15240304 
   30000    298.85276   -980.12518    149893.98   -47373.749     4104.023   -51477.772   0.16648213 
   30100    289.91018   -1011.0845    149908.45   -47343.002    3981.2183    -51324.22   0.16321703 
   30200    295.04937   -1030.2054    149912.17   -47357.539    4051.7925   -51409.331   0.16042514 
   30300    293.55584   -1019.0899    149909.01   -47343.735    4031.2825   -51375.017   0.16291915 
   30400    298.01055   -1066.7598    149909.51   -47381.121    4092.4573   -51473.578   0.15952312 
   30500    290.24338   -1049.7647    149862.07   -47477.433    3985.7939   -51463.226   0.16043692 
   30600    297.01405   -983.07562    149913.99   -47357.397    4078.7728    -51436.17   0.15919801 
   30700    298.38791   -965.69121    149915.74   -47388.427    4097.6394   -51486.066   0.15634399 
   30800    296.59441   -964.41125    149930.55   -47316.772      4073.01   -51389.782   0.15724189 
   30900    298.57959   -996.58459    149935.73   -47294.252    4100.2716   -51394.523   0.16332897 
   31000    294.20341   -1010.0244    149958.53   -47333.719    4040.1753   -51373.895   0.15889499 
   31100    293.00631   -991.94769    149927.12   -47343.428    4023.7361   -51367.164   0.16216577 
   31200    298.82393   -1000.0522    149947.13    -47287.28    4103.6271   -51390.907   0.15956775 
   31300    302.58433   -997.00486    149965.36   -47219.425    4155.2671   -51374.692    0.1650061 
   31400    294.11629   -999.62588    149941.71   -47338.254     4038.979   -51377.233   0.16219669 
   31500    296.27005   -979.94471    149969.63   -47286.173    4068.5557   -51354.729   0.16227297 
   31600    293.82493   -970.37254    149955.96   -47309.024    4034.9778   -51344.002   0.16318875 
   31700    300.63996   -1011.5166    149953.34    -47278.69    4128.5659   -51407.256   0.15871587 
   31800    297.19363   -1036.5594    149958.76   -47345.921    4081.2389    -51427.16   0.16256907 
   31900    296.45332   -1002.1735    149950.37   -47340.792    4071.0725   -51411.864   0.15519018 
   32000    295.96485   -977.37334    149971.54    -47287.95    4064.3645   -51352.314   0.16438406 
   32100    301.41743   -1022.0704    149961.45   -47331.971    4139.2425   -51471.214   0.15464217 
   32200     294.8115   -1018.4669     149941.6   -47455.658     4048.526   -51504.184    0.1576521 
   32300    297.44424   -1027.8104    149932.96   -47396.425    4084.6804   -51481.106    0.1591107 
   32400    295.49423    -995.2319    149908.42   -47489.553    4057.9016   -51547.454   0.15352879 
   32500    295.96035   -1034.9083    149939.33   -47344.365    4064.3027   -51408.668   0.16297543 
   32600    299.90587   -982.22619    149982.33    -47298.19    4118.4849   -51416.675   0.15497494 
   32700    294.73067   -992.25826     149964.9   -47392.891    4047.4161   -51440.307   0.15868216 
   32800    298.22453   -994.29005    149975.96   -47252.799    4095.3958   -51348.195   0.15573347 
   32900    294.24284   -1004.4892    149978.11   -47334.415    4040.7169   -51375.132   0.16394249 
   33000    292.88209   -993.83729    149991.18   -47318.729    4022.0302    -51340.76   0.15264363 
   33100    293.00116   -995.40446    149976.46   -47357.475    4023.6653    -51381.14   0.16438535 
   33200    292.47278   -985.36551    149995.29    -47333.09    4016.4093   -51349.499   0.15688348 
   33300    294.07317   -979.49023    149981.21   -47334.748    4038.3868   -51373.135   0.15675189 
   33400    295.83972   -980.02217     149960.9   -47351.041    4062.6461   -51413.688   0.16033526 
   33500    298.56976   -992.46011    149953.81   -47374.378    4100.1367   -51474.515   0.15007503 
   33600    298.36691   -1016.0276    149977.97   -47393.833     4097.351   -51491.184   0.16118021 
   33700    296.70861   -968.80748    149989.11   -47281.098    4074.5783   -51355.676   0.15363101 
   33800    303.85968   -1006.1694    150010.03   -47171.339    4172.7809    -51344.12   0.16234112 
   33900    297.34509   -1028.1815    150018.41    -47202.51    4083.3188   -51285.829   0.16346091 
   34000    298.85871   -1003.4794    150010.25   -47348.763    4104.1047   -51452.868   0.15562414 
   34100    297.14906   -990.07122    149990.13   -47370.466    4080.6268   -51451.093   0.15479835 
   34200    288.66597   -1057.0456    149973.17   -47371.872     3964.132   -51336.004   0.16823106 
   34300    294.78279   -992.48917    149961.77   -47398.491    4048.1318   -51446.623   0.14911669 
   34400    293.61933   -989.52209    149981.89   -47329.311    4032.1545   -51361.465   0.16551128 
   34500    304.16277   -984.12898    150012.04   -47250.798    4176.9432   -51427.741    0.1575575 
   34600    300.74325   -1041.3074    150052.58   -47252.525    4129.9843   -51382.509    0.1601966 
   34700    293.55449   -998.29387    150025.37   -47369.343     4031.264   -51400.607   0.16037563 
   34800    294.96282   -961.95381     150009.1    -47363.92    4050.6041   -51414.524   0.14711061 
   34900    293.75732   -1002.3034    149999.51   -47343.356    4034.0494   -51377.405   0.16404604 
   35000    302.13168   -981.62453    149996.13   -47321.657     4149.051   -51470.708   0.15542205 
   35100    299.21503    -1001.384    149986.57   -47335.368    4108.9978   -51444.366   0.15960094 
   35200    297.23496   -1043.5074    149991.19   -47274.197    4081.8064   -51356.003   0.16217763 
   35300    294.30139    -981.2492    149978.35   -47349.331    4041.5209   -51390.852   0.15685649 
   35400    295.38437   -1011.3994    149956.92   -47354.578    4056.3929   -51410.971   0.15922137 
   35500    293.88812   -1000.2011    149980.59   -47341.246    4035.8456   -51377.092    0.1571442 
   35600    298.17758   -972.58989    149992.93   -47313.873     4094.751   -51408.624   0.16197466 
   35700    300.57473   -1011.3218    150009.36   -47339.666    4127.6701   -51467.336   0.15531864 
   35800    301.14785   -990.82487    150013.48   -47160.278    4135.5406   -51295.818   0.16056973 
   35900    297.89814   -1016.8373    149982.67   -47280.145    4090.9135   -51371.058   0.16437345 
   36000    289.93702   -996.37724    150009.28   -47337.305    3981.5868   -51318.892   0.15989322 
   36100    293.78242   -1030.6508    149988.33   -47385.278     4034.394   -51419.673   0.15783208 
   36200    295.86673    -1041.061    149972.29   -47415.689    4063.0171   -51478.706   0.15684196 
   36300    299.03063   -984.75214     149951.2   -47346.132    4106.4656   -51452.598   0.15267354 
   36400    294.15188   -981.11739    149947.17   -47401.787    4039.4677   -51441.255   0.16107473 
   36500    295.58311   -985.20292    149937.68    -47373.27    4059.1222   -51432.392   0.15416966 
   36600    292.33757   -995.53189    149961.16   -47371.662    4014.5526   -51386.215    0.1605671 
   36700    292.61915   -1032.4917    149942.49   -47412.453    4018.4194   -51430.872   0.16474382 
   36800     296.0801   -1012.7682    149939.82    -47492.09    4065.9471   -51558.037   0.14542171 
   36900    290.71555   -1006.6949     149915.7   -47400.376    3992.2781   -51392.654    0.1671564 
   37000    294.02492   -1019.8355    149961.13   -47389.923    4037.7243   -51427.647   0.15565424 
   37100    299.29693   -1010.3269    149950.18   -47432.714    4110.1226   -51542.837   0.15973403 
   37200    295.75108    -1006.518    149932.61       -47433    4061.4289   -51494.428   0.15507552 
   37300    292.91301   -968.10337    149954.37   -47432.715    4022.4548    -51455.17   0.15359424 
   37400    296.89083   -1002.1428    149958.98   -47443.815    4077.0806   -51520.896   0.15739306 
   37500    293.73194   -962.10586    149951.78   -47414.922    4033.7009   -51448.623   0.15491626 
   37600    290.92657    -1022.252    149942.92   -47463.176    3995.1759   -51458.352   0.15748194 
   37700    293.58412   -969.77407    149926.17   -47547.517    4031.6708   -51579.188   0.15036445 
   37800    291.09173   -994.42928    149905.05   -47561.911    3997.4439   -51559.354   0.15310072 
   37900    296.42969   -979.35445    149945.81   -47471.242    4070.7479    -51541.99   0.15019573 
   38000     292.8109    -994.0565    149957.04   -47402.784    4021.0526   -51423.836    0.1594637 
   38100    295.83662   -984.54244    149976.03   -47337.863    4062.6035   -51400.466   0.15447492 
   38200    297.27401   -1016.8558    149979.81   -47305.216    4082.3426   -51387.559   0.16898922 
   38300    295.53583   -1018.3225    149995.03   -47357.402    4058.4729   -51415.875   0.15588727 
   38400     298.8691   -990.44034    149981.44   -47289.917    4104.2474   -51394.164   0.16450976 
   38500    299.37206    -1007.262     150016.1    -47351.06    4111.1543   -51462.214   0.15341799 
   38600    298.50113   -999.60402    149988.38   -47308.447    4099.1942   -51407.641   0.16045694 
   38700    297.48758   -999.19935    149991.38   -47277.333    4085.2756   -51362.608   0.16514961 
   38800    295.24854   -975.96308    149975.74   -47313.555    4054.5277   -51368.082   0.15878873 
   38900    293.38964   -1002.4644    149995.89   -47250.281    4029.0002   -51279.281   0.16639837 
   39000    299.24028    -998.5731    150014.34   -47313.424    4109.3447   -51422.768   0.15776238 
   39100    297.76561   -1014.1341    149971.34   -47331.975    4089.0936   -51421.069   0.16137454 
   39200    290.65023   -1004.8574    149942.52   -47464.367    3991.3811   -51455.748   0.15462499 
   39300    289.55782   -991.16549    149924.79   -47475.894    3976.3794   -51452.274    0.1595592 
   39400    292.69904   -996.36856    149945.41   -47342.741    4019.5165   -51362.257    0.1587909 
   39500    296.61633   -1021.6958    149956.23   -47329.306     4073.311   -51402.617   0.16332794 
   39600     299.8972   -991.20208    149950.37   -47320.497    4118.3658   -51438.863   0.15889917 
   39700    298.19782    -1001.067    149982.71   -47296.996     4095.029   -51392.025    0.1634867 
   39800    291.22036   -969.59679    149947.43   -47324.061    3999.2104   -51323.272   0.15844899 
   39900    298.54522   -993.07575    149976.26   -47292.401    4099.7997   -51392.201   0.16185245 
   40000    297.06382   -1020.1466    149981.36   -47362.591    4079.4563   -51442.047   0.15878806 
   40100    299.09173   -976.47044     149965.7   -47374.517    4107.3047   -51481.821   0.15240782 
   40200    296.53999   -1027.9312    149972.32   -47350.309    4072.2627   -51422.572   0.16352272 
   40300    293.86667   -997.17974    149960.65   -47363.419     4035.551    -51398.97   0.15482066 
   40400     292.5066   -1041.4304    149944.79    -47454.04    4016.8738   -51470.914   0.15691103 
   40500    300.98446    -950.2364    149975.68   -47306.342    4133.2968   -51439.639   0.15715983 
   40600    295.32044   -996.98896    149980.79   -47379.319    4055.5151   -51434.834   0.15254515 
   40700    294.95152   -1002.7011    149966.92   -47382.624    4050.4488   -51433.073   0.15755608 
   40800    294.34923   -1024.8569    149980.89   -47359.446    4042.1779   -51401.624   0.15989853 
   40900    293.78849   -1002.0543    149987.49    -47344.78    4034.4775   -51379.258   0.15587716 
   41000    295.18656   -1002.4538     149993.2   -47416.165    4053.6766   -51469.842   0.15827203 
   41100    294.88056   -963.80396    149976.71   -47379.747    4049.4743   -51429.222   0.15673408 
   41200    295.37963   -971.59886     149990.9   -47265.142    4056.3279    -51321.47   0.15615799 
   41300    298.11315    -977.9195    150005.78   -47355.946    4093.8662   -51449.813   0.16234261 
   41400    297.76008   -974.40471    149993.13   -47298.407    4089.0177   -51387.425   0.15349044 
   41500    296.25821   -1045.9938    150002.76   -47318.149    4068.3931   -51386.542   0.16421733 
   41600    295.00663   -1005.8112    150003.53    -47323.57    4051.2057   -51374.775   0.15528077 
   41700    294.87157   -1001.7265    149974.36   -47440.234    4049.3509   -51489.585   0.15237003 
   41800    297.47804   -989.90141    149971.09   -47345.573    4085.1445   -51430.717   0.15961502 
   41900    292.62221   -1011.3362    149989.44   -47426.657    4018.4614   -51445.118   0.15402711 
   42000    292.99574   -1014.3597    149979.95   -47395.718    4023.5909   -51419.308   0.15940419 
   42100    289.33073    -1015.076    149973.09   -47471.791    3973.2608   -51445.052   0.15263209 
   42200    290.79343   -985.11406    149983.45   -47427.426    3993.3475   -51420.773   0.15553164 
   42300    296.11396   -1010.6071    149988.57   -47388.412    4066.4121   -51454.824   0.15306511 
   42400    291.95014   -994.42345    149995.24   -47419.633    4009.2322   -51428.866   0.15984858 
   42500    294.41321    -1005.952    150014.86   -47380.704    4043.0564    -51423.76   0.15563527 
   42600    294.58644   -1027.4945    149999.46   -47419.415    4045.4354    -51464.85   0.15501093 
   42700    294.17886   -998.71677    149982.87   -47490.293    4039.8382   -51530.131   0.14995024 
   42800    295.15904    -989.6085    149977.85   -47401.067    4053.2986   -51454.366   0.15990592 
   42900    298.85581   -1006.2539    149986.17   -47418.147    4104.0648   -51522.212   0.15147127 
   43000    292.40838   -1007.3461    149970.74    -47440.43    4015.5249   -51455.955   0.15769644 
   43100     300.2658   -1004.8616    149988.53    -47355.55    4123.4277   -51478.978   0.15660464 
   43200    296.44696   -991.55691    149999.75    -47372.79    4070.9851   -51443.775    0.1514157 
   43300    300.11373   -992.88619     149975.8   -47363.759    4121.3394   -51485.098   0.16325647 
   43400    299.68481   -996.61236    149996.77   -47291.935    4115.4492   -51407.384   0.15167715 
   43500    296.64362   -1080.3032    149999.22   -47355.121    4073.6858   -51428.807   0.16602405 
   43600    293.08304   -1042.5431    149989.26   -47397.919    4024.7898   -51422.709   0.15476221 
   43700    295.11593   -983.98047    149939.56   -47438.978    4052.7066   -51491.685   0.15255813 
   43800    292.85247   -990.06254    149933.44   -47477.079    4021.6234   -51498.702     0.155638 
   43900    297.71727    -989.2448    149927.75   -47384.798    4088.4298   -51473.228   0.15384713 
   44000    292.16757    -1013.411    149912.17   -47472.676    4012.2181   -51484.894   0.15880956 
   44100    297.25006   -985.08808    149957.09    -47433.48    4082.0138   -51515.494   0.15428347 
   44200    294.61844    -1024.544    149953.57   -47387.702    4045.8748   -51433.577   0.15769293 
   44300    293.20421   -995.77762    149961.01   -47391.171    4026.4537   -51417.624   0.15967432 
   44400    299.06589   -951.79292    149970.05   -47404.468    4106.9498   -51511.418   0.15287402 
   44500    293.01335   -1017.4265    149956.99   -47408.916    4023.8328   -51432.749   0.15437824 
   44600    292.23211    -1026.614    149944.68   -47416.362    4013.1044   -51429.467   0.16143683 
   44700    295.55249   -1009.2265    149963.29   -47401.488    4058.7017   -51460.189   0.15113492 
   44800     296.6319   -990.78464    149947.92   -47355.821    4073.5248   -51429.346   0.15771668 
   44900    299.11168   -977.25836    149964.12   -47340.875    4107.5787   -51448.454   0.15163287 
   45000    292.01926   -981.68206    149944.69   -47384.887    4010.1813   -51395.068   0.15657929 
   45100    297.95914    -983.6429    150012.55   -47268.845    4091.7513   -51360.597   0.16373483 
   45200    298.81985   -949.70647     150014.8   -47302.302     4103.571   -51405.873   0.15063558 
   45300    297.36352   -1018.6284    150012.48   -47332.894    4083.5718   -51416.466   0.16346194 
   45400    296.73766   -1003.3078    149989.65   -47401.517    4074.9772   -51476.494   0.15248974 
   45500    292.20912   -1016.6961    149974.08   -47334.498    4012.7886   -51347.286   0.16473654 
   45600    298.36483   -1021.6036    149983.28    -47329.68    4097.3224   -51427.003   0.15620056 
   45700    304.09499   -979.71783    149990.92   -47280.421    4176.0125   -51456.433   0.15849753 
   45800    300.13569   -1006.0473    149983.56   -47359.847     4121.641   -51481.488   0.15664852 
   45900    304.37053   -998.95476    150016.02   -47222.103    4179.7963   -51401.899    0.1528021 
   46000    297.69899    -1015.884    149998.01   -47284.523    4088.1787   -51372.702   0.16374157 
   46100    302.64729    -1034.975    150001.75   -47189.609    4156.1318    -51345.74   0.16249128 
   46200    300.47559   -1010.1276    150011.84    -47244.32    4126.3087   -51370.628   0.16043624 
   46300    298.24638   -1036.8637    150010.21   -47236.646    4095.6958   -51332.342   0.16471604 
   46400    300.68873   -1004.7156    150003.62   -47283.667    4129.2357   -51412.902    0.1639011 
   46500    295.01767   -1020.9304    149998.42   -47248.973    4051.3573   -51300.331   0.15894953 
   46600    297.84309   -999.50953    149948.84   -47308.557    4090.1575   -51398.714    0.1663162 
   46700     303.7436   -999.53952    149964.12    -47238.34    4171.1869   -51409.527    0.1578091 
   46800    298.24283   -1038.9247    149978.38   -47256.004    4095.6471   -51351.651   0.16858079 
   46900    297.05109   -1040.9879    149955.27   -47310.936    4079.2814   -51390.217    0.1608655 
   47000    297.01729    -1005.535    149951.26   -47342.718    4078.8172   -51421.535   0.15660419 
   47100    294.02076    -1021.892    149963.88   -47358.396    4037.6671   -51396.063    0.1656399 
   47200    293.09998   -974.49356    149940.48   -47319.372    4025.0224   -51344.394   0.15516696 
   47300    296.90157   -989.09783    149928.79   -47448.119    4077.2281   -51525.347   0.15578738 
   47400    296.61678   -990.04318    149929.58   -47379.401    4073.3172   -51452.718   0.15664714 
   47500    296.25981   -982.75856    149941.63   -47386.602    4068.4151   -51455.017   0.15752482 
   47600     296.7118   -991.46766    149949.93   -47379.518    4074.6221    -51454.14   0.15719959 
   47700    294.09283    -1005.311    149971.36    -47301.97    4038.6569   -51340.627   0.16268363 
   47800    293.10558   -1002.8413    149975.91   -47362.391    4025.0993    -51387.49   0.15691522 
   47900    294.16491   -974.47808    149968.65   -47415.333    4039.6467    -51454.98   0.15851427 
   48000     293.3668   -1021.3105    149980.23   -47370.471    4028.6866   -51399.157   0.15773607 
   48100     292.7172   -1014.5861    149954.35   -47414.771    4019.7659   -51434.537   0.15858723 
   48200    290.68965   -976.40369    149953.95    -47398.68    3991.9223   -51390.602   0.16238424 
   48300    296.80858   -983.61228     149994.4   -47358.794    4075.9511   -51434.746   0.15545928 
   48400    293.99173   -1025.8142    149984.41   -47397.263    4037.2685   -51434.532   0.16402958 
   48500    292.70179   -996.84693     149953.8    -47483.08    4019.5542   -51502.635   0.15046023 
   48600    292.37569   -1025.5904    149942.04   -47477.128     4015.076   -51492.204   0.15666297 
   48700    298.75603   -984.80292     149974.6   -47364.436    4102.6946   -51467.131   0.15544732 
   48800    290.98939   -1000.3354    149959.45   -47353.871    3996.0386    -51349.91   0.16211013 
   48900    296.19798   -1009.1628    149971.37    -47379.11     4067.566   -51446.676   0.15828738 
   49000    295.69896   -984.95717    149980.63   -47419.563    4060.7132   -51480.276   0.15299259 
   49100    291.80146   -1031.7216    149970.83   -47326.735    4007.1904   -51333.926   0.16037216 
   49200    297.43757   -1022.2078    149966.34   -47362.618    4084.5887   -51447.206   0.15529908 
   49300     295.3481   -1012.8855     149955.6   -47431.522    4055.8949   -51487.417   0.15704374 
   49400    296.19225   -989.73657     149954.3   -47448.059    4067.4873   -51515.546   0.15296389 
   49500    293.27217   -1035.1699    149952.45   -47386.649     4027.387   -51414.036   0.15993252 
   49600    295.81636   -1018.1239    149939.98   -47380.507    4062.3253   -51442.832   0.15895231 
   49700    295.90779   -997.29439    149930.58   -47386.213    4063.5809   -51449.794   0.16532645 
   49800    293.08032   -1026.5153    149926.57   -47388.347    4024.7524   -51413.099   0.15730341 
   49900    295.55275   -1017.8774    149940.81    -47373.72    4058.7053   -51432.425   0.16355325 
   50000    294.26107   -1024.6363    149938.09   -47382.622    4040.9672   -51423.589   0.15924748 
   50100    299.27299    -988.5232    149960.18   -47235.716    4109.7938   -51345.509   0.16191259 
   50200    296.34717   -968.37651    149958.73   -47314.295    4069.6147   -51383.909   0.16638859 
   50300    298.51491   -990.55163    149950.57   -47329.182    4099.3835   -51428.565   0.15334832 
   50400    298.08039   -988.86372    149955.37   -47350.484    4093.4164   -51443.901   0.16526954 
   50500    301.16665   -978.05474    149969.18   -47254.704    4135.7988   -51390.503   0.15547951 
   50600    303.56367   -1009.8067    149984.17   -47180.289    4168.7159   -51349.005   0.16565254 
   50700    292.25371   -1007.9055    149950.16   -47420.906    4013.4009   -51434.307   0.16269546 
   50800    294.16411   -991.72976    149938.38   -47404.037    4039.6356   -51443.673   0.15653064 
   50900    298.49088    -989.8703    149936.84   -47433.302    4099.0534   -51532.355   0.15531659 
   51000    295.26796   -985.81792    149937.23    -47394.56    4054.7944   -51449.354   0.16074153 
   51100    290.05034    -1004.865    149911.11   -47394.866     3983.143   -51378.009   0.16298782 
   51200     291.2479   -988.81787     149926.7   -47458.336    3999.5885   -51457.924   0.16276906 
   51300    295.13003   -975.48321    149884.85   -47459.661    4052.9002   -51512.561   0.16039124 
   51400    296.23964   -990.99297    149930.41   -47395.118    4068.1381   -51463.256   0.15782472 
   51500     292.9209   -1025.0807    149905.24   -47454.877    4022.5632    -51477.44    0.1650357 
   51600    294.46282   -999.86126    149922.48   -47367.494    4043.7377   -51411.232   0.15568338 
   51700    298.00263   -978.12268    149934.55   -47263.876    4092.3485   -51356.224   0.17245204 
   51800    296.86079   -1049.7494    149936.79   -47311.596    4076.6681   -51388.264   0.15983883 
   51900    294.39146   -1005.4946    149934.37   -47382.911    4042.7577   -51425.668   0.16121545 
   52000    298.18709   -989.57277    149922.79   -47364.275    4094.8817   -51459.157   0.15950357 
   52100    293.20779   -1010.0912    149905.98   -47442.898    4026.5029   -51469.401     0.156759 
   52200    293.92438    -988.6254    149911.31   -47500.557    4036.3436     -51536.9   0.16216981 
   52300    294.77171   -997.86799     149925.9   -47478.167    4047.9796   -51526.147   0.15250607 
   52400    287.44536   -1005.0803    149914.85   -47569.376    3947.3699   -51516.745   0.15814906 
   52500    293.67466   -971.98477    149927.04   -47416.887    4032.9143   -51449.802    0.1575857 
   52600    296.49139   -997.48026     149955.4   -47384.545    4071.5952    -51456.14   0.16035168 
   52700    298.98171   -958.18669    149958.87   -47320.885    4105.7938   -51426.679   0.16141812 
   52800    300.19991   -980.79263    149985.61   -47287.202    4122.5229   -51409.725   0.15823221 
   52900    299.28364   -1004.2108     149994.1   -47315.895    4109.9401   -51425.835   0.15918913 
   53000    301.18509   -969.00651    150027.33   -47265.081     4136.052   -51401.133   0.16221565 
   53100    291.42992    -1009.493     150000.4   -47404.586    4002.0882   -51406.674   0.15323736 
   53200    293.39275   -1007.5743    149991.98   -47461.301    4029.0429   -51490.344    0.1564519 
   53300    296.78415   -971.55792    149984.25   -47420.463    4075.6157   -51496.079   0.15518353 
   53400     298.9618    -1017.934    149984.88   -47347.837    4105.5204   -51453.357   0.15778876 
   53500    294.90688   -1000.3981    149961.08   -47331.237    4049.8358   -51381.073   0.17124253 
   53600    293.74627   -1013.6239    149952.07   -47403.759    4033.8977   -51437.657   0.15634447 
   53700    293.11943   -1028.9153     149966.7    -47390.33    4025.2895    -51415.62   0.17032974 
   53800    301.76215    -976.8989    149956.59   -47413.865    4143.9765   -51557.842   0.15322291 
   53900    298.98255   -987.64572    149964.25   -47421.321    4105.8054   -51527.127   0.15772154 
   54000     300.0956   -961.08795    149961.27   -47428.282    4121.0904   -51549.372   0.16052362 
   54100    294.54396   -1013.4087    149979.28   -47403.141     4044.852   -51447.993   0.15923327 
   54200    297.05124   -1022.4499    149979.38    -47352.24    4079.2834   -51431.523    0.1698292 
   54300    297.72228   -1003.5479     150002.5    -47279.65    4088.4986   -51368.149   0.16011013 
   54400    298.04285   -997.66499    150007.64   -47191.981    4092.9008   -51284.881   0.16437519 
   54500    295.96194   -977.32542    149996.88   -47264.303    4064.3245   -51328.628   0.16001802 
   54600    300.03775    -979.8625    149972.49   -47284.178     4120.296   -51404.474   0.16431252 
   54700    299.01137   -968.40999    149987.22   -47348.956    4106.2011   -51455.157   0.15692388 
   54800    299.15288   -954.38163    149978.13   -47270.455    4108.1445     -51378.6   0.16491303 
   54900    298.02905    -991.5237    149979.02    -47285.94    4092.7114   -51378.651   0.15895284 
   55000    299.36703   -1006.1291    149968.84    -47317.02    4111.0852   -51428.105   0.16368511 
   55100    299.48182   -1053.0444    149951.42   -47335.448    4112.6617    -51448.11   0.16706707 
   55200    291.13277   -1010.3098    149928.34   -47451.139    3998.0075   -51449.147   0.15934033 
   55300    293.72383   -989.91169    149915.06   -47493.091    4033.5895   -51526.681   0.15837281 
   55400    291.51531   -987.68282    149905.35   -47452.934    4003.2608   -51456.195   0.15745882 
   55500    297.92163   -989.56159    149905.31   -47411.891    4091.2362   -51503.127   0.16179558 
   55600    296.36956   -951.93346    149947.98   -47308.087    4069.9223   -51378.009   0.16209758 
   55700    303.03311   -1013.5531    149970.79   -47270.148      4161.43   -51431.579    0.1685722 
   55800    300.12084   -1045.8592    149980.52   -47257.696     4121.437   -51379.133   0.16354515 
   55900    299.97468   -994.14089    149972.68   -47276.445    4119.4299   -51395.875   0.16803316 
   56000    296.77476   -1007.1541    149952.71   -47279.727    4075.4867   -51355.214   0.16440003 
   56100    299.43784   -969.93989    149960.07   -47264.898    4112.0577   -51376.955   0.16695086 
   56200    297.28147   -985.11917    149972.31   -47304.769    4082.4452   -51387.214   0.15945042 
   56300    293.36367   -1038.2969    149951.17   -47373.822    4028.6435   -51402.466   0.16410313 
   56400    295.01456   -995.84077    149922.53   -47423.977    4051.3145   -51475.291   0.15562264 
   56500    293.43333   -976.42329    149903.81   -47475.182    4029.6002   -51504.782   0.15432686 
   56600    291.05195    -981.4667    149900.25   -47532.351    3996.8977   -51529.249   0.15911103 
   56700    291.55611   -1025.7692    149930.21   -47517.281    4003.8211   -51521.103   0.15283538 
   56800    291.57513   -1014.8391    149937.98   -47397.507    4004.0822   -51401.589   0.17062189 
   56900    291.47376   -1023.0863    149938.17   -47498.141    4002.6902   -51500.831   0.15484066 
   57000    294.21681   -1011.0636    149916.15   -47480.861    4040.3594    -51521.22   0.15653932 
   57100      295.557   -1000.5887    149952.29   -47397.481    4058.7637   -51456.245   0.16535165 
   57200    294.83186   -1032.1586    149993.13   -47351.778    4048.8056   -51400.584   0.15416631 
   57300    296.77484   -968.57192    149964.74   -47488.852    4075.4878    -51564.34   0.15786839 
   57400    295.70648    -977.5721    149977.73   -47366.941    4060.8164   -51427.758   0.15385849 
   57500    297.42721   -981.84883    150007.39   -47337.101    4084.4464   -51421.548   0.15458367 
   57600    298.86485   -1000.2837    149952.58   -47449.225    4104.1891   -51553.414   0.16079906 
   57700    298.85602   -972.19196    149968.53   -47348.248    4104.0678   -51452.316   0.15234896 
   57800    296.33444   -997.31233    149999.48   -47302.354    4069.4399   -51371.794    0.1646366 
   57900    299.40726   -980.27968    150004.23   -47343.854    4111.6376   -51455.492    0.1571934 
   58000    294.98443   -984.08232    149980.71   -47297.845    4050.9007   -51348.746    0.1545248 
   58100    301.15627   -966.59034    149971.84   -47352.987    4135.6561   -51488.643   0.16433089 
   58200    298.47993   -987.96963    149973.71    -47243.25    4098.9031   -51342.153   0.16162356 
   58300    297.44584   -993.24719    149975.75    -47316.23    4084.7024   -51400.933   0.16112926 
   58400    295.32576   -1013.1315    149954.25   -47357.147    4055.5881   -51412.735   0.16128257 
   58500    293.61015   -1006.4319    149950.39   -47355.215    4032.0284   -51387.243   0.15181018 
   58600    295.76222   -971.10879    149926.79   -47389.986    4061.5818   -51451.568   0.16692568 
   58700    294.48076    -970.2664    149931.43   -47340.835    4043.9841   -51384.819   0.15378804 
   58800    296.10255   -1053.3833    149934.97   -47386.081    4066.2555   -51452.337   0.16629022 
   58900    297.50998   -1024.2621    149983.85   -47304.443    4085.5832   -51390.026   0.15914515 
   59000    302.15984   -1036.9014    149991.83   -47265.484    4149.4377   -51414.922   0.16231471 
   59100    297.96719   -976.35662     149988.3   -47223.023    4091.8619   -51314.885   0.16844567 
   59200    297.17187   -985.98573    149983.62   -47346.665      4080.94   -51427.605   0.15637337 
   59300    295.78207   -1026.7835    149955.85   -47327.118    4061.8545   -51388.972   0.16874655 
   59400    295.47131   -1001.5831    149976.95   -47305.164    4057.5869    -51362.75   0.15699883 
   59500    293.01125   -1002.3806    149963.54   -47417.752    4023.8039   -51441.555   0.15732955 
   59600    294.56592   -975.06286    149966.68   -47394.888    4045.1535   -51440.042   0.15863053 
   59700    297.12796   -998.35793     149961.9   -47318.918    4080.3371   -51399.255   0.16034841 
   59800    294.57107   -1029.2557    149935.51   -47444.154    4045.2243   -51489.378   0.15603973 
   59900    297.24083   -1002.8347    149923.36   -47434.381     4081.887   -51516.268   0.15756973 
   60000     291.7408   -995.57525    149927.47   -47398.744    4006.3573   -51405.101    0.1571592 
   60100    298.63717   -977.28332    149914.89   -47356.582    4101.0624   -51457.644   0.16332312 
   60200    293.68426   -948.03616     149904.4   -47320.612    4033.0461   -51353.658    0.1594336 
   60300    299.59236   -994.11677    149938.73    -47286.78    4114.1796   -51400.959   0.16511513 
   60400    300.60541   -939.15834    149946.26    -47225.29    4128.0914   -51353.382   0.15858419 
   60500    298.85489   -1015.5991    149978.21   -47258.391    4104.0523   -51362.443   0.16256718 
   60600    297.03752    -1003.434    149956.17   -47321.429    4079.0951   -51400.524   0.16065943 
   60700    306.11759   -1002.7583    149989.42   -47142.746    4203.7879   -51346.534   0.16220858 
   60800    301.86799   -1020.3065    150010.84   -47169.177    4145.4299   -51314.607   0.16611831 
   60900    298.78818   -1010.6841    150014.87   -47271.345    4103.1361   -51374.482    0.1582561 
   61000    298.85473   -983.94425    149965.93   -47314.983    4104.0501   -51419.033   0.16130865 
   61100    299.15841   -1015.5003     149978.5   -47302.948    4108.2204   -51411.168   0.15923799 
   61200    306.25489   -1022.4035    150000.06   -47243.528    4205.6734   -51449.202   0.16033794 
   61300    288.38326   -1005.9596    149988.56   -47336.695    3960.2497   -51296.945   0.15743395 
   61400    295.97005   -989.49986    149973.53    -47392.18    4064.4359   -51456.616   0.15868228 
   61500    299.89401   -971.14709     149986.6   -47328.604     4118.322   -51446.926   0.15811121 
   61600    298.80179   -984.77755    149984.81     -47375.4    4103.3231   -51478.723   0.15014257 
   61700    293.67989   -981.77872    149976.12   -47440.616     4032.986   -51473.602   0.15821449 
   61800    291.67577   -988.35601    150003.63   -47427.925    4005.4643   -51433.389   0.15153982 
   61900    302.23667   -1001.0785    150012.66   -47324.568    4150.4928   -51475.061    0.1596906 
   62000    295.37633   -989.07325     150002.2   -47337.633    4056.2826   -51393.915   0.15932179 
   62100    295.51825   -1020.0007    149992.97   -47413.173    4058.2315   -51471.404   0.15183069 
   62200    295.88169   -1001.3796    149993.15   -47295.359    4063.2225   -51358.582   0.16735873 
   62300    297.51453   -993.64107     149992.1   -47344.525    4085.6456   -51430.171   0.15201744 
   62400    294.09628   -976.74696    149973.96   -47396.016    4038.7041    -51434.72   0.15934907 
   62500    298.08429   -1011.1159    149974.95    -47387.23    4093.4699     -51480.7   0.16018296 
   62600    291.06773   -1001.7025    149984.87   -47413.639    3997.1143   -51410.753   0.15611848 
   62700    295.93731   -1032.1425    149979.98   -47459.405    4063.9863   -51523.392   0.15881827 
   62800     294.9388   -1003.9235     149964.9   -47426.256    4050.2742    -51476.53   0.15842242 
   62900      299.135   -990.37972    149968.24   -47328.723    4107.8989   -51436.622   0.16265735 
   63000     299.9253   -989.61184    149983.76   -47363.426    4118.7518   -51482.178   0.15612667 
   63100    292.32859   -1008.9622    149945.46   -47431.216    4014.4292   -51445.645   0.15661232 
   63200    300.42645   -1012.6029    149967.14   -47310.872    4125.6338   -51436.506   0.16686638 
   63300    296.62353   -973.91755    149951.79   -47409.214    4073.4099   -51482.624   0.15203542 
   63400    285.89151   -1036.3269    149942.18   -47502.868    3926.0315     -51428.9   0.16299156 
   63500    293.97671   -1025.0954    149950.03   -47476.279    4037.0622   -51513.341   0.15608812 
   63600    292.42787   -1029.5068    149953.62   -47523.894    4015.7926   -51539.686    0.1518853 
   63700    295.19822   -1015.8398    149944.68   -47492.206    4053.8367   -51546.043   0.16316031 
   63800    290.16915   -998.81606    149925.31   -47559.042    3984.7745   -51543.817   0.14317408 
   63900    292.33456   -1001.6938    149925.19   -47443.794    4014.5113   -51458.305   0.16519808 
   64000    297.57469   -982.94145    149958.12   -47360.199    4086.4717    -51446.67   0.15472831 
   64100     299.7132   -987.36827    149950.32   -47310.467    4115.8391   -51426.306   0.15663864 
   64200    299.44298   -1022.1235    149972.66   -47299.477    4112.1283   -51411.605   0.16393184 
   64300    293.49525   -1009.2108    149962.23    -47340.18    4030.4504    -51370.63   0.15869178 
   64400    295.34605   -976.89772    149946.09   -47399.407    4055.8667   -51455.274   0.16193116 
   64500    295.33895   -1001.9427    149945.45   -47391.359    4055.7693   -51447.128   0.16028776 
   64600    294.81371   -1006.8604    149922.09   -47420.902    4048.5564   -51469.458   0.15779897 
   64700    290.99072   -1011.4159    149940.85   -47432.555    3996.0568   -51428.612   0.16618879 
   64800    293.13048   -1000.9729    149940.26     -47372.3    4025.4412   -51397.741   0.16059665 
   64900    299.42758   -1009.9962    149960.97   -47286.769    4111.9168   -51398.686   0.16330119 
   65000     292.5283   -993.25533     149984.8    -47277.47    4017.1718   -51294.641   0.16628173 
   65100    299.32097   -991.75765    149972.29   -47345.167    4110.4528    -51455.62   0.15641223 
   65200    293.78242   -1019.6434    149960.25   -47366.843    4034.3941   -51401.237   0.16879685 
   65300    302.10746   -995.15178    149969.45   -47300.681    4148.7184   -51449.399   0.15610572 
   65400    297.83927   -986.08088     149966.1   -47343.739    4090.1051   -51433.844   0.16346304 
   65500    295.75572   -996.53675    149945.54   -47265.995    4061.4926   -51327.488   0.15888498 
   65600    296.01688   -1024.2138    149960.18   -47288.325     4065.079   -51353.404   0.16089443 
   65700    297.87962   -1006.0645    149964.86   -47248.776    4090.6593   -51339.436   0.17261718 
   65800    299.66014   -995.78125    149968.01   -47318.007    4115.1104   -51433.118   0.15645133 
   65900    300.92387   -1012.8425    149980.31   -47333.574    4132.4648   -51466.039   0.16878833 
   66000    298.30134   -998.73154    149973.26   -47329.933    4096.4505   -51426.383   0.16063139 
   66100    296.07585   -1011.0147    149953.85    -47299.51    4065.8888   -51365.399   0.16832366 
   66200    293.56462   -1014.9613    149925.59   -47431.405    4031.4031   -51462.809   0.16528129 
   66300    301.01405   -990.19063    149964.34   -47362.262     4133.703   -51495.965   0.15466342 
   66400    301.22061   -992.84595    149961.43   -47365.789    4136.5397   -51502.329   0.16256077 
   66500    298.07446   -1008.1803    149971.75   -47406.506     4093.335   -51499.841   0.15785011 
   66600    296.41233   -1000.5571    149967.78   -47404.779    4070.5095   -51475.288   0.15958524 
   66700    299.52785   -1002.4158    149957.47   -47389.401    4113.2938   -51502.694   0.16008227 
   66800    293.35336   -983.96845     149932.9   -47411.889     4028.502   -51440.391   0.16309647 
   66900    287.59184   -999.22347    149952.07   -47424.964    3949.3813   -51374.345   0.16236715 
   67000    289.31977   -984.74263     149938.3   -47536.498    3973.1103   -51509.608   0.15995335 
   67100    294.74812   -1001.9311    149948.83   -47363.587    4047.6556   -51411.243   0.16188656 
   67200    293.93218   -1012.4311    149956.72   -47474.415    4036.4506   -51510.866   0.16159055 
   67300    296.34965   -1020.1313    149943.81   -47388.679    4069.6488   -51458.328   0.15986775 
   67400     299.6644   -966.64022    149979.61   -47370.594     4115.169   -51485.763    0.1587252 
   67500    300.88129   -979.83101    149977.53   -47355.372      4131.88   -51487.252   0.16053915 
   67600    301.97425   -959.34003     150000.3   -47214.351    4146.8891    -51361.24   0.15981926 
   67700    297.65896   -1009.3286    149990.69   -47292.438     4087.629   -51380.067   0.16759285 
   67800    296.86984   -1006.7506    149978.52   -47339.295    4076.7924   -51416.087   0.15832462 
   67900    295.72857   -994.36671    149976.62   -47369.606    4061.1198   -51430.726   0.16309372 
   68000    297.72935   -1002.8608     149955.3   -47402.304    4088.5956   -51490.899    0.1582998 
   68100    297.55492   -979.24266    149947.51   -47402.668    4086.2003   -51488.868   0.16313517 
   68200    298.05521   -1009.0285    149959.48   -47369.601    4093.0705   -51462.671   0.15560619 
   68300    300.57322   -986.54619    149988.79   -47319.406    4127.6494   -51447.056    0.1647408 
   68400    292.97134    -1015.124    150008.12   -47283.537    4023.2558   -51306.793   0.16151924 
   68500    302.07145   -1022.5135     150004.3   -47284.488     4148.224   -51432.712   0.16191639 
   68600    289.12591    -1039.638    149983.96   -47371.398    3970.4481   -51341.847   0.16703096 
   68700    296.47741   -1001.2248    149973.62   -47350.037    4071.4033    -51421.44   0.15547876 
   68800    296.33442   -1035.6763    149978.26    -47344.95    4069.4396    -51414.39   0.16926802 
   68900    293.27003   -1048.8888    149992.44   -47352.869    4027.3576   -51380.226   0.16046516 
   69000    293.78487   -987.17054    149969.85   -47346.525    4034.4277   -51380.953   0.16410675 
   69100    294.00221   -979.35572    149983.19   -47416.061    4037.4124   -51453.474   0.15818215 
   69200    294.23398   -991.51279    149981.66   -47425.922    4040.5951   -51466.517   0.15376268 
   69300    290.84466   -1039.2613    149954.25   -47457.933     3994.051   -51451.984   0.16499966 
   69400    292.13148   -1033.7659    149944.58   -47513.814    4011.7224   -51525.536   0.15567767 
   69500    299.10712   -990.34295    149948.34   -47365.831     4107.516   -51473.347   0.15965076 
   69600    302.35424   -1026.0382    150001.48   -47261.801    4152.1073   -51413.908   0.16457515 
   69700    293.98171   -1029.7273    149984.03   -47359.995    4037.1308   -51397.126   0.16361879 
   69800    299.02118   -979.58429    149978.67   -47359.572    4106.3358   -51465.907   0.16298027 
   69900    296.58633   -1015.7728    149937.94   -47452.372     4072.899   -51525.271   0.15782918 
   70000    290.37658   -988.17253    149965.54   -47381.978     3987.623   -51369.601   0.16578384 
   70100    291.16003    -1010.654    149952.07   -47508.292    3998.3819   -51506.674   0.15862024 
   70200    296.21121   -958.63206    149986.13   -47337.235    4067.7477   -51404.982   0.15088983 
   70300    295.31478   -1000.5262    149990.42   -47349.914    4055.4373   -51405.351   0.16910745 
   70400    299.65473   -1025.8954    150010.66   -47237.745    4115.0361   -51352.781   0.15927996 
   70500    296.05326   -1034.8912    149993.08   -47316.079    4065.5787   -51381.658    0.1630419 
   70600    296.02713   -1010.1689    149957.14   -47369.237    4065.2197   -51434.457   0.16446644 
   70700    294.06171   -968.41019    149961.74   -47331.237    4038.2294   -51369.466   0.15061877 
   70800    297.21777    -1005.062    149961.84   -47374.389    4081.5703   -51455.959   0.16919767 
   70900    293.76523    -993.7937    149937.86   -47362.858     4034.158   -51397.016   0.15341457 
   71000     295.8532   -1009.0588    149958.91    -47384.88    4062.8312   -51447.712   0.16391355 
   71100    297.20445   -977.27771    149945.25    -47373.98    4081.3874   -51455.367   0.16053289 
   71200    292.10975   -1004.7398    149914.32   -47408.025     4011.424   -51419.449   0.15851502 
   71300    286.82758   -993.41807    149906.99   -47464.434    3938.8861    -51403.32   0.16535494 
   71400    295.45385   -961.36259     149910.9   -47401.296    4057.3471   -51458.643   0.15614312 
   71500    296.26013   -1006.6992    149917.12    -47351.61    4068.4194   -51420.029   0.16274113 
   71600    296.29212   -1034.9649    149907.86   -47371.011    4068.8588    -51439.87   0.16660626 
   71700    296.89063   -1021.6359    149911.74    -47355.95    4077.0778   -51433.028   0.16636864 
   71800     289.7921   -1004.1265    149892.16   -47538.948    3979.5967   -51518.545   0.15824478 
   71900    295.41466   -962.48876    149873.03   -47471.629    4056.8089   -51528.438   0.15986593 
   72000     298.0092   -967.12356    149893.96    -47434.46    4092.4388   -51526.899   0.15717385 
   72100    293.95198   -1017.5973    149912.44   -47300.547    4036.7226   -51337.269    0.1703632 
   72200    306.42399   -961.93637    149966.38    -47192.77    4207.9956   -51400.766   0.15682337 
   72300    297.97215   -1051.7614    149998.79   -47170.491    4091.9299   -51262.421   0.17658829 
   72400    298.50791    -1003.412     149981.8   -47299.999    4099.2873   -51399.286   0.15366402 
   72500    300.08714   -1021.8002    149955.55   -47293.311    4120.9743   -51414.285   0.16735464 
   72600    297.20583   -1003.8867    149957.91   -47225.448    4081.4063   -51306.854    0.1677539 
   72700    295.25359   -1015.2037    149914.57   -47395.148    4054.5971   -51449.745   0.15752252 
   72800    295.57058   -1058.4348    149923.43   -47316.052    4058.9501   -51375.002   0.17019335 
   72900    295.66747   -1014.0335    149908.78   -47324.782    4060.2808   -51385.063   0.15990557 
   73000    294.90132   -1012.3436    149895.94   -47338.394    4049.7595   -51388.153   0.16814132 
   73100    294.07595   -978.26085    149904.11    -47292.29     4038.425   -51330.715   0.16424314 
   73200    297.11204   -992.38142    149915.58   -47275.764    4080.1183   -51355.882   0.16518815 
   73300    303.04198   -1005.6176    149934.43    -47255.41    4161.5518   -51416.962    0.1641107 
   73400    300.14648   -980.87696       149939   -47235.432    4121.7891   -51357.221   0.16674693 
   73500    306.42763   -958.03864    149947.66   -47241.693    4208.0456   -51449.738   0.15967241 
   73600    300.71739   -976.68457    149934.45   -47282.664    4129.6292   -51412.294   0.16606667 
   73700     289.1838   -1022.6705    149913.43   -47345.987    3971.2431    -51317.23   0.16572521 
   73800     288.4454    -1034.797    149900.41   -47438.889     3961.103   -51399.992   0.16558378 
   73900    292.15688   -981.91528    149913.82   -47420.592    4012.0712   -51432.663   0.16295146 
   74000    295.27775   -1004.5244    149948.05   -47342.853    4054.9288   -51397.782   0.16191573 
   74100    301.06444   -1001.6906    150006.41   -47178.434    4134.3951   -51312.829   0.16567202 
   74200    296.38471   -1028.8763       149979    -47345.37    4070.1303     -51415.5   0.16494057 
   74300    294.55662   -1003.2328    149958.26   -47343.515    4045.0259   -51388.541   0.16391082 
   74400    294.23337   -1025.7435    149949.33    -47382.48    4040.5868   -51423.066   0.16520536 
   74500    291.69895   -1006.5264    149925.83   -47396.443    4005.7826   -51402.226   0.16186605 
   74600    299.12963   -971.91101    149952.76   -47404.166    4107.8251   -51511.991      0.15836 
   74700    298.01202   -1022.8532    149977.46   -47317.653    4092.4775   -51410.131   0.16242866 
   74800    297.91675   -985.73144    149939.53   -47369.927    4091.1692   -51461.096    0.1589546 
   74900    296.21248   -997.09816    149954.48    -47373.13     4067.765   -51440.895   0.16424356 
   75000    296.99946   -959.13425    149936.69   -47351.236    4078.5724   -51429.808   0.15738266 
   75100     299.7071   -987.30799    149956.74   -47278.304    4115.7553    -51394.06   0.15935557 
   75200    293.93456   -1038.7166    149947.78    -47335.01    4036.4833   -51371.493   0.16771415 
   75300    295.95472   -1033.9727    149927.99   -47381.807    4064.2255   -51446.032   0.16046631 
   75400    293.36671   -1017.9377    149925.64   -47400.126    4028.6853   -51428.811   0.16934837 
   75500    297.38455   -981.51178    149907.15   -47385.302    4083.8607   -51469.162   0.16055224 
   75600    299.43965   -992.62775    149952.98   -47312.252    4112.0825   -51424.335   0.16056271 
   75700    302.46561   -1000.9516    149969.07   -47269.612    4153.6368   -51423.249   0.16944374 
   75800    300.30452   -1024.9994    149957.54   -47293.226    4123.9594   -51417.186   0.15998899 
   75900     296.7576   -1033.4569    149954.76   -47313.271     4075.251   -51388.522   0.17149602 
   76000     293.4326   -1016.9315    149968.34   -47319.347    4029.5902   -51348.937   0.16454706 
   76100    292.11863   -976.48688    149956.72   -47409.016     4011.546   -51420.562   0.16216133 
   76200    293.61575   -1001.2889    149934.75   -47456.935    4032.1053    -51489.04   0.15954008 
   76300    291.17284   -1002.3775    149923.56   -47390.478    3998.5578   -51389.036   0.16603085 
   76400    292.58186   -996.70503    149931.75   -47391.224    4017.9072   -51409.132   0.16667275 
   76500    296.11809    -956.6957    149962.33   -47381.744    4066.4689   -51448.213   0.15788198 
   76600    297.84437   -968.96075    149946.09   -47422.179    4090.1752   -51512.354   0.16092004 
[...]
   81900    298.66753   -1010.0875    149926.08   -47418.176    4101.4793   -51519.655   0.15915069 
   82000    299.26607   -986.94279    149959.62   -47330.911    4109.6988    -51440.61   0.16919534 
   82100    299.72103   -978.23665    149964.18   -47275.832    4115.9466   -51391.779   0.17016906 
   82200    297.49811   -1011.4682    149973.86   -47292.587    4085.4201   -51378.007   0.16654807 
   82300    294.46604   -1021.7079    149959.99   -47368.323    4043.7819   -51412.105   0.17533378 
   82400    300.66198   -985.28746    149981.62   -47244.838    4128.8683   -51373.706    0.1626798 
   82500    305.16378   -957.49004    149999.09   -47141.392    4190.6896   -51332.082   0.17183522 
   82600    302.48535   -962.70541    150000.05    -47250.63    4153.9079   -51404.538   0.16534822 
   82700    296.68534    -1040.976    149982.01   -47335.499    4074.2587   -51409.758    0.1663606 
   82800    295.81196   -1002.9688    149945.89   -47346.476     4062.265   -51408.741   0.17365334 
   82900    296.21531   -999.17505    149947.09   -47294.864     4067.804   -51362.668   0.16505788 
   83000    301.39063   -986.80176    149975.79   -47223.507    4138.8745   -51362.382     0.173118 
   83100    297.55308   -986.27263    149985.73   -47265.302     4086.175   -51351.477   0.16901257 
   83200    301.52966    -1017.225    149967.33   -47302.089    4140.7838   -51442.873   0.17086868 
   83300    305.13019   -1001.1172    149959.85   -47284.148    4190.2283   -51474.377    0.1683206 
   83400    294.45877   -989.64574    149945.04   -47374.898    4043.6821    -51418.58   0.16074375 
   83500    286.36964    -1007.026    149905.78   -47479.496    3932.5974   -51412.093   0.17305469 
   83600    298.06335    -987.6421    149905.71   -47420.182    4093.1824   -51513.364   0.15815721 
   83700    292.66916   -984.65159    149903.53   -47447.651    4019.1062   -51466.757   0.16424354 
   83800    295.89087   -967.50784    149934.71   -47414.026    4063.3486   -51477.375   0.16680191 
   83900    295.08141   -1019.9099    149948.29   -47416.753    4052.2326   -51468.985   0.15915091 
   84000    294.09148   -1025.0075    149913.71   -47432.933    4038.6382   -51471.571   0.17282776 
   84100    297.86102   -957.49297    149953.56   -47356.128    4090.4039   -51446.532    0.1606701 
   84200    297.00514   -960.35682    149953.78   -47310.613    4078.6504   -51389.264     0.161545 
   84300    293.91677   -1004.6572    149953.59   -47368.794     4036.239   -51405.033   0.17824178 
   84400     297.2871   -979.82427    149950.92   -47362.171    4082.5224   -51444.693   0.15164698 
   84500    297.85424   -989.63425    149938.81   -47421.202    4090.3107   -51511.513   0.17174647 
   84600    301.87907   -992.31579    149967.41   -47332.658    4145.5821    -51478.24   0.16087675 
   84700    296.06374   -1017.3148    149944.11   -47344.983    4065.7225   -51410.705   0.16390077 
   84800     293.5009   -1035.1444    149937.42    -47334.18     4030.528   -51364.708   0.17029591 
   84900    298.53503   -1028.9804    149966.81    -47255.94    4099.6598   -51355.599   0.16819848 
   85000    295.87565   -978.71587    149960.22   -47328.375    4063.1395   -51391.514   0.16843069 
   85100    300.40802   -986.99416    149977.37   -47347.029    4125.3808    -51472.41   0.15987355 
   85200    296.45745   -991.82404    149970.86   -47381.945    4071.1292   -51453.075   0.16745658 
   85300    292.35976   -1034.3784    149973.47    -47389.57    4014.8573   -51404.428   0.16163071 
   85400    292.54803   -1029.6521    149947.93    -47418.63    4017.4427   -51436.073    0.1686034 
   85500    295.57818   -1011.9414    149960.86   -47361.834    4059.0546   -51420.888   0.16589772 
   85600    294.72192   -1013.5338    149945.23   -47394.386    4047.2959   -51441.682   0.16438169 
   85700    297.99506    -1003.168     149935.1   -47339.778    4092.2445   -51432.023   0.16664432 
   85800    298.89221   -1022.0639    149941.46   -47334.907    4104.5647   -51439.472   0.16228985 
   85900    299.42246   -1014.7979    149954.04   -47303.785    4111.8465   -51415.632   0.16640962 
   86000    293.03048   -1044.5868     149959.9   -47355.326     4024.068   -51379.394   0.17546129 
   86100    295.04745   -1021.5187    149954.09    -47329.23    4051.7663   -51380.996   0.15968461 
   86200    300.22703   -964.75357    149953.74    -47293.87    4122.8953   -51416.765   0.16460753 
   86300    292.88525   -1020.7687    149946.21   -47339.994    4022.0736   -51362.068   0.17025604 
   86400    291.71007   -1003.3318    149926.32    -47404.46    4005.9354   -51410.395   0.16703515 
   86500    289.50116   -1022.9408    149928.07   -47438.203    3975.6013   -51413.804     0.170364 
   86600    297.16266   -988.51449    149948.07   -47272.761    4080.8135   -51353.574   0.16559948 
   86700     292.6267   -1002.2689    149939.07   -47272.871    4018.5231   -51291.394   0.17051975 
   86800    297.75174   -1020.1808    149943.44   -47399.377    4088.9031    -51488.28   0.16503233 
   86900    304.30441   -966.35165    149927.13   -47379.029    4178.8883   -51557.917   0.15868056 
   87000    292.62057   -1006.2437    149939.05   -47357.427    4018.4389   -51375.866   0.16586553 
   87100    296.90068   -998.89122    149943.48    -47328.74    4077.2159   -51405.956   0.16581967 
   87200    301.35517    -990.2937    149972.01   -47261.211    4138.3875   -51399.598   0.16615894 
   87300    299.34924   -978.45148    149960.17   -47268.161    4110.8409   -51379.002   0.15893242 
   87400    293.44126   -1025.2105    149958.58   -47322.919     4029.709   -51352.628   0.17237638 
   87500    295.89339   -1018.1708     149949.3   -47296.299    4063.3832   -51359.683   0.16117664 
   87600    301.11703   -1034.6625    149974.51   -47323.915    4135.1173   -51459.032   0.16486558 
   87700    300.63438   -994.45195    149955.69   -47295.246    4128.4893   -51423.736    0.1694084 
   87800    294.09269   -1009.4355    149940.88    -47381.44    4038.6549   -51420.095   0.15584228 
   87900    296.93492   -1007.9789    149933.53   -47402.971    4077.6861   -51480.658   0.16776333 
   88000    290.20738   -996.51238    149938.62    -47367.76    3985.2995   -51353.059     0.157711 
   88100    297.04047   -1039.6515    149944.32    -47342.06    4079.1355   -51421.195    0.1706001 
   88200    291.84732    -999.3986     149922.6   -47445.714    4007.8202   -51453.534   0.16021732 
   88300    293.95202    -1009.282    149924.03    -47386.74    4036.7231   -51423.463   0.16307682 
   88400    295.38142   -988.17956    149948.85   -47315.301    4056.3525   -51371.654   0.16718727 
   88500    300.20403   -989.57133    149948.72   -47389.555    4122.5794   -51512.134   0.15791391 
   88600     301.1789   -991.43419    149954.69   -47382.977    4135.9669   -51518.944   0.16332755 
   88700    293.43104   -998.39261    149955.86   -47352.002    4029.5687   -51381.571   0.16845681 
   88800    293.73424   -1007.8535    149960.96   -47416.389    4033.7325   -51450.122   0.15161707 
   88900    297.66066   -1009.8232    149945.39   -47353.853    4087.6524   -51441.506   0.17334258 
   89000    294.05532    -971.0472    149959.08   -47312.674    4038.1418   -51350.816   0.15967335 
   89100    292.68642   -996.70035    149960.84   -47363.953    4019.3431   -51383.296   0.16907797 
   89200     295.5139   -987.22805     149972.9   -47319.795    4058.1718   -51377.966   0.16791252 
   89300    293.82508   -985.99085    149957.47   -47445.345    4034.9799   -51480.325   0.15107793 
   89400    298.19738   -956.98872    149977.34   -47348.045    4095.0229   -51443.068   0.16716792 
   89500    290.82666   -1002.2905    149963.83   -47447.659    3993.8038   -51441.463   0.15131211 
   89600    294.64226   -996.80297    149933.53    -47471.95    4046.2019   -51518.152    0.1638553 
   89700     296.1585   -1007.9402    149939.62   -47386.463    4067.0239   -51453.487   0.16368371 
   89800    298.85334   -955.05738    149953.31   -47314.175    4104.0309   -51418.206   0.15780364 
   89900    297.92131   -983.77601    149977.55   -47301.738    4091.2318    -51392.97   0.16345708 
   90000    299.11622   -979.26531    149965.66   -47319.818     4107.641   -51427.459   0.16374153 
   90100    297.86715   -968.20669    149972.33   -47304.479     4090.488   -51394.967   0.16553524 
   90200    293.51204   -1003.7521    149967.28   -47382.499     4030.681    -51413.18   0.16339805 
   90300    299.95639   -976.27697    149959.04    -47353.87    4119.1787   -51473.049   0.16361672 
   90400    300.21604   -990.56283    149956.65   -47343.567    4122.7444   -51466.311   0.16545772 
   90500    297.05228   -975.16505    149946.32   -47352.807    4079.2978   -51432.105   0.15777486 
   90600    295.22779   -1013.6667    149962.55   -47379.159    4054.2427   -51433.401   0.17253501 
   90700    290.87897   -1047.4543    149943.24   -47405.271    3994.5222   -51399.794   0.16112893 
   90800    293.43613   -1034.9729    149943.06   -47428.197    4029.6386   -51457.836    0.1650288 
   90900    290.40426   -1049.1806    149950.64    -47402.32    3988.0032   -51390.323    0.1695435 
   91000      292.814   -1023.0756    149940.67   -47413.345    4021.0952    -51434.44    0.1614683 
   91100    287.23979   -1010.5615    149909.94   -47522.063    3944.5468    -51466.61   0.16487256 
   91200    292.95476   -986.60294    149915.26   -47464.809    4023.0282   -51487.837   0.15986512 
   91300    296.36135   -993.66695    149926.52    -47399.17    4069.8095    -51468.98   0.16156223 
   91400    296.80404   -985.46634    149936.41   -47372.009    4075.8887   -51447.898   0.16740266 
   91500    298.91569   -1020.5594    149976.01   -47207.771    4104.8872   -51312.658   0.16846262 
   91600    293.47824   -991.84396    149997.31   -47276.193    4030.2169    -51306.41   0.16567721 
   91700    298.52257   -987.84051    149979.59   -47351.857    4099.4886   -51451.346    0.1649336 
   91800    295.11214   -1014.0137    149968.74   -47326.821    4052.6546   -51379.476   0.16662346 
   91900    299.04221   -1003.1754    149956.83   -47314.761    4106.6247   -51421.386   0.16335551 
   92000    294.24098   -974.32376    149959.97   -47360.436    4040.6913   -51401.128   0.16492137 
   92100    293.28022   -1031.9835    149931.11    -47344.84    4027.4976   -51372.337   0.16907564 
   92200    298.54614   -981.33492    149947.14     -47372.9    4099.8123   -51472.712   0.15838661 
   92300    300.16079   -995.01001    149928.46    -47241.58    4121.9857   -51363.566   0.17926013 
   92400    298.26403   -988.38223    149934.08   -47291.366    4095.9382   -51387.304   0.16048144 
   92500    298.01769   -999.81317    149919.16   -47288.575    4092.5554   -51381.131   0.17027722 
   92600     304.1467   -931.99641    149971.75   -47196.101    4176.7226   -51372.824   0.16718424 
   92700    296.98937   -1031.3284    149951.43   -47327.045    4078.4338   -51405.479   0.16534444 
   92800    299.50356   -1022.9227    149923.32   -47331.176    4112.9602   -51444.137   0.16922282 
   92900    295.14347   -1033.3168    149924.47   -47373.479    4053.0849   -51426.564   0.16773706 
   93000    295.80653   -989.99637    149936.05   -47378.945    4062.1903   -51441.135   0.16424372 
   93100    296.90766   -994.30782    149944.72   -47296.598    4077.3118    -51373.91   0.16535482 
   93200    292.87844   -1036.4363    149943.68   -47359.851    4021.9801   -51381.832   0.17029349 
   93300    297.69463   -994.32927    149917.16   -47408.811    4088.1189    -51496.93   0.16088202 
   93400    297.84029   -962.61664    149921.61   -47469.157    4090.1192   -51559.276   0.15796516 
   93500     289.2856   -1003.5809    149934.14   -47472.523    3972.6411   -51445.164   0.16610317 
   93600    289.17757   -982.74593    149934.13   -47420.014    3971.1575   -51391.172   0.16133147 
   93700    297.38249   -1012.4645    149954.74   -47399.156    4083.8324   -51482.988   0.16408755 
   93800    297.45953   -1013.0799    149950.37   -47400.372    4084.8904   -51485.263   0.16093526 
   93900     292.4474   -1017.3122    149953.97   -47477.599    4016.0607    -51493.66   0.15429317 
   94000    294.62321   -1011.2246    149920.01   -47443.035    4045.9403   -51488.975    0.1710002 
   94100    298.60897   -944.01918    149952.92   -47319.549    4100.6751   -51420.224   0.15270337 
   94200    294.96751   -1012.6677    149965.65    -47311.16    4050.6684   -51361.828   0.16916205 
   94300    297.29169   -968.37906    149956.06   -47323.543    4082.5855   -51406.128   0.16876663 
   94400    300.09025   -1021.4589    149944.66    -47317.72    4121.0169   -51438.737   0.16167944 
   94500    299.41822    -981.7286    149971.26   -47323.545    4111.7882   -51435.333    0.1675454 
   94600    298.04005   -994.68784    149952.21   -47326.209    4092.8623   -51419.071   0.16530725 
   94700    293.30339   -1003.6199     149939.3   -47369.955    4027.8157    -51397.77   0.16297612 
   94800    298.10985     -1003.64    149924.32   -47411.828     4093.821   -51505.649   0.16179787 
   94900     297.4355   -989.80918    149926.55   -47437.856    4084.5604   -51522.416   0.16217308 
   95000    293.01171   -1007.0385    149910.29   -47390.391    4023.8103   -51414.202   0.17130981 
   95100    295.52396   -981.95435    149927.61   -47347.553      4058.31   -51405.863   0.16072009 
   95200    294.82315   -986.47968    149940.98   -47382.073     4048.686   -51430.759   0.16729522 
   95300    294.87642   -988.50232    149972.84   -47332.696    4049.4176   -51382.114   0.16201698 
   95400    297.42553   -998.98139     149983.6   -47302.939    4084.4234   -51387.363   0.16811032 
   95500    298.51644   -992.20015    149975.58   -47324.402    4099.4045   -51423.807   0.17197541 
   95600    298.48332   -1018.7381    149977.96   -47310.841    4098.9497   -51409.791   0.16264131 
   95700    297.34745   -1014.4545    149964.81   -47349.949    4083.3511     -51433.3   0.16833765 
   95800    301.37753   -954.93115    149991.46   -47283.226    4138.6947    -51421.92   0.16389489 
   95900    297.56318     -1003.55    149966.47   -47302.839    4086.3138   -51389.153   0.16306572 
   96000    299.92108   -1024.6498    149974.83   -47274.709    4118.6938   -51393.402   0.17800699 
   96100    306.27547   -994.23251    149983.01   -47221.152     4205.956   -51427.108   0.16552368 
   96200    299.09045   -1024.3266    149993.09   -47252.794    4107.2871   -51360.082   0.16797844 
   96300      298.578   -1003.1078    149979.76   -47266.567    4100.2498   -51366.816   0.17025253 
   96400    298.02933   -1009.4517    149976.37   -47326.093    4092.7152   -51418.808   0.15782615 
   96500    296.19364   -1011.1238    149966.19   -47320.551    4067.5064   -51388.057   0.16870743 
   96600    294.58452   -976.96064    149966.94   -47374.464     4045.409   -51419.873   0.15999939 
   96700     298.9522     -995.158    149968.71   -47337.446    4105.3886   -51442.835   0.16983048 
   96800    297.93854   -997.68968     149982.3   -47357.325    4091.4683   -51448.794   0.15750215 
   96900    297.39173   -991.21944    149968.11   -47371.773    4083.9592   -51455.732   0.16682624 
   97000    296.44457   -995.57001     149952.5   -47444.615    4070.9524   -51515.567   0.16069813 
   97100    295.99191   -1017.3257    149934.92   -47414.224    4064.7361    -51478.96   0.15898768 
   97200    293.03379   -971.55549    149939.31   -47349.098    4024.1134   -51373.211   0.16678441 
   97300    298.38835   -1005.0449    149954.88   -47236.119    4097.6454   -51333.764   0.16312751 
   97400    293.30368    -1039.893    149961.68   -47332.742    4027.8198   -51360.562   0.16960503 
   97500     297.9893    -1014.439    149957.46   -47302.561    4092.1654   -51394.727    0.1690352 
   97600    296.37041   -1001.0338     149983.7   -47239.752    4069.9338   -51309.686   0.16983067 
   97700    298.11324   -994.04804    150004.29   -47199.274    4093.8674   -51293.141   0.17310416 
   97800    298.93387   -1020.7019    149982.97   -47313.643    4105.1368    -51418.78   0.16698246 
   97900    302.55029   -986.02962    149980.38   -47271.587    4154.7997   -51426.387   0.15614745 
   98000    297.47834   -1006.2257    149949.66   -47360.058    4085.1486   -51445.206   0.17032112 
   98100    299.92756   -994.13913     149970.4   -47347.945    4118.7828   -51466.728   0.16002828 
   98200    296.73224   -1013.4208    149971.72   -47339.707    4074.9027    -51414.61   0.16625686 
   98300    301.91023    -986.3247     150011.6   -47278.457      4146.01   -51424.467   0.16487463 
   98400     295.0513   -979.53746    149992.45   -47318.347    4051.8191   -51370.166   0.16299447 
   98500    298.79288   -996.09791    149979.07   -47292.987    4103.2006   -51396.188   0.16119466 
   98600     297.1018   -985.04256     149975.8   -47302.149    4079.9778   -51382.127   0.16822732 
   98700    303.58403   -1010.4824    149991.23   -47272.023    4168.9956   -51441.019   0.16849075 
   98800    300.15767   -1041.0937    150007.75   -47286.279    4121.9429   -51408.222   0.16112208 
   98900    299.94667   -974.81905    149978.74   -47350.569    4119.0452   -51469.615   0.16749103 
   99000    296.13088   -1004.1371    149988.72   -47338.415    4066.6446    -51405.06   0.15605935 
   99100    297.22606   -1009.4449    149962.53   -47404.752    4081.6842   -51486.436   0.16390153 
   99200    292.28421   -978.05234     149957.5    -47402.75    4013.8198   -51416.569   0.16758781 
   99300    299.46596     -1016.05    149950.01   -47326.587    4112.4438    -51439.03   0.15681937 
   99400    293.50168   -992.13154       149948   -47368.658    4030.5388   -51399.197     0.164546 
   99500    301.02608   -976.83167    149956.63   -47322.674    4133.8683   -51456.543   0.15890715 
   99600    293.06627   -996.92011    149950.49   -47318.715    4024.5595   -51343.274   0.16787967 
   99700    292.29197   -999.47564     149943.4   -47365.231    4013.9263   -51379.158   0.16569447 
   99800    292.98065    -1028.157    149955.13   -47380.279    4023.3837   -51403.663   0.16407599 
   99900    293.56181   -988.59737    149933.86   -47436.513    4031.3645   -51467.877   0.16160883 
  100000    295.65222   -980.24684    149933.92   -47348.602    4060.0713   -51408.673   0.16429253 
Loop time of 50.5655 on 6 procs for 100000 steps with 4608 atoms

Performance: 854.338 ns/day, 0.028 hours/ns, 1977.633 timesteps/s
97.8% CPU use with 6 MPI tasks x no OpenMP threads

MPI task timing breakdown:
Section |  min time  |  avg time  |  max time  |%varavg| %total
---------------------------------------------------------------
Pair    | 37.352     | 37.523     | 37.617     |   1.4 | 74.21
Neigh   | 5.2939     | 5.5447     | 6.2129     |  13.6 | 10.97
Comm    | 4.1958     | 4.8657     | 5.2965     |  15.6 |  9.62
Output  | 0.16708    | 0.16788    | 0.17059    |   0.3 |  0.33
Modify  | 1.8158     | 1.8731     | 1.9261     |   2.6 |  3.70
Other   |            | 0.5914     |            |       |  1.17

Nlocal:        768.000 ave         777 max         755 min
Histogram: 1 0 0 1 0 1 0 1 0 2
Nghost:        1399.67 ave        1407 max        1388 min
Histogram: 1 0 0 1 0 0 0 3 0 1
Neighs:        0.00000 ave           0 max           0 min
Histogram: 6 0 0 0 0 0 0 0 0 0
FullNghs:      21864.0 ave       22147 max       21460 min
Histogram: 1 0 1 0 0 1 0 0 2 1

Total # of neighbors = 131184
Ave neighs/atom = 28.468750
Neighbor list builds = 6403
Dangerous builds = 0

undump              1
unfix               2
unfix               3
unfix               4




################################################
#######         Run Simulation         #########
################################################

reset_timestep      0
log                 log.run_${NAME}
log                 log.run_ice_297K_-1000atm_ML
