

read_data data.ice_${TEMP}K_${PRES}atm_ML group ice
read_data data.ice_297K_${PRES}atm_ML group ice
read_data data.ice_297K_-1000atm_ML group ice
Reading data file ...
  orthogonal box = (-0.09015931 -0.080141609 -0.080141609) to (57.360669 50.987262 50.987262)
  3 by 1 by 2 MPI processor grid
  reading atoms ...
  4608 atoms
  reading velocities ...
  4608 velocities
  read_data CPU = 0.026 seconds
read_data data.liq_${TEMP}K_${PRES}atm_ML add append shift ${X_HI} ${YZ_LO} ${YZ_LO} group water
read_data data.liq_297K_${PRES}atm_ML add append shift ${X_HI} ${YZ_LO} ${YZ_LO} group water
read_data data.liq_297K_-1000atm_ML add append shift ${X_HI} ${YZ_LO} ${YZ_LO} group water
read_data data.liq_297K_-1000atm_ML add append shift 50.9872616090355 ${YZ_LO} ${YZ_LO} group water
read_data data.liq_297K_-1000atm_ML add append shift 50.9872616090355 0.0801416090329461 ${YZ_LO} group water
read_data data.liq_297K_-1000atm_ML add append shift 50.9872616090355 0.0801416090329461 0.0801416090329461 group water
Reading data file ...
  orthogonal box = (-0.09015931 -0.20530371 -0.20530371) to (104.72011 51.272707 51.272707)
  3 by 1 by 2 MPI processor grid
  reading atoms ...
  4608 atoms
  reading velocities ...
  4608 velocities
  read_data CPU = 0.015 seconds

write_data data.icewater_test
System init for write_data ...
WARNING: Communication cutoff is 0.0. No ghost atoms will be generated. Atoms may get lost. (../comm_brick.cpp:167)

# Define potential
#
pair_style sw
pair_coeff * * /data/emrosky-sim/Freezing_Simulations/Melting/MLmW_fancy/ML_mW.sw mW
Reading sw potential file /data/emrosky-sim/Freezing_Simulations/Melting/MLmW_fancy/ML_mW.sw with DATE: 2019-02-27

# Delete water and ice atoms that are overlapping
#
delete_atoms overlap 2.5 water ice
System init for delete_atoms ...
Neighbor list info ...
  update every 1 steps, delay 10 steps, check yes
  max neighbors/atom: 2000, page size: 100000
  master list distance cutoff = 6.0032907
  ghost atom cutoff = 6.0032907
  binsize = 3.0016454, bins = 35 18 18
  2 neighbor lists, perpetual/occasional/extra = 1 1 0
  (1) command delete_atoms, occasional, copy from (2)
      attributes: full, newton on
      pair build: copy
      stencil: none
      bin: none
  (2) pair sw, perpetual
      attributes: full, newton on
      pair build: full/bin/atomonly
      stencil: full/bin/3d
      bin: standard
Deleted 697 atoms, new total = 8519

# set timestep
#
timestep 10.0

# Define output
#
compute 1 all msd
thermo 50
thermo_style custom step temp press vol etotal ke pe c_1[4]

# Neighbor lists
#
neigh_modify delay 0 every 1 check yes

# Set fixes
#
fix 1 all momentum 10 linear 1 1 1 rescale
fix 2 all nph iso ${PRES} ${PRES} ${PCOUPL}
fix 2 all nph iso -1000 ${PRES} ${PCOUPL}
fix 2 all nph iso -1000 -1000 ${PCOUPL}
fix 2 all nph iso -1000 -1000 10000.0
fix 3 all temp/csvr ${TEMP} ${TEMP} ${TCOUPL} 837492
fix 3 all temp/csvr 297 ${TEMP} ${TCOUPL} 837492
fix 3 all temp/csvr 297 297 ${TCOUPL} 837492
fix 3 all temp/csvr 297 297 5000.0 837492


# Fix ice atoms in place
#
velocity ice set 0.0 0.0 0.0
fix 4 ice setforce 0.0 0.0 0.0

# Run 1.0 ns equilibration of water
#
dump 1 all atom 1000 eq.all.${NAME}.dump
dump 1 all atom 1000 eq.all.coexist_297K_-1000atm_ML.dump
run 100000
Neighbor list info ...
  update every 1 steps, delay 0 steps, check yes
  max neighbors/atom: 2000, page size: 100000
  master list distance cutoff = 6.0032907
  ghost atom cutoff = 6.0032907
  binsize = 3.0016454, bins = 35 18 18
  1 neighbor lists, perpetual/occasional/extra = 1 0 0
  (1) pair sw, perpetual
      attributes: full, newton on
      pair build: full/bin/atomonly
      stencil: full/bin/3d
      bin: standard
Per MPI rank memory allocation (min/avg/max) = 4.591 | 4.599 | 4.605 Mbytes
Step Temp Press Volume TotEng KinEng PotEng c_1[4] 
       0    137.92243   -1912.3988     277745.7   -83113.057    3501.9249   -86614.982            0 
      50     162.1299   -1431.4459    276049.22   -82815.778    4116.5658   -86932.343   0.89392997 
     100    169.16778   -672.62136     273187.2   -82497.022    4295.2614   -86792.284    1.9216811 
     150    175.40845   -598.67092    272020.28   -82153.185    4453.7153   -86606.901    3.0152977 
     200     178.9964   -458.89195    272193.68   -81917.673    4544.8153   -86462.488    4.0900374 
     250    181.69751   -1113.8712    273143.23   -81603.978     4613.398   -86217.376    5.2213715 
     300    192.27953    -1155.269    273934.16   -81249.988    4882.0811   -86132.069    6.4348172 
     350    194.55987   -1131.7896    274255.95   -81021.794    4939.9802   -85961.774    7.9348321 
     400    200.47436   -1004.9763    274251.14   -80799.678    5090.1523    -85889.83    9.4704548 
     450    204.68607    -827.5874    274321.69   -80532.187    5197.0898   -85729.277    11.068752 
     500     203.5513   -830.62685    274645.86   -80320.401    5168.2775   -85488.678    12.579095 
     550    212.91434   -1253.2981    275140.55   -80115.915    5406.0102   -85521.925    14.190445 
     600    211.86255   -1136.3558    275065.14   -79912.835    5379.3045    -85292.14    15.863903 
     650    216.98911   -1155.4002     274571.9   -79712.168    5509.4706   -85221.638    17.641411 
     700    222.76929   -1053.7385    274293.92   -79518.499    5656.2325   -85174.731    19.653139 
     750    225.46507   -721.93141     274650.1   -79352.655    5724.6799   -85077.335    21.854628 
     800    228.36192   -1092.9774    275812.89    -79153.48    5798.2324   -84951.713    24.244229 
     850    232.93311   -1111.6672    276710.31    -78943.47    5914.2975   -84857.767    26.452542 
     900    235.45826   -1455.9625    276799.56   -78767.396    5978.4124   -84745.808    28.900798 
     950     238.7424   -1252.5505    276060.15   -78613.507    6061.7985   -84675.306     31.13424 
    1000    243.61846   -569.22334    275298.68   -78484.675    6185.6043   -84670.279    33.318609 
    1050    243.23309   -537.24578    275584.61   -78361.476    6175.8195   -84537.296    35.513187 
    1100    242.70814   -1055.5595    276679.08   -78238.836    6162.4908   -84401.327    37.955746 
    1150    245.40468     -1153.49    277459.48   -78095.069    6230.9573   -84326.026    40.400869 
    1200    246.89972   -1342.8039    277489.52   -77986.484    6268.9172   -84255.401    42.936827 
    1250    249.34342   -1179.8897    276745.51   -77886.772    6330.9642   -84217.736    45.440299 
    1300    253.44332   -707.29442    276174.85   -77797.435    6435.0627   -84232.498    47.588785 
    1350    252.59862   -917.06255     276468.7   -77706.324    6413.6153   -84119.939    50.095713 
    1400    258.52026   -1133.4855    277167.05   -77569.247     6563.969   -84133.216    52.441472 
    1450    260.61915   -1064.5963    277605.37   -77449.344     6617.261   -84066.605    55.141096 
    1500     262.6511   -961.39747    277627.14   -77377.275    6668.8533   -84046.128    58.200942 
    1550    263.37271    -1021.223    277547.97   -77299.507    6687.1752   -83986.682    60.926294 
    1600    261.89145   -819.62234     277370.7   -77212.792    6649.5654   -83862.357    63.559028 
    1650    263.82962   -893.95667     277620.5   -77142.729    6698.7764   -83841.505    66.435239 
    1700    265.84409   -1173.9126    278130.17   -77035.641     6749.925   -83785.566    69.251015 
    1750    263.21741   -1000.6274    278361.37   -76959.897    6683.2321   -83643.129    72.250646 
    1800    266.80039   -1008.4735    278286.97   -76862.533    6774.2059   -83636.739    74.818002 
    1850    271.10492   -852.62954    277852.74    -76785.18    6883.5004    -83668.68     77.99201 
    1900    272.16068   -818.34408    277331.66   -76693.247    6910.3066   -83603.554     81.10461 
    1950    272.65659   -696.17306    277272.35    -76618.82    6922.8981   -83541.718    84.366193 
    2000     275.2815   -888.31391    278095.58   -76517.797    6989.5459   -83507.343    87.227867 
    2050    274.38075   -1128.7231    279110.75   -76478.893    6966.6753   -83445.569    90.724186 
    2100    268.09121   -1153.3315    279321.16   -76439.296    6806.9806   -83246.277    94.342906 
    2150     275.1602    -956.2161    278673.36   -76393.235    6986.4661   -83379.701    97.658754 
    2200    281.56516   -881.94956     278128.6    -76329.47    7149.0915   -83478.561     100.4325 
    2250    279.87897   -991.94791    277974.03   -76297.489    7106.2781   -83403.767    103.30724 
    2300    281.80977   -1026.6188    278246.56   -76196.949    7155.3024   -83352.251    106.44517 
    2350    282.11881   -892.51529     278751.4   -76095.735     7163.149   -83258.884    109.19691 
    2400     287.6526   -1236.6183    279293.54   -76071.154    7303.6548   -83374.809    112.03441 
    2450     281.4403   -948.43545    279322.54   -76014.634    7145.9212   -83160.555    114.65976 
    2500     283.6692     -1215.56    279119.91   -75937.382    7202.5143   -83139.896    117.69557 
    2550    285.48557   -1118.9372    279109.12   -75907.118    7248.6328    -83155.75    121.31815 
    2600    285.00139   -977.19451    279310.32   -75879.526    7236.3391   -83115.865    124.53546 
    2650    287.78431   -933.46037    279558.37   -75797.163     7306.999   -83104.162    127.73858 
    2700    288.20624   -992.81805    279733.88   -75761.704     7317.712   -83079.416    131.21139 
    2750    288.04131    -1145.558    279419.49   -75782.977    7313.5245   -83096.501    133.92415 
    2800    291.39782   -785.73381    278931.97   -75762.648     7398.748   -83161.396    136.28681 
    2850     286.7021   -871.56614    278703.73   -75771.752    7279.5211   -83051.273    139.05089 
    2900    287.69002   -818.97738    278877.13    -75783.85    7304.6051   -83088.455    142.55795 
    2950    291.06968   -1039.5883    279162.84   -75769.154    7390.4163   -83159.571    146.20152 
    3000    292.90304   -1007.5833    279384.98   -75720.305    7436.9665   -83157.272    149.46802 
    3050    292.70628   -1134.2833     279619.7   -75718.606    7431.9706   -83150.577    152.73612 
    3100    293.01434   -1319.8273     279798.4   -75702.977    7439.7924    -83142.77    156.18473 
    3150    289.87384   -968.77037    279669.42   -75708.731    7360.0533   -83068.784    159.46476 
    3200    288.78824   -1054.3536    279511.61   -75664.214    7332.4893   -82996.703    162.78665 
    3250    292.79161   -1222.0615    279436.09    -75640.32    7434.1371   -83074.457    166.46872 
    3300    288.19655   -759.03787    279464.45   -75586.303     7317.466   -82903.769    169.45697 
    3350    293.07648   -785.37218    279715.36   -75486.591    7441.3701   -82927.961     172.9611 
    3400    291.12549   -1093.0707    279887.78   -75530.418    7391.8333   -82922.252    176.71878 
    3450    290.25582   -696.89467    279831.39   -75554.138     7369.752    -82923.89    179.64874 
    3500    288.82468   -1171.5227    279803.42   -75533.672    7333.4146   -82867.087    183.36194 
    3550    294.99033   -1066.4858    279478.12    -75495.25    7489.9637   -82985.213    186.89786 
    3600    293.16312   -741.60724    279133.41   -75515.876      7443.57   -82959.446    190.35441 
    3650    290.71551   -855.71349    279330.95   -75521.405    7381.4239   -82902.829    193.77032 
    3700    298.63803   -1265.5678     279901.3   -75506.287    7582.5808   -83088.867    198.37319 
    3750    287.29681   -837.47246    280100.13   -75519.571    7294.6211   -82814.192    201.95229 
    3800    295.89758   -909.55907    279784.72   -75530.789    7512.9994   -83043.789    205.52734 
    3850    295.41453   -938.18452    279549.18   -75521.236    7500.7345    -83021.97    209.29489 
    3900    292.79464   -877.27033    279231.63   -75526.553    7434.2141   -82960.767    212.63666 
    3950    300.54977   -852.89811    279055.54   -75495.327    7631.1209   -83126.448    216.72479 
    4000    293.89605   -986.66173    279501.37   -75496.948    7462.1794   -82959.127    220.32907 
    4050    295.21193   -996.08879    279958.43   -75477.158    7495.5904   -82972.748    223.46633 
    4100    294.26611   -1029.1971    280109.28    -75471.64    7471.5755   -82943.216    226.11618 
    4150     293.0458   -936.32504    280011.66   -75431.931     7440.591   -82872.522    229.33127 
    4200    294.88266   -988.05839    279826.02   -75423.197    7487.2301   -82910.428    231.67185 
    4250    300.31992   -1193.5121    279765.65   -75406.006    7625.2849   -83031.291    234.64189 
    4300    294.07836   -962.29924    279794.52   -75416.951    7466.8083   -82883.759     238.5418 
    4350    304.48746   -1030.6943    279763.53    -75441.04    7731.1011   -83172.141    241.70717 
    4400    287.36145    -910.9633    279856.67   -75423.374    7296.2625   -82719.636    245.09063 
    4450    297.16048   -1114.9608    280021.65   -75352.521    7545.0651   -82897.586    247.87769 
    4500    296.38722   -1107.1458    279729.61   -75306.557    7525.4315   -82831.988    250.85693 
    4550    302.71737   -843.52282    279259.62   -75267.483    7686.1575   -82953.641    253.39729 
    4600    300.92464   -815.49543    279502.47   -75266.314    7640.6392   -82906.953    256.87687 
    4650    301.03493    -921.2376    280244.44   -75196.488    7643.4395   -82839.928    261.58805 
    4700    300.08213   -1309.9647    280762.53   -75173.926    7619.2474   -82793.174    265.92128 
    4750    296.74941   -1213.4468    280604.46   -75182.103    7534.6279   -82716.731    269.90905 
    4800    302.16156   -1104.9496    279924.11   -75201.179    7672.0451   -82873.224    272.12018 
    4850    300.27744   -843.05279    279681.26   -75208.522    7624.2064   -82832.729    274.60148 
    4900    299.07249   -1140.5978    279903.36   -75199.221    7593.6121   -82792.833    278.00582 
    4950    297.44931   -1134.1605    280232.79   -75203.604    7552.3987   -82756.003    282.04203 
    5000     297.9322   -1028.8099     280405.5   -75212.838    7564.6595   -82777.498    285.55108 
    5050    299.04149   -780.01558    280041.05   -75229.747    7592.8248   -82822.572    288.60889 
    5100    300.84899   -836.31443    279736.81   -75248.745    7638.7184   -82887.463    290.77405 
    5150    297.99706   -886.30903    279706.97   -75268.541    7566.3062   -82834.847    294.74203 
    5200    296.54265   -1058.6171    279769.14   -75269.912    7529.3781   -82799.291    298.77074 
    5250    291.11904   -1245.5136    280014.08   -75251.984    7391.6695   -82643.654    302.48913 
    5300    302.75651   -1112.4743    279912.01   -75244.517    7687.1514   -82931.668    306.60093 
    5350      290.699   -1037.2669    279785.04   -75196.101    7381.0046   -82577.106    309.61969 
    5400    294.63106   -784.00685    279493.24   -75265.499    7480.8417   -82746.341    311.62004 
    5450    301.87775   -1070.1939    279419.19   -75252.999    7664.8392   -82917.838    314.66159 
    5500    299.61819   -932.51374    279772.61   -75252.691    7607.4676   -82860.158    318.14721 
    5550    298.83848   -1088.1953    280301.04   -75301.196    7587.6703   -82888.866    322.50783 
    5600    299.03251   -1012.5289    280163.06   -75373.855    7592.5968   -82966.451    326.47106 
    5650    298.06426   -949.94247    279743.18   -75464.338    7568.0124    -83032.35    329.09907 
    5700    299.35567   -956.14618    279446.71   -75446.836    7600.8022   -83047.639    332.65916 
    5750    297.61777   -1098.7334    279662.54    -75420.39    7556.6758   -82977.066    336.44277 
    5800    297.33512   -819.58721    280025.47   -75413.294    7549.4991   -82962.793    339.96371 
    5850    298.92915   -1098.4319    280340.25   -75344.765    7589.9726   -82934.738    343.65762 
    5900    297.92016   -1141.9018    280222.39   -75376.556    7564.3537    -82940.91     346.6198 
    5950    298.42892   -1098.7324    279658.18   -75387.959    7577.2715   -82965.231    349.82879 
    6000    293.23411   -932.58427    279155.23   -75392.545    7445.3725   -82837.918    353.02776 
    6050    296.65905    -858.8959    279215.66   -75343.067    7532.3335     -82875.4    356.24511 
    6100    297.16114   -806.59349    279794.04   -75342.509    7545.0818   -82887.591    359.25778 
    6150    297.44415   -897.11653    280263.64   -75321.298    7552.2677   -82873.565      363.866 
    6200     293.4509   -1152.7595     280350.8   -75339.217    7450.8768   -82790.094    367.69444 
    6250    300.91579   -896.09082    279914.92   -75327.224    7640.4144   -82967.639    370.94056 
    6300     299.4116   -691.88066    279675.73   -75292.288    7602.2222    -82894.51    374.14218 
    6350    302.79363   -894.25211    280008.27    -75257.38    7688.0937   -82945.474    377.40227 
    6400    297.07524   -1297.6339    280240.31   -75323.294    7542.9008   -82866.195    381.34954 
    6450    295.28403   -992.40181    279982.12   -75334.785    7497.4211   -82832.206    384.88894 
    6500    294.89859   -827.43385    279598.68   -75278.935    7487.6344   -82766.569    387.95641 
    6550    299.55619   -803.25525     279288.5   -75258.798    7605.8934   -82864.691     390.0415 
    6600    298.86922   -1132.2933    279865.82   -75268.052     7588.451   -82856.503    393.35006 
    6650    302.02305   -1332.6386    280609.89   -75305.249    7668.5285   -82973.778    397.22799 
    6700    300.31797   -1197.2354    280651.67   -75321.517    7625.2355   -82946.753    400.93136 
    6750    298.73896    -1013.977    280004.93   -75352.896    7585.1436    -82938.04    403.88282 
    6800    297.99117   -752.60486    279378.83   -75325.781    7566.1568   -82891.938    405.74129 
    6850    299.60371   -857.25493    279187.12   -75333.435    7607.1001   -82940.535    409.11559 
    6900    297.08728   -1028.4227    279643.59   -75297.991    7543.2064   -82841.198    412.33765 
    6950    300.94256    -1273.011    280403.87    -75274.24     7641.094   -82915.334    416.54296 
    7000    299.92659   -1245.2328    280597.52   -75255.972     7615.298    -82871.27    420.23869 
    7050    299.40053   -1135.6959    280204.07   -75244.494    7601.9413   -82846.435     422.1727 
    7100    299.60015   -1049.0767    279591.43   -75251.412    7607.0096   -82858.422    425.21223 
    7150    297.86691   -872.47905    279401.74   -75309.976    7563.0016   -82872.977    427.90461 
    7200    297.62612   -549.07325    279474.37   -75350.091    7556.8879   -82906.979    430.24307 
    7250     296.0781   -937.13576    279700.64   -75296.509    7517.5828   -82814.092    434.79019 
    7300    300.67194   -875.60913    279746.09   -75272.723    7634.2228   -82906.946    437.31662 
    7350    300.72865   -991.91007    279917.42   -75262.791    7635.6629   -82898.454    439.74886 
    7400    299.31958   -1094.2335    280080.43   -75217.093    7599.8858   -82816.978    442.50933 
    7450    300.27453   -1174.4518    280088.94   -75192.753    7624.1326   -82816.885    446.42123 
    7500    300.01794   -583.46812    279947.39   -75269.617    7617.6176   -82887.234    449.86141 
    7550    297.07488   -950.64269    280158.95   -75303.855    7542.8915   -82846.746    452.91895 
    7600    299.07205   -1260.0796    280411.89   -75247.558    7593.6009   -82841.159    455.99617 
    7650    295.77429    -1211.212    280122.73    -75264.35    7509.8691   -82774.219    459.06318 
    7700    302.37006   -892.41925     279710.4   -75258.756    7677.3392   -82936.095     463.2281 
    7750    297.97009   -781.88646    279720.97    -75222.55    7565.6215   -82788.172    465.55991 
    7800     295.2383    -1055.206    279952.49   -75255.553    7496.2598   -82751.813     468.3069 
    7850    300.20684   -1091.6146    280222.87    -75227.22    7622.4137   -82849.633    471.08964 
    7900     294.0293   -1036.0231    280159.99   -75252.387    7465.5627    -82717.95    472.65488 
    7950    294.71111   -830.81457    279857.53   -75300.111    7482.8744   -82782.985    475.12363 
    8000    299.31186    -1146.987    279712.44   -75291.433    7599.6897   -82891.123    476.45584 
    8050    296.94647   -1080.9422     279672.3   -75274.758    7539.6312   -82814.389    479.96406 
    8100    295.77113   -903.27998     279712.3   -75316.863    7509.7887   -82826.652    483.43403 
    8150    300.60263   -819.42502    279713.36   -75263.494     7632.463   -82895.957     485.2762 
    8200    297.61594   -1049.6995    279789.45   -75293.633    7556.6295   -82850.262    488.46706 
    8250    295.33537   -1184.7307    279717.54   -75295.899    7498.7246   -82794.624    490.98285 
    8300    302.65743   -1007.1674    279677.95   -75283.929    7684.6356   -82968.564    493.70959 
    8350    292.74949   -574.09923    279647.49   -75334.553    7433.0675   -82767.621    496.30245 
    8400    297.84637   -931.90286    280082.67    -75333.86    7562.4802   -82896.341    499.57303 
    8450    293.32347   -1052.3415    280499.73    -75324.17    7447.6412   -82771.811    503.54009 
    8500    298.96196   -935.69616    280359.92   -75309.989    7590.8056   -82900.795     507.5381 
    8550    295.88885   -1255.5481    280042.58   -75337.573    7512.7776   -82850.351    509.68552 
    8600    297.23047   -787.25853    279470.13   -75335.322    7546.8423   -82882.164    512.72692 
    8650    296.28499   -975.16162    279286.22   -75338.645     7522.836   -82861.481     515.4559 
    8700    294.45544   -1218.2433    279633.83   -75329.915    7476.3826   -82806.298    519.46158 
    8750    298.43531   -1226.7358    280018.42   -75288.133    7577.4337   -82865.567    523.56099 
    8800     295.2023   -1269.9587    280056.92   -75303.103    7495.3458   -82798.449    527.50553 
    8850    289.64105   -833.37753    279826.38   -75346.443    7354.1428   -82700.586    529.20261 
    8900    296.10554   -645.07452     279608.6   -75373.014    7518.2795   -82891.294    531.56165 
    8950    296.64477   -959.00515    279851.65   -75347.792    7531.9708   -82879.763    533.53672 
    9000    296.96746   -1073.5649    280163.77   -75331.054    7540.1641   -82871.218    537.22164 
    9050    296.76793   -935.12881    280182.13   -75328.527     7535.098   -82863.625     539.7896 
    9100     293.1741   -1036.8142    279921.45   -75386.302    7443.8487   -82830.151    542.61663 
    9150    299.55897   -868.04169    279416.96   -75356.498     7605.964   -82962.462    545.62965 
    9200    300.06715   -961.71531    279151.99    -75372.13    7618.8671   -82990.997    547.53918 
    9250    297.09453   -1154.1474    279331.92   -75402.735    7543.3906   -82946.125    549.47319 
    9300    295.03511   -829.20639    279568.78   -75452.964    7491.1008   -82944.065    552.63778 
    9350    293.68876     -821.581    279781.32    -75422.45    7456.9162   -82879.366    555.51932 
    9400    295.70358   -942.27668    279990.85    -75410.94    7508.0736   -82919.014    558.42956 
    9450    291.78828   -903.97423    280034.34   -75363.952     7408.662   -82772.614    560.92812 
    9500    302.20504    -804.4836    279711.83   -75392.029    7673.1493   -83065.178    563.27243 
    9550    296.38901   -821.52327    279380.09   -75380.877    7525.4769   -82906.354    564.65222 
    9600    301.89122   -733.09094    279372.56   -75362.928    7665.1811   -83028.109    567.27981 
    9650    297.77185   -928.07028    279753.88   -75395.387     7560.588   -82955.975    570.41937 
    9700    299.34823   -1312.5637    280195.94   -75387.365    7600.6132   -82987.978     574.9596 
    9750    294.23346    -1141.027    279981.25   -75388.984    7470.7466   -82859.731    578.63346 
    9800    294.03155   -983.65008    279557.85   -75403.245    7465.6198   -82868.864     580.6531 
    9850    295.43288   -857.79533     279147.8   -75404.926    7501.2004   -82906.126    583.65405 
    9900    296.32054   -708.55714    279112.65   -75409.212    7523.7386    -82932.95    586.04048 
    9950    297.68146   -1286.8203    279744.36   -75381.355    7558.2929   -82939.648    589.54383 
   10000    293.38026   -1234.1535    280347.35    -75363.52    7449.0832   -82812.603    594.47551 
   10050    296.00235   -988.16135    280259.23   -75360.708    7515.6596   -82876.367    598.09097 
   10100    299.44144   -880.78819     279877.4   -75334.466    7602.9799   -82937.446    600.36591 
   10150    304.40268   -912.84101     279648.2   -75326.874    7728.9484   -83055.823    603.08861 
   10200    296.06426   -1252.3329    279779.64   -75310.204    7517.2315   -82827.436    606.91943 
   10250    298.48495   -1209.9373    280132.34   -75308.202     7578.694   -82886.896    609.70385 
   10300    302.17911    -1005.953    280206.89   -75284.729    7672.4907    -82957.22    614.05855 
   10350    294.20793   -1001.4272    280084.89   -75276.068    7470.0982   -82746.166    617.16896 
   10400    303.72676   -923.20018    279874.47   -75346.852    7711.7864   -83058.638    618.41084 
   10450    297.09441   -950.78223    279815.37    -75322.21    7543.3875   -82865.597    621.15996 
   10500    297.35357   -1015.6201    279910.23   -75322.177    7549.9676   -82872.145    623.09284 
   10550    298.14489   -1191.0916    280321.33   -75301.798    7570.0597   -82871.858    626.31276 
   10600    295.03615    -1304.261    280573.03   -75290.093    7491.1271    -82781.22    628.08334 
   10650    300.35558   -1085.3603    280224.55   -75272.532    7626.1904   -82898.722     629.8895 
   10700    298.74078   -885.69743    279592.01   -75308.435    7585.1898   -82893.625    631.30676 
   10750    304.00165    -781.3446    279454.64   -75284.981    7718.7661   -83003.747    632.92242 
   10800    297.63426   -1125.3959    279886.11   -75298.625    7557.0945    -82855.72    636.98306 
   10850    299.30481   -1004.8081    279993.89    -75246.27    7599.5108   -82845.781    639.78226 
   10900    300.84337   -915.42131    280036.62   -75245.637    7638.5757   -82884.213     642.0829 
   10950    299.07179   -860.25348    279998.48   -75255.739    7593.5943   -82849.334    644.37373 
   11000     296.9826   -1051.6466    279754.12   -75299.234    7540.5487   -82839.783    646.55319 
   11050     297.7484   -826.35814    279625.32   -75332.915    7559.9926   -82892.907    649.75008 
   11100    302.24262   -1129.6106    279651.44   -75313.163    7674.1033   -82987.266    653.15671 
   11150    295.15978   -646.48353    279639.86   -75320.091    7494.2662   -82814.357    655.98297 
   11200    299.43503   -866.75186    279942.96   -75305.424    7602.8171   -82908.241    658.82727 
   11250    294.76085   -1037.6313     280180.2   -75338.322     7484.137   -82822.459    662.48699 
   11300     300.4022    -1067.234    280134.27   -75322.883    7627.3742   -82950.257    665.07103 
   11350     298.5208   -1187.3348    279806.29   -75360.835    7579.6044   -82940.439    667.92301 
   11400    297.88549   -879.88354    279647.46   -75366.894    7563.4733   -82930.368    671.56795 
   11450    294.88374   -1018.2413    279665.68   -75420.318    7487.2573   -82907.575    674.38217 
   11500    299.70208    -1085.434    279675.71   -75422.149    7609.5978   -83031.746    676.40379 
   11550    295.79734    -988.2752    279583.39   -75448.861    7510.4541   -82959.315    679.45035 
   11600     294.2996   -774.43574    279632.14   -75431.272    7472.4257   -82903.698    682.39975 
   11650    293.68022   -1152.7362     279853.4   -75411.261    7456.6994    -82867.96    684.38369 
   11700    295.03843   -1079.1529    279959.69   -75367.464     7491.185   -82858.649    687.31714 
   11750    296.89663    -841.4428    279918.81   -75390.424    7538.3658    -82928.79    689.17885 
   11800    296.30174   -898.33577    280006.12   -75410.029    7523.2612    -82933.29    692.45553 
   11850    301.46131   -1306.7743    280039.68   -75341.133    7654.2654   -82995.399    694.92028 
   11900    293.03941    -799.2942    279763.85   -75431.329    7440.4289   -82871.758    698.89104 
   11950     293.7269   -1118.7548    279705.42   -75421.896    7457.8846   -82879.781    700.89374 
   12000     297.3489   -1009.5703    279568.15   -75424.885     7549.849   -82974.734    704.38324 
   12050    292.53613   -1050.1914    279610.82   -75412.864    7427.6503   -82840.514    707.05353 
   12100    294.16788   -783.73688    279745.77    -75379.99    7469.0813   -82849.071    711.70105 
   12150    294.95287   -855.15918    279823.95   -75365.897    7489.0126    -82854.91    713.68378 
   12200     295.3032   -960.46453    279634.67   -75359.488    7497.9078   -82857.396    716.46516 
   12250    296.45743   -455.77667     279438.7   -75327.266    7527.2144    -82854.48    717.94173 
   12300     299.8975   -1001.6836     279798.3    -75345.22    7614.5594   -82959.779    721.66264 
   12350    296.93218    -951.6776    280076.77   -75368.702    7539.2683    -82907.97    725.58616 
   12400    293.35008   -1273.8032     280269.9   -75407.184     7448.317   -82855.501    730.85079 
   12450    297.20285   -1133.3927    280107.19   -75379.743    7546.1409   -82925.884    734.19642 
   12500    294.77231   -916.37422    279658.49   -75362.592    7484.4281    -82847.02    736.98737 
   12550    295.30564   -558.12307    279372.35   -75414.302    7497.9697   -82912.272    739.51087 
   12600    295.47417   -907.17109    279585.34   -75363.981    7502.2487    -82866.23    744.05705 
   12650    299.57008     -952.244    279847.92   -75372.735    7606.2461   -82978.982    746.80548 
   12700    296.23418   -1103.9332    280005.02   -75347.015    7521.5459   -82868.561    749.81477 
   12750     294.5918   -896.11831    280015.68   -75391.994    7479.8449   -82871.839    753.40031 
   12800    294.88492   -1228.2048    280052.65   -75413.235    7487.2873   -82900.522    757.19277 
   12850    289.07824   -893.87099    279901.99   -75406.159    7339.8525   -82746.012    759.27578 
   12900    294.51433   -1011.2243    279701.19   -75390.499    7477.8778   -82868.376    761.52837 
   12950     296.4833     -867.077    279426.03   -75410.392    7527.8711   -82938.263    764.71375 
   13000     296.0514   -915.48005    279691.13   -75380.692    7516.9049   -82897.597    768.79651 
   13050    297.20363   -975.40551    279952.09   -75357.968    7546.1606   -82904.128    771.04497 
   13100    299.40954   -1209.2798    280102.38   -75322.855    7602.1699   -82925.025    773.32399 
   13150    292.36625   -1326.5854     279994.8   -75341.585    7423.3371   -82764.922      775.862 
   13200    298.49476   -1023.9244    279570.58    -75365.02    7578.9431   -82943.963    776.95175 
   13250    295.76874   -782.94112    279334.03   -75427.968    7509.7281   -82937.696    778.48208 
   13300    293.12126   -616.11912    279393.35   -75424.335    7442.5072   -82866.842    780.23902 
   13350    293.51801   -1060.8087    279803.85   -75388.626    7452.5809   -82841.207    784.55496 
   13400    291.26562   -1273.6887     280084.5   -75409.207    7395.3913   -82804.599    789.39258 
   13450    297.06237   -851.62067    279909.86   -75438.154     7542.574   -82980.728     792.6173 
   13500    286.21559   -907.84061    279619.82   -75401.095    7267.1684   -82668.263     795.3728 
   13550    295.08603   -794.21779    279245.73   -75496.799    7492.3936   -82989.192    797.07952 
   13600    293.88844   -846.85733     279210.2   -75502.498    7461.9863   -82964.485    800.20858 
   13650    290.95262   -939.25299     279779.5   -75496.762    7387.4442   -82884.206    804.49441 
   13700    295.79456   -1115.2866    280145.32   -75484.085    7510.3835   -82994.468    806.51742 
   13750    298.66306   -935.40155    279950.38   -75472.006    7583.2164   -83055.222      809.006 
   13800    291.75042   -1059.9458    279895.15   -75520.297    7407.7007   -82927.997    812.30928 
   13850    293.06274   -1144.8595    279795.78   -75510.373    7441.0211   -82951.394    815.39085 
   13900    289.03084   -902.41567    279535.51   -75477.016    7338.6492   -82815.665    817.48377 
   13950    293.42889   -1004.2741    279436.19   -75494.397    7450.3179   -82944.715    819.01694 
   14000    296.35834   -806.51928    279360.55   -75441.142    7524.6982    -82965.84     820.5495 
   14050    292.76788   -857.05542    279545.15   -75424.129    7433.5346   -82857.663    823.58926 
   14100    294.96438     -1027.85    279726.64   -75411.741    7489.3048   -82901.046    827.58711 
   14150    288.64761   -860.56042    279670.86   -75407.498    7328.9186   -82736.417    831.15023 
   14200    299.30677   -819.53475     279709.3   -75406.007    7599.5606   -83005.568    834.40953 
   14250      297.753   -1046.8783    279858.02   -75321.739    7560.1095   -82881.849    838.47491 
   14300    296.81762   -1200.4703    280068.57   -75343.317    7536.3597   -82879.677    840.94636 
   14350     299.1689   -1136.4978       280178    -75339.43    7596.0599    -82935.49    842.14853 
   14400    295.00353   -1393.5873    280155.35   -75307.592    7490.2988   -82797.891     844.5435 
   14450    294.74897    -919.8874    279694.23   -75366.205    7483.8354    -82850.04    846.03972 
   14500    292.88481    -1033.316    279319.99   -75381.607    7436.5036   -82818.111    847.94804 
   14550    293.79448   -595.61438    279049.07   -75433.882    7459.6004   -82893.483    849.42986 
   14600    296.46809   -797.29212     279321.3    -75428.72    7527.4849   -82956.204     853.3399 
   14650    294.82182   -903.05469     279903.5   -75432.418    7485.6852   -82918.103    854.80969 
   14700    296.94211   -916.32803    280385.03   -75386.744    7539.5205   -82926.264    857.25631 
   14750    297.83742   -1249.7605    280464.78     -75395.3    7562.2529   -82957.552    861.90561 
   14800    297.86393   -1016.9362    279966.46   -75452.349     7562.926   -83015.275    863.91941 
   14850    297.15605   -827.85338    279229.58    -75474.89    7544.9526   -83019.843    864.28306 
   14900    296.95761   -679.84614    278842.65    -75486.39     7539.914   -83026.303    866.09089 
   14950    292.27014   -1043.4497    279363.29   -75549.106    7420.8966   -82970.002    869.42854 
   15000    293.58538   -924.10624    279945.91   -75532.445    7454.2913   -82986.736    873.77402 
   15050    292.24781    -1193.615    280058.16   -75530.983    7420.3297   -82951.313    877.24446 
   15100    289.67457   -1080.2452    279584.49   -75507.318    7354.9938   -82862.312    879.31402 
   15150    294.13393   -808.35251     279158.1   -75527.045    7468.2194   -82995.264    881.94077 
   15200     290.0425   -718.37248    279126.75   -75507.881    7364.3358   -82872.217    884.15458 
   15250    293.62936   -999.24593    279571.42   -75513.208    7455.4081   -82968.617    887.02497 
   15300    298.26264   -1146.4879    280098.67   -75465.138    7573.0496   -83038.188    890.58064 
   15350    288.66183   -1158.9841    280326.15   -75449.985    7329.2796   -82779.264    893.84938 
   15400    292.97012   -1078.2924    280014.29   -75419.647    7438.6696   -82858.316    896.47189 
   15450     297.5897   -1084.5426    279253.71    -75447.33    7555.9632   -83003.293     897.8916 
   15500    295.60434   -840.69265    278939.08   -75435.113    7505.5538   -82940.667    900.22471 
   15550      296.292   -672.88815    279418.79   -75440.186    7523.0139     -82963.2    904.36523 
   15600    293.94608   -1525.6722    280310.03   -75418.514    7463.4497   -82881.964    908.20997 
   15650    292.85964    -1254.131    280293.19   -75427.094    7435.8645   -82862.959    909.36859 
   15700    296.93932   -956.09263    279731.04   -75408.604    7539.4497   -82948.054    909.46862 
   15750     295.9477   -1000.4035     279364.4   -75417.599    7514.2718   -82931.871    909.87231 
   15800    297.87624    -951.3262    279590.09   -75416.006    7563.2386   -82979.245    913.49216 
   15850    294.34887   -1142.5441    280205.54   -75376.664    7473.6767   -82850.341    916.40748 
   15900    292.84803   -998.58989    280569.03   -75370.288    7435.5695   -82805.858    918.90492 
   15950    294.27254   -958.23017    280117.32   -75343.785    7471.7388   -82815.524    920.91834 
   16000    296.79901   -786.68747    279388.49   -75325.569    7535.8872   -82861.456    922.61078 
   16050    298.31648   -753.88026    279048.39   -75290.124    7574.4166    -82864.54    923.65942 
   16100    296.56058   -1009.4792     279637.9   -75278.261    7529.8333   -82808.095    926.72904 
   16150    295.83097   -1209.6559    280625.61   -75264.744     7511.308   -82776.052    931.57735 
   16200    299.31163   -1550.0989    281136.99   -75198.144     7599.684   -82797.828     935.5341 
   16250    294.83703   -1055.0387    280639.37   -75191.586    7486.0713   -82677.657     937.1861 
   16300    293.73372   -811.17917    280072.68   -75218.015    7458.0577   -82676.073    937.54734 
   16350    300.52821   -862.08074    279793.61   -75246.893    7630.5736   -82877.467    939.07798 
   16400    295.15569    -918.8393    279689.39   -75223.807    7494.1624   -82717.969    942.27319 
   16450    297.49225    -631.7139    279910.58   -75272.574    7553.4889   -82826.063    946.17672 
   16500    302.36172    -1138.284    280480.59   -75232.621    7677.1274   -82909.748    949.97343 
   16550    301.61226   -1109.6747    280745.76   -75190.025    7658.0982   -82848.123    953.29056 
   16600    295.70211   -1092.6703    280460.41   -75170.302    7508.0362   -82678.338    955.13449 
   16650    307.14615   -1098.7611    279875.87   -75127.911    7798.6066   -82926.517    956.23971 
   16700    304.11362   -907.30971    279318.65   -75226.894     7721.609   -82948.503    957.08085 
   16750    297.67898   -853.04713    279505.69   -75248.275    7558.2299   -82806.505     959.8479 
   16800    299.81829    -1008.853    279912.86   -75264.387    7612.5483   -82876.935    963.73322 
   16850    296.23209   -1173.0008    280186.83   -75289.457    7521.4929    -82810.95    968.15752 
   16900    301.61748   -873.69891    280136.51   -75293.476    7658.2307   -82951.707    970.24953 
   16950    302.88288   -1017.3827    280156.16   -75247.937    7690.3598   -82938.297     972.6695 
   17000    297.27311    -1141.009    280243.49   -75280.543    7547.9249   -82828.468    975.84626 
   17050     299.7129   -711.23318    280167.69   -75255.004    7609.8725   -82864.877    979.51779 
   17100    300.20974   -1057.0776    280074.86   -75255.155    7622.4874   -82877.642    982.44494 
   17150    301.37915   -787.83925    279859.15   -75205.049    7652.1794   -82857.229    985.67021 
   17200    302.81535   -937.43884    279875.75    -75159.69    7688.6454   -82848.335    985.98834 
   17250    304.52198   -1067.9014    280071.21   -75169.658    7731.9776   -82901.636    988.23453 
   17300    299.56129   -1164.8486    280498.59   -75111.556    7606.0228   -82717.579    992.34347 
   17350    299.51331   -1288.4533    280464.56   -75160.189    7604.8047   -82764.994      994.837 
   17400    301.10934   -832.35773    279868.18   -75192.324    7645.3288   -82837.653    996.46121 
   17450    302.60723   -596.25615    279353.77   -75163.572    7683.3609   -82846.933    998.24733 
   17500    303.94487   -936.35777    279628.59   -75220.054    7717.3245   -82937.378    1001.4494 
   17550    298.27279     -1268.23    280480.03   -75256.083    7573.3071    -82829.39    1006.9395 
   17600    299.92927   -1124.3303    280731.44   -75224.403     7615.366   -82839.769    1010.7039 
   17650    296.60749    -1329.135    280365.98   -75175.662    7531.0242   -82706.686    1011.4885 
   17700    298.38899   -855.35561    279604.14   -75161.621    7576.2576   -82737.879    1012.4274 
   17750    301.51013   -504.08169    279048.74   -75163.227     7655.505   -82818.732    1013.5578 
   17800      300.753   -623.66699    279364.28   -75167.378    7636.2811   -82803.659    1017.5891 
   17850      298.062   -1131.8311     280446.7   -75179.982    7567.9552   -82747.937    1024.7575 
   17900    299.04046   -1224.4613    281242.79   -75192.517    7592.7987   -82785.316    1029.7218 
   17950    296.76376   -1184.6007    281013.63   -75205.864     7534.992   -82740.856      1031.77 
   18000    296.52094   -1024.9275    280068.44   -75276.317    7528.8269   -82805.144    1031.6886 
   18050    300.72093   -859.69915    279272.17   -75335.064    7635.4667    -82970.53    1033.2472 
   18100     301.9178    -710.3577     279114.2   -75376.729    7665.8559   -83042.585    1035.2424 
   18150    298.01487    -866.1689    279613.12   -75408.198    7566.7585   -82974.956    1039.8967 
   18200    295.76367    -1001.032    280325.92   -75340.216    7509.5992   -82849.815    1045.7202 
   18250    301.37391   -1337.6817    280739.91   -75281.669    7652.0463   -82933.715    1049.7832 
   18300    300.91118   -1096.5463    280376.03   -75263.859    7640.2973   -82904.157    1050.5795 
   18350     299.5534   -645.76557    279728.89   -75266.447    7605.8225   -82872.269     1049.744 
   18400    292.83721   -402.83129    279490.01   -75275.689    7435.2948   -82710.984    1052.5624 
   18450     295.8365   -808.25807    279810.37   -75302.266    7511.4485   -82813.714    1055.5743 
   18500    297.73875   -1196.9543    280229.18   -75264.668    7559.7476   -82824.415    1059.5205 
   18550    298.28093   -1176.4362    280162.14   -75232.155    7573.5139   -82805.669     1061.994 
   18600    298.17919   -1117.4209    279853.12   -75210.069    7570.9307       -82781    1063.9123 
   18650    304.81416   -910.30422    279590.08   -75240.927    7739.3962   -82980.323     1065.348 
   18700    300.19318   -948.29781    279738.25   -75256.015     7622.067   -82878.082    1067.9283 
   18750    302.38689   -1008.2308    280139.51   -75175.388    7677.7664   -82853.155    1072.7603 
   18800     300.0397   -1113.3711    280441.72   -75183.381    7618.1699   -82801.551    1077.3408 
   18850    300.05487   -1179.7561    280265.72   -75210.794    7618.5551   -82829.349    1080.7837 
   18900    296.64427   -1046.8985    279992.84   -75240.262    7531.9582    -82772.22    1082.9306 
   18950    299.13018   -975.72412    279690.79   -75279.032    7595.0768   -82874.108    1084.7274 
   19000    297.80725   -1087.8116    279581.97   -75253.338    7561.4868   -82814.824    1088.3051 
   19050    301.31482   -892.04424    279498.98   -75235.413     7650.546   -82885.959     1089.781 
   19100    299.86272    -900.9652    279851.31   -75271.481    7613.6764   -82885.157    1095.5738 
   19150    294.08517   -1063.7358     280419.6   -75220.084    7466.9813   -82687.066    1100.9261 
   19200    304.38432   -1185.9458    280425.57    -75238.02    7728.4823   -82966.502    1104.0541 
   19250    297.62176   -984.08104    280270.38   -75228.481    7556.7773   -82785.258    1105.3379 
   19300    299.10025   -1255.3254    280175.02   -75252.289    7594.3168   -82846.606    1106.8649 
   19350    301.68046   -817.43651    279762.39   -75287.831    7659.8297   -82947.661    1109.2839 
   19400      298.068   -1112.5491     279403.1   -75299.428    7568.1074   -82867.535    1111.0036 
   19450    295.87289   -797.72848    279171.85   -75326.373    7512.3725   -82838.745    1114.1071 
   19500    300.38306   -939.25997    279468.39    -75390.43    7626.8881   -83017.319    1118.1261 
   19550    298.76649   -1309.4123       280077   -75316.341    7585.8426   -82902.184    1122.6985 
   19600    291.78615   -885.47092    280413.72   -75293.209    7408.6078   -82701.817    1125.0622 
   19650    295.50754   -1041.7296    280184.97   -75253.872    7503.0961   -82756.968    1125.7724 
   19700    298.80801   -750.39968     279780.8   -75207.704    7586.8967   -82794.601     1127.234 
   19750    301.18754   -650.46534    279675.95   -75240.993    7647.3143   -82888.307    1129.4213 
   19800    299.88988   -706.79923    280086.75    -75258.33    7614.3661   -82872.696    1134.0795 
   19850    300.29162   -1024.7412    280633.28   -75219.481    7624.5663   -82844.047    1139.1826 
   19900    301.13269   -1098.4283    280526.15   -75168.049    7645.9215   -82813.971    1143.2914 
   19950    296.95471   -901.93085    279998.98   -75177.345    7539.8405   -82717.185    1144.2829 
   20000     297.2463   -793.44439    279633.31   -75145.924    7547.2441   -82693.168    1146.6932 
   20050    303.34917   -976.78836    279669.12   -75193.579    7702.1991   -82895.778    1148.1124 
   20100    300.01457   -1017.0885    279903.88   -75210.233    7617.5319   -82827.765    1150.8647 
   20150    300.98323   -1098.7259     280012.3   -75240.595    7642.1268   -82882.722    1154.0201 
   20200    304.69919   -1060.2162    279954.53   -75239.967    7736.4771   -82976.444    1154.9198 
   20250    298.97434   -1285.4904    279876.81   -75262.854      7591.12   -82853.974    1156.3278 
   20300     297.1821   -808.35774    279643.71   -75239.104    7545.6141   -82784.718    1158.4402 
   20350    302.41538   -939.04556    280002.03   -75235.958    7678.4899   -82914.447    1161.9866 
   20400    297.39435   -1203.5723    280269.04   -75192.571    7551.0032   -82743.574    1164.0395 
   20450    298.07871   -1044.1975    279944.74   -75150.021    7568.3793     -82718.4    1165.0622 
   20500    301.07575   -1080.7118     279788.3   -75155.435    7644.4758   -82799.911    1167.3294 
   20550      300.751    -905.0774    279869.96   -75140.511    7636.2302   -82776.741    1170.8087 
   20600    300.82774   -855.38172    280369.97    -75130.34    7638.1788   -82768.519    1173.4532 
   20650    301.53527   -1203.0051    280814.32   -75071.317    7656.1433   -82727.461    1178.7335 
   20700    296.64421   -1127.7536    280486.02   -75158.283    7531.9568   -82690.239    1179.1982 
   20750    302.59149   -680.97179    279592.07   -75172.737    7682.9613   -82855.698    1179.2528 
   20800     302.0793   -811.62671     279405.8   -75169.758    7669.9567   -82839.715    1180.0739 
   20850    298.83835   -1102.8719     279883.5   -75161.088    7587.6671   -82748.755     1182.683 
   20900    303.17023   -1056.7823    280103.66   -75079.471    7697.6559   -82777.127    1186.9968 
   20950    301.51399   -1120.8225    280193.88   -75142.002    7655.6031   -82797.605    1190.2042 
   21000    299.40969   -1140.5198    280176.47   -75168.825    7602.1736   -82770.998    1191.3262 
   21050    302.08968   -1169.1354    279965.21   -75114.998      7670.22   -82785.218    1192.3946 
   21100    309.16552   -855.47538    279557.22   -75118.039    7849.8795   -82967.918    1193.2507 
   21150    301.57687   -671.66273    279428.73   -75158.457    7657.1995   -82815.656    1195.7961 
   21200    299.25125   -982.23142    280058.49   -75171.755    7598.1508   -82769.906    1200.1171 
   21250    297.13706   -1314.1116    280856.47   -75201.896    7544.4704   -82746.366    1204.5464 
   21300    299.85288   -1109.3383    280955.74   -75191.213    7613.4267   -82804.639    1207.6525 
   21350    295.02617    -823.5774    280432.16   -75264.933    7490.8737   -82755.806    1210.1959 
   21400    299.09284   -1152.2553    279753.84   -75273.007    7594.1288   -82867.136    1209.6177 
   21450    299.34916   -804.25687    279196.69   -75277.328    7600.6367   -82877.964    1211.5876 
   21500    295.97645   -884.09089    279415.81   -75243.159    7515.0019   -82758.161     1216.887 
   21550    300.74923   -1131.2947    279932.11   -75245.561    7636.1854   -82881.746    1219.7542 
   21600    300.84727   -1073.8429    280409.99   -75288.868    7638.6747   -82927.542    1222.5132 
   21650    294.77798   -1304.5335    280783.71   -75287.663    7484.5722   -82772.235    1226.0321 
   21700    298.56999   -1023.7508    280519.57   -75260.475    7580.8534   -82841.328    1229.7088 
   21750    299.88326   -884.64806    279959.29   -75273.894     7614.198   -82888.092     1230.865 
   21800    298.41365   -800.44512    279611.25   -75290.392    7576.8838   -82867.275    1233.1622 
   21850    298.40107   -1038.3681    279635.93   -75284.397    7576.5643   -82860.962    1234.5654 
   21900    300.43046   -1033.3494    279658.37   -75270.633    7628.0916   -82898.724    1237.0301 
   21950    296.45669    -1443.835    280021.81   -75274.321    7527.1955   -82801.516    1243.5256 
   22000     300.7774   -1028.5932    280086.38   -75222.056    7636.9006   -82858.956    1248.0039 
   22050    298.35975   -1038.0796    280007.75   -75213.197     7575.515   -82788.712    1250.6607 
   22100     296.9589   -1045.7036    280061.51   -75196.523    7539.9467    -82736.47    1251.8736 
   22150    298.86429   -912.43909       280037   -75186.777    7588.3258   -82775.103    1253.6386 
   22200    297.79672   -866.41435    280042.09   -75173.598    7561.2195   -82734.817    1255.7109 
   22250    306.49538   -1092.1353    280103.66   -75198.303    7782.0833   -82980.386    1257.8354 
   22300    300.42999   -1007.8248    279937.61   -75222.829    7628.0796   -82850.908    1260.9993 
   22350    296.76537   -947.46259    279716.83   -75240.268    7535.0331   -82775.301    1261.9721 
   22400    300.41546   -1069.2515     279633.8   -75264.393    7627.7109   -82892.104     1263.517 
   22450    300.36443   -921.61372    279564.74   -75241.504    7626.4152   -82867.919    1267.3251 
   22500     299.1363   -883.23882    279956.39   -75163.127    7595.2323   -82758.359    1269.1197 
   22550     295.8092   -1008.5907    280435.16   -75185.918    7510.7554   -82696.673     1272.428 
   22600    298.73148   -1006.6911    280484.14   -75217.956    7584.9536    -82802.91    1274.8363 
   22650    304.40774   -1105.4531    280194.75   -75212.976     7729.077   -82942.053    1277.9527 
   22700    299.46191   -845.26938    280128.77   -75227.651    7603.4996   -82831.151     1281.236 
   22750    296.55998    -1135.193    279983.82   -75200.339     7529.818   -82730.157    1282.9078 
   22800    301.46231   -787.47716    279761.42   -75223.358    7654.2909   -82877.649    1284.8723 
   22850    300.34524   -858.22931    279979.35   -75208.905    7625.9279   -82834.833    1286.8982 
   22900    301.28205   -1007.9981    280458.84   -75144.935     7649.714   -82794.649    1288.7786 
   22950    297.96634   -1221.6635    280836.27   -75149.972    7565.5263   -82715.498    1292.3293 
   23000    299.75054   -1479.7667    280511.12   -75218.206     7610.828   -82829.034     1293.249 
   23050     299.1564   -1085.2373    279426.44   -75226.419    7595.7426   -82822.162    1290.3665 
   23100    297.84052   -679.65212    278883.16   -75278.062    7562.3316   -82840.393    1290.9437 
   23150    296.28806   -791.92484    279548.39   -75275.906     7522.914    -82798.82    1293.3511 
   23200    302.88101   -1324.1832    280742.75   -75213.364    7690.3125   -82903.677    1297.0246 
   23250    300.37741   -1319.4706    281147.63   -75185.478    7626.7445   -82812.222    1301.5844 
   23300    300.00433   -1317.0477    280506.87   -75214.992    7617.2721   -82832.264    1301.3077 
   23350    297.56068   -617.89624    279537.91   -75242.016    7555.2264   -82797.242    1299.9896 
   23400    301.02079   -767.65431    279358.52   -75238.016    7643.0805   -82881.096    1301.4358 
   23450    298.21474   -936.61372    279818.01   -75253.587    7571.8333    -82825.42    1307.4843 
   23500    294.65954    -1130.055    280405.14   -75265.452    7481.5648   -82747.016    1310.3241 
   23550    299.62581   -1097.3349    280496.49   -75258.366    7607.6611   -82866.027    1313.6932 
   23600    295.87516   -1123.8864    280068.73   -75269.614    7512.4302   -82782.044    1316.1076 
   23650    300.11847   -866.24115     279644.9   -75319.878      7620.17   -82940.048    1319.3133 
   23700    300.47976   -832.77566    279719.82   -75333.823    7629.3434   -82963.166    1322.5934 
   23750    299.25393   -963.65231    279995.15   -75328.512     7598.219   -82926.731    1326.0885 
   23800    297.10119   -1037.9506    280241.29   -75293.271    7543.5597    -82836.83    1329.1243 
   23850    300.48537    -943.9872    280096.12   -75264.387    7629.4859   -82893.873    1331.2928 
   23900    292.81222   -968.76247    279717.83   -75277.817    7434.6604   -82712.477    1334.0039 
   23950    299.81653   -1001.2913    279541.63    -75332.83    7612.5036   -82945.334    1339.9596 
   24000    294.18141   -1099.2583    279784.44   -75307.349    7469.4249   -82776.774    1343.7932 
   24050    293.61831   -1029.4095       280290   -75282.952    7455.1275    -82738.08     1350.984 
   24100    295.14673   -1169.0161    280429.42   -75279.773    7493.9349   -82773.708    1351.9705 
   24150    301.99892   -968.02453    279740.32   -75260.956    7667.9156   -82928.872    1350.1794 
   24200    299.88371   -562.03216    279120.63   -75280.184    7614.2092   -82894.393    1350.3737 
   24250    301.35521   -726.23847    279225.18   -75214.782    7651.5715   -82866.353    1352.3123 
   24300    300.07045   -1070.3683     279821.9   -75237.665    7618.9508   -82856.615    1355.2379 
   24350      300.632   -1185.6194    280028.94   -75271.937    7633.2089   -82905.146    1356.2923 
   24400    297.29631   -1032.8807    279706.54   -75289.587    7548.5139   -82838.101    1357.4183 
   24450    294.47114   -1168.1673    279587.52   -75296.989    7476.7812    -82773.77    1359.7329 
   24500    301.58994   -1160.6903    279699.68   -75301.752    7657.5315   -82959.284    1363.1697 
   24550    298.55104   -1171.8481     279787.9   -75329.196    7580.3721   -82909.568    1365.2323 
   24600    296.98669   -1082.7392     279706.6   -75359.648    7540.6525   -82900.301    1367.6385 
   24650    298.10131   -916.82686    279529.35   -75353.243    7568.9532   -82922.196    1369.0522 
   24700    298.59906   -1055.5918    279659.34   -75356.966    7581.5913   -82938.557    1371.5847 
   24750     294.9048   -781.66065    279920.27   -75333.973    7487.7921   -82821.765    1374.4285 
   24800    294.13609   -943.05089    280025.36   -75358.602    7468.2742   -82826.877    1376.1858 
   24850    292.65026   -948.23366    279876.94   -75361.669    7430.5481   -82792.217    1376.3592 
   24900    298.77596   -1298.1239    279653.42   -75399.387    7586.0831    -82985.47    1377.6592 
   24950    296.54758   -1114.4945    279602.03   -75403.549    7529.5032   -82933.052    1380.9919 
   25000    293.14325   -863.27561    279649.75   -75366.889    7443.0655   -82809.955    1384.8261 
   25050     295.8317   -1080.3126    279898.97   -75335.885    7511.3266   -82847.212     1387.476 
   25100    289.20353   -783.26831    279954.55   -75358.048    7343.0338   -82701.082    1388.7717 
   25150      296.718   -841.28609    279851.49   -75341.614    7533.8302   -82875.444    1391.4823 
   25200    298.07654   -732.25992    279780.55   -75303.249    7568.3243   -82871.573    1396.0382 
   25250     299.2241   -1219.5677    279998.91   -75286.737    7597.4615   -82884.198    1399.8096 
   25300    297.64608   -1015.6595    280054.66   -75248.318    7557.3947   -82805.713    1402.9097 
   25350    301.00244   -1059.4399    279891.36   -75255.411    7642.6145   -82898.026     1405.133 
   25400    295.82785   -706.52387    279640.71   -75282.607    7511.2288   -82793.836    1407.3963 
   25450    296.94329   -1053.4025    279626.98   -75304.488    7539.5504   -82844.039    1410.4627 
   25500     300.1325   -813.00818    279694.91   -75319.726    7620.5263   -82940.253     1414.455 
   25550    298.01062   -1254.6954    279939.85   -75321.794    7566.6506   -82888.445    1415.8247 
   25600    294.10958   -814.68561     279717.2    -75334.69    7467.6012   -82802.291     1417.472 
   25650     296.3233   -977.13597    279647.91   -75314.851    7523.8087    -82838.66    1418.5497 
   25700     296.8303   -1005.1337    279582.22   -75288.754    7536.6816   -82825.435    1420.0736 
   25750    295.75221   -1144.5683    279673.51   -75302.187    7509.3084   -82811.495    1424.7091 
   25800     297.1246   -1151.2726    280135.37   -75275.725    7544.1539   -82819.879    1427.6892 
   25850    297.53954   -1281.3468    280654.62   -75268.174    7554.6896   -82822.864    1431.2386 
   25900    291.92127   -1221.0741    280303.07   -75303.393    7412.0386   -82715.431    1430.7043 
   25950    300.43951   -1038.7576    279517.32   -75343.386    7628.3215   -82971.707    1429.6748 
   26000    295.34164   -840.07439    279062.15   -75373.158    7498.8838   -82872.042    1431.6631 
   26050    291.68417    -806.4896    279389.06   -75368.511    7406.0187    -82774.53    1436.4684 
   26100    297.11352   -914.33688    280138.27   -75380.288    7543.8727   -82924.161    1441.7364 
   26150    296.05423   -1131.5583    280737.56   -75307.556    7516.9768   -82824.533    1444.2363 
   26200    298.01857   -1408.2308    280627.81   -75299.853    7566.8525   -82866.706    1445.3575 
   26250    302.30859   -1386.5038    279785.38   -75285.426    7675.7784   -82961.204    1445.5931 
   26300    295.77308   -624.05556    278963.69    -75299.13    7509.8383   -82808.968    1444.8887 
   26350    300.46013   -737.22624    279014.53   -75244.657    7628.8449   -82873.502    1449.2988 
   26400    298.53559   -863.36332     279752.5   -75237.461    7579.9797   -82817.441    1454.4162 
   26450    300.55494   -1227.8571    280503.79   -75273.824    7631.2523   -82905.076    1456.3896 
   26500    299.95875   -1142.1929    280407.83    -75246.16    7616.1147   -82862.274    1459.8926 
   26550    298.65554   -984.60551    279734.01   -75298.547    7583.0254   -82881.572    1459.6258 
   26600    302.99593   -713.31759    279228.68   -75298.813    7693.2302   -82992.043    1461.1439 
   26650    299.89698   -1009.8936    279484.27   -75331.264    7614.5463    -82945.81    1465.6459 
   26700    294.44005   -1080.1449    279925.57     -75372.7     7475.992   -82848.692    1470.7554 
   26750    290.34303   -1189.4028    280113.77   -75393.343    7371.9664    -82765.31    1474.1501 
   26800    293.65423   -1384.8577    280070.05   -75390.317    7456.0395   -82846.357    1475.4495 
   26850    295.65334   -842.73786     279691.4   -75439.141    7506.7979   -82945.939    1475.9292 
   26900    292.94713   -1031.5516    279484.59   -75468.789    7438.0858   -82906.875    1478.4949 
   26950    297.84734   -765.95262    279228.63    -75465.37    7562.5047   -83027.875     1480.137 
   27000    295.71405   -884.59883    279448.58   -75478.584    7508.3394   -82986.923    1482.5768 
   27050    294.51561   -1192.1022    279952.52   -75462.847    7477.9105   -82940.758    1487.5607 
   27100    295.84912   -1213.3779    279966.95    -75503.71    7511.7689   -83015.479    1488.9553 
   27150    292.29165   -942.29741    279730.22   -75403.212    7421.4429   -82824.655    1490.5954 
   27200     298.6527   -964.65148    279656.52   -75410.431    7582.9533   -82993.384    1493.8898 
   27250    294.27521   -953.05134    279640.05   -75414.706    7471.8064   -82886.513    1497.0662 
   27300    292.50675   -1043.8091    279616.19    -75391.86    7426.9043   -82818.764    1498.5397 
   27350    295.92647   -690.11513    279734.31    -75403.43     7513.733   -82917.163    1501.5725 
   27400    297.28551   -1008.9457    279999.73   -75364.365    7548.2396   -82912.605    1506.0214 
   27450    293.95971   -927.17763    279954.97   -75325.007    7463.7957   -82788.803    1511.2576 
   27500    301.35201   -827.31928    279832.69   -75288.336    7651.4903   -82939.827    1514.8292 
   27550    303.49864   -1133.5709    279834.62   -75269.253    7705.9943   -82975.247    1515.9408 
   27600    299.44297   -1117.5603    279736.07   -75248.994    7603.0188   -82852.013    1518.1803 
   27650    301.92645   -1224.5302    279918.97   -75281.904    7666.0756    -82947.98     1522.211 
   27700    299.51151   -852.19209    280319.18   -75289.176    7604.7589   -82893.935    1528.6002 
   27750    298.94918   -845.75132       280477   -75250.012    7590.4812   -82840.493    1532.1462 
   27800    297.85713   -1111.2185    280481.47   -75301.446    7562.7535   -82864.199    1534.7306 
   27850    299.70004   -898.88804    279945.83   -75276.806    7609.5458   -82886.351    1536.8793 
   27900     305.5372   -805.95211    279400.48   -75218.147    7757.7546   -82975.902    1538.1001 
   27950    301.92476   -944.45634    279562.54   -75230.282    7666.0327   -82896.315    1541.0767 
   28000    298.78134   -1240.0797    280092.45   -75226.613    7586.2195   -82812.832    1545.5304 
   28050    298.78181   -1028.8563    280489.95   -75196.147    7586.2316   -82782.379    1548.5086 
   28100    296.70026   -1086.6246    280393.24    -75201.38    7533.3798   -82734.759    1548.7771 
   28150     298.5341   -798.34698    279827.96    -75237.17    7579.9421   -82817.112     1551.008 
   28200    299.29005   -736.22702    279538.54   -75272.066     7599.136   -82871.202    1554.6738 
   28250    302.33049   -879.32864    279750.03   -75215.769    7676.3343   -82892.103    1557.3169 
   28300    296.20356   -938.00384    280182.12   -75222.896    7520.7684   -82743.665    1563.6961 
   28350    297.58214   -1106.2034    280366.18   -75248.842    7555.7713   -82804.613    1566.4988 
   28400    299.95778   -890.86655    280219.24   -75242.467      7616.09   -82858.557    1568.7213 
   28450    297.81436    -871.7051    279776.84    -75243.84    7561.6673   -82805.508    1570.6455 
   28500    298.39732   -995.41792     279646.7   -75193.788    7576.4691   -82770.258    1573.6778 
   28550    302.73501   -871.76141    279889.86   -75152.786    7686.6055   -82839.392     1576.294 
   28600    297.22049    -929.3051    280278.33   -75106.068    7546.5887   -82652.657    1577.8732 
   28650    300.41409   -1151.8788    280550.71   -75119.554     7627.676    -82747.23    1580.9771 
   28700    299.85298   -962.13779     280351.3   -75076.851    7613.4291    -82690.28    1582.7005 
   28750    306.13667   -845.11905    280014.23   -75111.622    7772.9755   -82884.598    1583.2423 
   28800    300.63607   -943.45524    279855.79   -75196.377    7633.3122   -82829.689    1586.7667 
   28850    296.95419   -942.99396    279980.87    -75202.24    7539.8271   -82742.067    1590.4827 
   28900    301.07576   -1128.4229    280168.58   -75208.006    7644.4761   -82852.482    1596.3497 
   28950    300.15681   -1024.2334    280242.45    -75222.85    7621.1436   -82843.993    1601.3623 
   29000    295.20497   -1117.3069     280360.9   -75250.305    7495.4135   -82745.718    1602.8967 
   29050    292.31132   -1277.6382    280248.01   -75258.538    7421.9423   -82680.481    1606.8651 
   29100    302.70351   -873.77474    279751.02    -75258.42    7685.8057   -82944.226    1606.6412 
   29150    300.98174   -943.14636    279470.19   -75275.807    7642.0889   -82917.896    1606.7842 
   29200    301.61171   -966.00367     279411.8   -75270.996    7658.0843   -82929.081    1609.6968 
   29250    300.60803     -1032.76    279687.14   -75222.877    7632.6003   -82855.477    1611.4937 
   29300    296.63781     -1074.08    280115.36   -75260.489    7531.7943   -82792.283    1614.6966 
   29350    296.96597   -1208.3029     280274.8   -75286.781    7540.1264   -82826.908    1617.2003 
   29400    292.92115    -979.2321    280102.17   -75304.711    7437.4261   -82742.137    1618.7142 
   29450    291.68352   -765.23995    279908.55   -75311.997     7406.002   -82717.999    1620.3473 
   29500    296.55556   -1056.4869    279807.27   -75323.914    7529.7058   -82853.619     1622.716 
   29550    299.79636   -1153.9396     279760.5   -75279.723    7611.9916   -82891.714    1625.1455 
   29600    299.08599   -956.78775    279763.57   -75260.192    7593.9549   -82854.147    1627.5267 
   29650    301.48338   -1266.5361     280100.1   -75234.762    7654.8259   -82889.588    1631.2192 
   29700    302.43004   -1027.2939    279946.18   -75276.811     7678.862   -82955.673     1633.081 
   29750    299.01776   -914.73565    279751.15    -75258.74    7592.2225   -82850.962    1634.5501 
   29800     296.2926   -872.76086    279777.23   -75231.027    7523.0291   -82754.056    1636.9523 
   29850    301.20706    -1091.635    279844.88   -75230.466    7647.8098   -82878.276    1641.5313 
   29900    295.74315   -818.01561     279910.6   -75186.138    7509.0783   -82695.216    1642.7174 
   29950    296.91638   -918.78542    279946.57   -75170.624    7538.8673   -82709.491    1646.4577 
   30000    295.12886   -783.21264    279984.22   -75203.722    7493.4811   -82697.203    1650.5912 
   30050    295.25094   -1047.3492    280179.07   -75227.608    7496.5808   -82724.189    1654.7024 
   30100    302.16441   -1106.3611    280093.92   -75183.108    7672.1175   -82855.226    1654.6065 
   30150    297.83223   -1174.5837    279768.52   -75182.294    7562.1211   -82744.415    1653.9426 
   30200     301.2776   -894.49938    279383.87   -75188.363     7649.601   -82837.964    1657.6267 
   30250    302.31871   -838.61664    279311.22   -75198.571    7676.0353   -82874.606    1659.8603 
   30300    301.55375   -947.24616    279829.79   -75174.344    7656.6126   -82830.957    1664.4818 
   30350    299.33459   -1073.6605    280487.77   -75177.535     7600.267   -82777.802    1670.1436 
   30400    300.94971   -1088.6051    280593.76   -75257.875    7641.2756    -82899.15    1674.9485 
   30450    294.88388    -1049.912    279893.05   -75292.648     7487.261   -82779.909    1675.8717 
   30500    302.16485   -605.89988    278933.93   -75259.781    7672.1288    -82931.91    1674.9588 
   30550    298.49512   -698.09228     279095.1   -75248.442    7578.9523   -82827.394     1678.181 
   30600    298.74331   -1107.4884    280174.27     -75269.4     7585.254   -82854.654     1687.911 
   30650    293.04699   -966.80152    280798.01    -75286.25    7440.6213   -82726.872     1693.927 
   30700    294.86479   -1168.4978    280662.14   -75286.966    7486.7762   -82773.742    1695.8443 
   30750    295.32213   -1154.6407    279826.22   -75332.798    7498.3883   -82831.186     1692.423 
   30800     299.0108   -814.91706    279082.65   -75392.682    7592.0457   -82984.728    1691.7579 
   30850    299.11211   -693.64264    279072.98   -75416.406     7594.618   -83011.024    1691.7722 
   30900    296.22632   -1095.5348    279605.27    -75390.72    7521.3462   -82912.066    1698.1639 
   30950     299.5573   -1298.1792    280071.19   -75398.294    7605.9217   -83004.216    1701.3577 
   31000    295.44869   -904.53862    280061.43   -75403.189    7501.6017    -82904.79    1704.5238 
   31050    298.46577   -968.04925    279874.65   -75393.882    7578.2071   -82972.089    1707.2479 
   31100    297.52845   -1053.8972    279980.02    -75364.31     7554.408   -82918.718    1710.8411 
   31150    293.62011   -1026.7178     280036.3   -75329.829    7455.1732   -82785.002    1713.8763 
   31200    295.93229   -885.46301    279896.46   -75313.662    7513.8806   -82827.543    1717.3411 
   31250    301.53262   -1139.5744    279763.26   -75318.458    7656.0761   -82974.534     1718.114 
   31300    298.15178   -655.44943    279644.81   -75320.728    7570.2348   -82890.963    1719.4922 
   31350    296.93298   -1053.0229    279750.86   -75341.105    7539.2887   -82880.393    1724.4578 
   31400    295.06375   -849.89373    279758.89   -75364.449     7491.828   -82856.277    1729.6781 
   31450    297.45256    -981.1748    279584.99   -75355.742     7552.481   -82908.223    1732.6749 
   31500    296.10902   -792.05059    279454.81   -75352.006    7518.3679   -82870.374    1734.8385 
   31550    297.96406   -872.49403    279592.91   -75365.787    7565.4685   -82931.255    1738.8136 
   31600    297.96098   -789.09634    279829.38   -75374.956    7565.3902   -82940.346    1744.1254 
   31650    295.69895   -947.09182    279916.92   -75315.544    7507.9559     -82823.5    1748.8689 
   31700    300.94489   -808.26624    279763.95   -75339.455    7641.1532   -82980.608    1752.0981 
   31750    299.11801   -1065.4985    279755.12   -75330.679    7594.7678   -82925.447     1758.123 
   31800    296.29038   -983.99593    280043.74   -75331.803    7522.9728   -82854.775    1763.3575 
   31850    294.27515    -1084.206    280371.93   -75361.521     7471.805   -82833.326    1767.8554 
   31900    297.46551   -928.20988    279998.82   -75402.828      7552.81   -82955.638    1768.4424 
   31950    297.48028   -630.04707    279460.91   -75376.195    7553.1848    -82929.38    1768.1124 
   32000    296.41045   -1072.2632     279432.6   -75400.963    7526.0214   -82926.984    1770.7099 
   32050    296.39144   -1449.4178    279719.89   -75408.337    7525.5388   -82933.875    1773.1367 
   32100    297.75406   -942.19105    279709.43   -75391.131    7560.1364   -82951.267    1775.8347 
   32150    293.16723   -1129.2343    280008.85   -75424.338    7443.6742   -82868.012    1777.8637 
   32200    296.44691   -1066.9218    280151.88    -75386.25    7526.9472   -82913.197    1780.9122 
   32250    300.33203   -1239.2095    279683.59   -75373.995    7625.5924   -82999.587    1781.8762 
   32300    303.00761   -807.07682    279170.55   -75403.894    7693.5269   -83097.421    1782.6234 
   32350    294.66277   -1150.6415    279658.51   -75392.154    7481.6468   -82873.801    1786.3243 
   32400    296.91886   -1148.2302     280188.4    -75383.11    7538.9303    -82922.04    1791.2114 
   32450    292.40313    -1213.612    280283.53   -75415.998    7424.2735   -82840.272    1793.3135 
   32500    292.97392   -1005.9043    279959.31   -75390.576    7438.7661   -82829.342    1793.5964 
   32550     296.8431   -979.47681    279336.85   -75419.828    7537.0065   -82956.834    1792.5519 
   32600    300.02619   -777.75531    278866.92   -75370.935    7617.8269   -82988.762    1791.8785 
   32650    298.13351   -982.97403    279263.08   -75359.296    7569.7707   -82929.067    1796.0044 
   32700    299.90089   -1239.8655    279950.36   -75361.158    7614.6456   -82975.804    1800.7572 
   32750     298.9744   -1169.9756    280385.76   -75334.456    7591.1215   -82925.578    1805.0982 
   32800    286.46616   -1075.6856    280378.02   -75347.115    7273.5306   -82620.645    1807.2415 
   32850    294.52969   -699.92811    279842.56   -75346.664    7478.2679   -82824.932    1807.1772 
   32900      298.655   -990.88119    279090.75   -75383.431    7583.0116   -82966.443    1803.9682 
   32950    295.58365   -601.13948    278896.74   -75428.371    7505.0284   -82933.399    1804.1375 
   33000    297.01169   -726.89722    279412.04   -75374.829    7541.2872   -82916.117    1807.1523 
   33050    298.45555   -1005.4194    280187.68   -75358.139    7577.9475   -82936.087    1812.2824 
   33100    292.77612   -1120.0519    280428.84   -75364.471    7433.7438   -82798.215    1813.9566 
   33150    295.67519   -1234.4805    280199.48   -75379.365    7507.3527   -82886.718    1815.2363 
   33200    290.65542   -694.87531    279709.06   -75406.822    7379.8981    -82786.72    1815.3086 
   33250    293.74489    -712.7476    279602.77    -75420.22    7458.3413   -82878.562    1817.1666 
   33300    291.52359   -800.08218    279678.67   -75395.215    7401.9415   -82797.157    1820.8802 
   33350    295.53381   -1115.8805     279947.8   -75434.492     7503.763   -82938.255    1824.7804 
   33400    291.80086   -903.14916    280034.78   -75392.022    7408.9815   -82801.004    1828.2454 
   33450    296.15925   -1066.5972    279915.66   -75375.894    7519.6432   -82895.537    1829.6287 
   33500    295.01927   -989.28438    279532.66    -75405.38    7490.6985   -82896.079    1831.6671 
   33550    297.90296   -699.46135    279030.83   -75391.148     7563.917   -82955.065    1829.8419 
   33600    295.50064   -1017.0536    279323.07   -75405.385    7502.9207   -82908.305    1833.4035 
   33650    291.90105   -684.10145    279909.75   -75400.467    7411.5254   -82811.992    1839.8927 
   33700    294.85436    -1341.016     280524.2   -75358.421    7486.5114   -82844.932    1845.8464 
   33750    293.05035   -947.42586    280311.58   -75332.369    7440.7065   -82773.075    1845.0094 
   33800    297.30745   -889.64514    279720.88   -75347.514    7548.7966   -82896.311    1844.7616 
   33850    293.45784   -804.12525    279213.57   -75356.728    7451.0531   -82807.781    1843.2576 
   33900    296.43948     -817.266    279153.34   -75375.585    7526.7586   -82902.344    1847.1866 
   33950    291.83688   -674.32696    279719.81    -75379.57    7409.8959   -82789.465    1853.5005 
   34000    294.25511   -1156.2491    280621.85   -75322.033     7471.296   -82793.329    1859.8799 
   34050    297.22286   -1518.6236    280939.66   -75339.493     7546.649   -82886.142    1864.1874 
   34100    293.54684   -951.89176    280275.28   -75364.254    7453.3129   -82817.567    1863.9961 
   34150    296.85868    -769.2019    279348.97   -75384.321    7537.4022   -82921.723    1861.8467 
   34200    296.49995   -735.81602    278972.39   -75406.408    7528.2938   -82934.701     1863.942 
   34250    298.20118    -1010.399    279383.15   -75393.301    7571.4891    -82964.79    1868.6558 
   34300    301.89246   -936.00427    279956.55   -75342.728    7665.2126   -83007.941    1872.7797 
   34350    291.69475   -1156.7435    280272.34   -75356.619    7406.2873   -82762.906    1876.9386 
   34400    296.04725    -1086.712    279759.98   -75402.719    7516.7996   -82919.519    1874.4626 
   34450    294.53245   -651.01972    279110.64   -75371.229    7478.3379   -82849.567     1875.814 
   34500     300.5111   -807.16568    279113.75   -75417.704    7630.1392   -83047.843    1880.9899 
   34550    294.48555   -895.91467    279559.83   -75460.729    7477.1472   -82937.876    1885.1216 
   34600    294.39311   -1087.9616    279844.61   -75485.779       7474.8   -82960.579    1889.9807 
   34650    291.31094   -989.71128    279964.62   -75453.122     7396.542   -82849.664    1891.0226 
   34700    294.95661   -1100.2979    279973.53   -75421.767    7489.1076   -82910.875    1893.2588 
   34750    294.91831   -911.36569    279827.75   -75446.993    7488.1351   -82935.128    1894.8963 
   34800    297.27874   -956.22943    279490.67   -75420.774    7548.0678   -82968.842    1895.5632 
   34850    294.99629   -868.21253    279365.08   -75462.395    7490.1152    -82952.51    1897.9913 
   34900    291.98648   -813.34669    279709.05   -75459.027    7413.6944   -82872.721    1901.7971 
   34950    291.11924   -1056.5093    280223.53     -75396.5    7391.6748   -82788.175    1909.0354 
   35000    294.51102    -1454.872    280531.66   -75390.514    7477.7937   -82868.308    1914.6395 
   35050    294.82719   -925.17719    280125.78   -75383.711    7485.8215   -82869.532    1914.5955 
   35100     295.4192   -947.23345    279506.42   -75427.179     7500.853   -82928.032    1915.6359 
   35150    293.86609   -925.93504    279236.39   -75439.921    7461.4188    -82901.34    1916.2492 
   35200    293.37122   -1013.7862     279471.5   -75433.486    7448.8537    -82882.34     1918.843 
   35250    297.32165   -692.59969    279578.65   -75393.471    7549.1572   -82942.628    1919.8143 
   35300     291.7257   -940.03925    279931.06   -75355.954    7407.0731   -82763.027    1925.0203 
   35350    295.05564    -887.8286    280288.48   -75327.187    7491.6221   -82818.809    1926.3201 
   35400    293.34109    -1114.794    280604.49   -75356.245    7448.0887   -82804.334    1930.0448 
   35450    293.72301   -888.07226    280444.91   -75334.969    7457.7858   -82792.755    1929.5275 
   35500    300.33355   -992.13025    280033.75    -75314.06    7625.6309   -82939.691    1931.5966 
   35550    298.46137   -708.66909    279648.41   -75366.051    7578.0954   -82944.146    1932.3233 
   35600    302.73469   -788.88556    279697.69   -75286.513    7686.5973    -82973.11     1931.493 
   35650    300.51026   -1136.2307    280132.73   -75270.595    7630.1177   -82900.713    1935.1521 
   35700    299.20491   -818.63961    280318.27   -75320.597    7596.9742   -82917.572     1937.872 
   35750    301.06304   -997.56893    280274.38   -75318.248    7644.1532   -82962.401    1937.8196 
   35800    295.18281   -1224.6524    279947.45   -75335.569     7494.851    -82830.42    1938.0327 
   35850    301.06611   -705.99573    279327.58   -75319.523    7644.2312   -82963.754     1938.339 
   35900    298.24804   -853.02176    279529.89   -75312.192    7572.6789   -82884.871    1943.2511 
   35950     293.9662   -745.89053    280155.54   -75321.188    7463.9606   -82785.149    1948.5863 
   36000    300.07797   -1153.6866    280464.92   -75338.071    7619.1417   -82957.213    1952.5183 
   36050    295.08274   -975.96113    280021.67   -75375.872    7492.3101   -82868.182    1953.4926 
   36100    293.90049    -850.0137    279312.05   -75352.044    7462.2921   -82814.336    1953.1691 
   36150    298.39533   -711.46296    278994.04   -75351.162    7576.4185    -82927.58    1953.2424 
   36200    298.95276   -810.95101    279353.18   -75355.033     7590.572   -82945.605    1956.7423 
   36250     297.7165   -924.48125    280186.61   -75331.936    7559.1828   -82891.119     1963.372 
   36300    294.83798   -1243.7289    280641.39    -75365.82    7486.0956   -82851.916    1967.3274 
   36350    298.86511   -1159.1065    280235.03   -75296.854    7588.3466     -82885.2    1966.9797 
   36400    298.88631   -1069.3598    279318.61   -75367.941    7588.8847   -82956.825    1964.7362 
   36450     295.2762   -724.15304    278717.96   -75343.963    7497.2222   -82841.185    1964.5658 
   36500     296.8629   -754.06624    279102.48    -75338.75    7537.5093   -82876.259    1970.8887 
   36550    297.79665   -925.55771    279858.39    -75299.59    7561.2177   -82860.807    1978.0924 
   36600    303.55684   -1040.2975    280463.05   -75274.753    7707.4721   -82982.225    1985.3757 
   36650    299.92793    -1140.688    280454.94   -75295.863    7615.3322   -82911.195    1988.2329 
   36700    302.69317   -1025.9133    279943.08   -75292.005    7685.5429   -82977.548     1989.842 
   36750    296.86715   -877.01049    279622.14   -75318.742    7537.6173   -82856.359    1990.6245 
   36800    303.39698   -910.63817    279531.07   -75283.246    7703.4132    -82986.66     1992.676 
   36850    296.45096   -865.29209    279588.79     -75291.1    7527.0501    -82818.15    1997.2609 
   36900    296.69425   -1066.5557    279985.75   -75302.832    7533.2272    -82836.06    2002.6236 
   36950    297.15856    -998.4996    280155.17   -75342.789    7545.0163   -82887.805    2006.3079 
   37000    296.43808   -1061.6543    280162.27    -75362.27    7526.7229   -82888.993    2007.4119 
   37050    294.08315   -955.38289    279769.72   -75371.889    7466.9301   -82838.819    2010.1079 
   37100    297.30794   -1032.3057    279573.93   -75322.983    7548.8092   -82871.792    2014.7686 
   37150    295.60603   -791.47605    279689.89   -75337.556    7505.5967   -82843.153    2019.5399 
   37200     297.8916   -793.96088    279805.32   -75352.549    7563.6285   -82916.177    2022.1939 
   37250    294.95968    -1271.928     280161.2   -75338.635    7489.1856   -82827.821    2023.6222 
   37300    296.85159   -894.03756    280060.81    -75356.79    7537.2222   -82894.012    2026.4104 
   37350    297.92288   -939.39702    279947.56   -75355.031    7564.4228   -82919.454    2027.5493 
   37400    297.23642   -1100.3956    279975.05   -75340.113    7546.9932   -82887.107    2032.2892 
   37450    295.23555   -1020.3452    279994.91   -75337.155    7496.1901   -82833.346    2032.9708 
   37500    294.07624   -1074.0938    279953.25   -75337.563    7466.7546   -82804.318     2035.285 
   37550    297.96006   -1017.2898     279725.9   -75336.253    7565.3669    -82901.62    2035.7619 
   37600    298.28661   -960.46888    279422.75   -75355.012     7573.658    -82928.67    2038.1706 
   37650    293.24947   -693.92197    279317.38   -75350.142    7445.7625   -82795.905      2040.77 
[...]
   90850    295.09963   -1143.7632    280283.95   -75145.052     7492.739   -82637.791    4841.8333 
   90900    299.54163   -921.22604    280203.93   -75149.137    7605.5238    -82754.66    4844.7983 
   90950    300.06388   -951.66392    279665.43     -75194.4     7618.784   -82813.184    4839.5853 
   91000    302.58322   -870.05736       279249   -75178.441    7682.7513   -82861.192    4835.1066 
   91050    296.06639   -701.64709    279384.46   -75216.687    7517.2856   -82733.973    4842.0654 
   91100    303.36275    -1046.175    280030.36   -75159.874    7702.5442   -82862.419    4854.7576 
   91150    296.95374   -1100.4208    280711.11   -75159.762    7539.8159   -82699.578    4863.9137 
   91200     301.6888   -1325.3705    280863.07   -75187.916    7660.0415   -82847.958    4867.2574 
   91250    297.38434   -1125.5317    280361.45   -75199.156    7550.7491   -82749.905    4860.5475 
   91300     299.7179   -1199.0505    279761.33   -75201.948    7609.9992   -82811.947    4852.2411 
   91350    300.72856    -896.3828    279343.18   -75215.034    7635.6606   -82850.694    4851.9487 
   91400    304.80349   -924.96991    279601.22   -75249.816    7739.1251   -82988.941    4856.5733 
   91450    304.77073   -1194.3348     280088.9   -75265.689    7738.2933   -83003.982    4865.5188 
   91500    295.67913    -1259.865    280354.62   -75252.179    7507.4527   -82759.632    4872.0178 
   91550    300.05442   -1320.7834    280167.95   -75246.438    7618.5436   -82864.982    4874.7318 
   91600    300.16088   -553.39627    279453.72   -75284.841    7621.2469   -82906.088    4865.8482 
   91650    297.96544   -950.46315    279378.51   -75346.748    7565.5033   -82912.251    4866.1918 
   91700    295.04184    -1124.467    279790.58   -75354.931    7491.2716   -82846.203    4872.0587 
   91750    303.16118   -1174.3933    280169.07   -75309.784    7697.4261    -83007.21    4883.8478 
   91800    297.87645   -1026.4346    280393.52   -75308.286    7563.2439   -82871.529    4890.7498 
   91850    304.28387   -859.43825    280228.65    -75347.23    7725.9318   -83073.161    4892.5213 
   91900    299.90551   -860.78909    279760.46   -75338.426    7614.7628   -82953.189    4888.4322 
   91950    297.39034   -737.06613    279354.35   -75397.714    7550.9012   -82948.615    4888.9408 
   92000    294.15292   -1061.5122    279416.05   -75356.503    7468.7014   -82825.204    4893.8024 
   92050    293.64766   -1126.5644    279668.14   -75400.204    7455.8728   -82856.077    4901.1115 
   92100    299.33889   -946.20633    279858.76   -75335.268    7600.3761   -82935.644    4907.1954 
   92150    291.55432   -923.94935    280055.07   -75322.231    7402.7216   -82724.952    4913.4718 
   92200    296.44744   -1083.6752    280072.58   -75315.871    7526.9605   -82842.831     4916.395 
   92250    297.09251   -957.63769    279869.77   -75291.296    7543.3392   -82834.635    4912.4225 
   92300     296.2405   -1100.1753    279953.63   -75299.814    7521.7063    -82821.52    4915.3219 
   92350     298.7151   -983.90422    279740.95     -75322.9    7584.5378   -82907.438     4915.442 
   92400    298.30482   -901.61926     279754.3   -75318.715    7574.1205   -82892.836    4915.8397 
   92450    298.06296   -1120.3039    279987.16   -75310.909    7567.9795   -82878.889    4919.2013 
   92500    300.23239   -1162.4966    280101.77   -75327.307    7623.0626    -82950.37    4921.8624 
   92550    294.81147   -814.09322    279809.57   -75335.851    7485.4225   -82821.273    4923.8133 
   92600    298.31751   -1113.1106     279606.2   -75373.868    7574.4426   -82948.311    4922.3303 
   92650    295.46245   -995.54356    279601.97   -75358.602     7501.951   -82860.553    4925.8847 
   92700    294.43428    -695.3618    279652.53   -75348.049    7475.8454   -82823.894    4931.7465 
   92750    300.37466   -1035.3483    279928.16   -75406.644    7626.6749   -83033.319     4935.599 
   92800    297.11476   -1306.7191    280171.57   -75389.717    7543.9042   -82933.621    4941.1013 
   92850    294.64204   -900.48657     280095.9   -75371.869    7481.1204    -82852.99    4940.4513 
   92900    298.66707   -953.09928     280035.7   -75386.838    7583.3182   -82970.156    4941.7919 
   92950    292.12957   -839.52075    279769.82   -75375.133    7417.3275    -82792.46    4939.0945 
   93000    296.96042   -1098.5445    279438.17   -75343.057    7539.9853   -82883.042    4936.0697 
   93050     296.0013   -667.83551    279420.71   -75317.173    7515.6328   -82832.806    4936.2002 
   93100    300.55229   -884.28287     279654.9   -75279.303     7631.185   -82910.488    4938.3972 
   93150     297.2848   -864.18554     279942.8   -75288.121    7548.2217   -82836.343    4945.0496 
   93200     301.5827   -890.97207    280045.98    -75275.52    7657.3477   -82932.868     4950.618 
   93250    298.02832   -931.70819    279942.86   -75248.805    7567.0999   -82815.905     4952.442 
   93300    295.97782   -899.72909    279922.49   -75274.422    7515.0366   -82789.459    4954.3181 
   93350    294.68782   -1296.0532    279917.61    -75313.58    7482.2829   -82795.862    4959.4011 
   93400    293.27721   -993.33076    279736.37   -75326.098    7446.4668   -82772.565    4959.0447 
   93450    299.34241   -1043.1708    279384.52   -75331.605    7600.4655   -82932.071    4958.5593 
   93500    297.34573   -923.28683    279258.67    -75324.28    7549.7686   -82874.048    4965.0231 
   93550    295.84545   -783.50078    279445.02   -75312.691    7511.6758   -82824.366    4971.9921 
   93600    294.75573   -945.79526     280032.2   -75273.354    7484.0071   -82757.361    4981.3624 
   93650    297.58307   -1219.6591    280577.12   -75275.013    7555.7949   -82830.808    4988.7109 
   93700    294.43794   -1197.6442    280482.99   -75260.174    7475.9383   -82736.112    4985.9753 
   93750    302.54363   -1022.3205    279731.44   -75257.909    7681.7462   -82939.655    4979.7639 
   93800    299.91159   -915.46608    279411.68   -75258.739    7614.9172   -82873.657    4977.4864 
   93850    298.17063   -873.22806    279715.99   -75253.032    7570.7134   -82823.745    4985.9502 
   93900    301.91743   -1197.2281    280358.42   -75235.175    7665.8467   -82901.022     4996.025 
   93950    300.35104   -1214.4032    280535.53   -75228.553     7626.075   -82854.628    4998.4557 
   94000    301.47075   -1275.6465    280311.19   -75222.003    7654.5053   -82876.509    4997.5311 
   94050     297.8258   -927.48392    279730.82   -75191.126    7561.9579   -82753.084    4992.9062 
   94100    300.80383    -978.6547    279396.47   -75219.676    7637.5716   -82857.247    4991.8484 
   94150     301.4834   -704.87559    279296.75   -75211.814    7654.8263    -82866.64    4990.7896 
   94200    298.48292   -903.39706    279619.56   -75202.169    7578.6425   -82780.812    4995.4172 
   94250    304.32542   -948.49117    280145.23   -75172.103    7726.9868   -82899.089    5007.1085 
   94300    299.58223   -1261.7641    280329.08   -75143.954    7606.5545   -82750.509    5012.4325 
   94350    300.12473   -886.43563    279865.15   -75168.591    7620.3291    -82788.92    5007.6689 
   94400    301.78793   -1128.6681    279695.72   -75198.573    7662.5584   -82861.132    5007.4191 
   94450    300.78238   -1018.3311    279867.31   -75197.088    7637.0271   -82834.115    5007.6468 
   94500    307.16357   -1272.2878    280157.55   -75171.911     7799.049    -82970.96    5012.1403 
   94550    297.50962   -995.19357    280234.08   -75212.079    7553.9298   -82766.008    5018.5245 
   94600    300.65707   -967.25868    279825.57   -75202.003    7633.8454   -82835.849    5013.1441 
   94650    305.96857   -888.33724    279373.84   -75177.887    7768.7072   -82946.594    5012.1799 
   94700    303.45853   -1199.5614    279576.67   -75129.262    7704.9759   -82834.238    5017.5582 
   94750    296.54298   -980.66641    279965.05    -75169.65    7529.3863   -82699.036     5022.377 
   94800    301.59076   -1175.3394     280305.3   -75177.025    7657.5523   -82834.577     5027.334 
   94850    299.37157   -1515.0868     280503.6   -75188.067    7601.2058   -82789.272    5030.9796 
   94900    298.93623    -835.5974    280159.97   -75190.831    7590.1523   -82780.983    5034.1207 
   94950    304.20337   -1044.5156    279904.72   -75236.078    7723.8877   -82959.966    5037.6234 
   95000    292.56788   -816.05049    279737.69   -75247.685    7428.4565   -82676.142    5039.0923 
   95050    303.00512   -910.52464    279487.81   -75218.134    7693.4636   -82911.597    5037.7888 
   95100    302.80886   -1017.7565    279509.16   -75240.579    7688.4805   -82929.059    5038.7513 
   95150    299.16545   -1105.5365     279664.9   -75253.766    7595.9723   -82849.739    5044.2658 
   95200    295.57797   -1069.1575    279786.99   -75254.962    7504.8842   -82759.846    5049.2073 
   95250    304.51346   -1147.1673    279842.49   -75243.408    7731.7611   -82975.169    5052.4888 
   95300    294.88909   -1133.8505    279910.05   -75286.485    7487.3933   -82773.879    5057.3976 
   95350    297.85067   -888.16222    279981.86   -75307.541    7562.5895   -82870.131    5060.5744 
   95400    296.22924   -1233.1783    280200.08    -75251.71    7521.4204    -82773.13    5064.8415 
   95450    299.41726   -791.77945    279878.29   -75275.278    7602.3659   -82877.644    5062.5506 
   95500    299.77071   -835.08042    279403.78   -75275.223    7611.3402   -82886.563    5058.8584 
   95550    301.89309   -1105.9515    279392.94   -75289.076    7665.2287   -82954.305    5060.2916 
   95600     297.2266   -1017.2321    279575.15   -75283.057     7546.744   -82829.801     5065.695 
   95650    298.12781   -903.51391    279788.74   -75317.364    7569.6261    -82886.99    5073.3481 
   95700     298.8574    -893.6027    280005.08   -75297.535    7588.1509   -82885.686    5079.9348 
   95750    299.89713   -1011.4502    280165.25   -75290.396      7614.55   -82904.946    5088.1152 
   95800    296.72863   -859.58548    280094.01   -75318.939    7534.1001   -82853.039    5091.8595 
   95850    295.98028    -1112.406    279966.27   -75294.265    7515.0992   -82809.365    5093.2178 
   95900    297.26787    -903.5739    279654.95   -75302.831    7547.7918   -82850.622    5089.8201 
   95950    300.24299   -964.90215    279254.41   -75303.983    7623.3316   -82927.314    5085.7768 
   96000     298.3143   -990.30193    279363.21   -75319.955    7574.3612   -82894.317    5090.2566 
   96050    299.47166   -1115.6984     279972.6   -75289.566    7603.7473   -82893.314    5099.0807 
   96100    301.11158     -1425.47    280603.72   -75206.945    7645.3855    -82852.33    5110.0708 
   96150    295.64538   -1189.3104    280805.59   -75224.253    7506.5959   -82730.849    5115.1292 
   96200    296.62694   -1143.3588    280356.08   -75181.625    7531.5181   -82713.143    5113.0532 
   96250    298.90643   -806.35264    279756.48   -75183.056    7589.3957   -82772.452     5111.268 
   96300    298.86712   -794.84153    279486.28    -75187.78    7588.3976   -82776.178     5110.458 
   96350    301.52966    -1048.346    279575.14   -75204.031    7656.0008   -82860.032    5118.1146 
   96400    301.26701   -1127.3771    279775.95   -75238.736    7649.3321   -82888.068    5123.6888 
   96450    302.84033   -999.77095    280066.51    -75205.88    7689.2795   -82895.159    5127.4502 
   96500    301.93388   -1140.3088    280331.51   -75202.141    7666.2642   -82868.406    5134.3841 
   96550    295.25761   -991.34055    280090.26   -75189.541    7496.7501   -82686.291    5135.3358 
   96600    297.62827   -892.97773    279468.62   -75194.833    7556.9424   -82751.776    5127.5788 
   96650    297.46935    -839.4754    279175.65   -75238.522    7552.9076    -82791.43    5127.4034 
   96700    299.76056   -1050.5786    279662.71   -75236.399    7611.0824   -82847.481    5137.6827 
   96750    302.21198    -1000.624    280128.81   -75217.677    7673.3253   -82891.002    5150.7484 
   96800    296.44007   -1114.9588    280495.36   -75210.036    7526.7733   -82736.809    5157.7626 
   96850    299.19258    -1192.644    280444.33    -75254.94    7596.6611   -82851.601     5156.958 
   96900     301.6049   -1005.9878    279814.02   -75216.236    7657.9112   -82874.148    5148.6342 
   96950    298.31447    -797.0723    279308.29   -75234.111    7574.3655   -82808.477    5144.3586 
   97000     298.4502   -848.26702    279317.43   -75252.136    7577.8117   -82829.948    5148.1201 
   97050    298.54439   -1177.3634    279637.29   -75235.973    7580.2034   -82816.176    5155.3288 
   97100    294.22339   -1018.7769    280115.35   -75265.406    7470.4907   -82735.896    5165.5881 
   97150    299.39002   -1179.8751    280428.56    -75261.04    7601.6742   -82862.714    5171.5154 
   97200    300.62069   -1180.1349    280343.43   -75254.239    7632.9217    -82887.16    5172.9894 
   97250    295.85738   -839.52405    279819.88   -75263.655    7511.9786   -82775.634    5168.9503 
   97300    301.35955    -823.9057    279521.07   -75304.937    7651.6816   -82956.619    5169.5619 
   97350    301.88649   -1087.2478    279961.78   -75324.926    7665.0609   -82989.987    5177.2358 
   97400    294.68262   -975.00972    280380.83    -75335.45    7482.1509   -82817.601    5186.3977 
   97450     296.2692     -1085.62    280508.17   -75356.286    7522.4351   -82878.721    5192.2453 
   97500    298.41608   -1368.7601    280099.59   -75362.625    7576.9455   -82939.571    5192.9305 
   97550    299.22646   -748.03348    279504.13    -75332.26    7597.5214   -82929.782    5187.6623 
   97600      297.799   -949.73558    279251.18   -75311.833    7561.2774    -82873.11    5185.9285 
   97650    294.43236   -785.93061    279411.47   -75290.237    7475.7967   -82766.033    5190.3651 
   97700    296.47557   -1014.7349     280044.5   -75279.147    7527.6749   -82806.822    5202.2648 
   97750    299.59688   -1041.0273    280602.72   -75272.195    7606.9266   -82879.122    5215.4645 
   97800    298.25966   -1415.0113    280404.33   -75309.892    7572.9738   -82882.866    5220.0212 
   97850    297.17426   -814.83526     279669.1   -75352.966     7545.415   -82898.381    5215.1899 
   97900    294.71475   -1045.5744    279249.83   -75395.695    7482.9666   -82878.661    5216.6259 
   97950    300.17555   -861.62239    279198.86   -75354.541    7621.6193   -82976.161    5220.6493 
   98000    295.45972   -1163.7535     279667.6   -75371.126    7501.8819   -82873.008    5233.0994 
   98050    298.37489   -1262.8084    280020.68   -75363.773    7575.8996   -82939.673      5242.53 
   98100    298.05415   -896.34219     279870.9   -75379.746    7567.7558   -82947.502    5244.7928 
   98150    299.04455   -1076.9512    279704.73   -75396.557    7592.9026    -82989.46    5245.2863 
   98200      298.216   -918.67181    279578.06   -75419.352    7571.8653   -82991.217    5248.2787 
   98250    294.90081   -745.44493    279484.73   -75408.397    7487.6907   -82896.087    5251.9187 
   98300    295.83329   -781.43948     279495.6    -75453.95    7511.3669   -82965.317    5251.9274 
   98350    296.55107   -1102.9812    279641.85     -75459.8    7529.5918   -82989.392    5255.0151 
   98400    291.82702   -624.53404    279578.31   -75417.889    7409.6457   -82827.534    5258.0578 
   98450    295.28975   -876.76874    279658.56   -75385.118    7497.5662   -82882.684    5260.4509 
   98500    300.62507   -1027.8315    279896.32   -75402.505    7633.0328   -83035.538    5267.1259 
   98550    293.70551   -1290.9272    280108.92   -75421.069    7457.3414    -82878.41    5271.0466 
   98600    290.03103   -742.58104    279994.81   -75429.411    7364.0446   -82793.456    5269.8811 
   98650    295.10011   -982.10066    279650.73   -75430.899    7492.7511    -82923.65    5266.7949 
   98700    298.54826   -995.40681    279181.04   -75418.411    7580.3015   -82998.713    5263.4444 
   98750    296.44982   -843.51847    278803.43   -75411.652    7527.0209   -82938.673    5263.6526 
   98800    294.30915   -610.86299    278896.29   -75408.694    7472.6682   -82881.362    5269.6832 
   98850    300.00524   -1038.7337    279733.29   -75386.403    7617.2949   -83003.698    5281.4582 
   98900    295.32572   -1235.9893    280549.26   -75375.711    7498.4796    -82874.19    5294.3746 
   98950    291.41791   -1471.1791    280560.68   -75353.368    7399.2581   -82752.626    5292.9942 
   99000    296.72109   -1052.0987    279856.33   -75339.666    7533.9087   -82873.574    5287.4915 
   99050    300.18245   -711.61961    279132.59   -75363.198    7621.7944   -82984.993    5280.2802 
   99100    298.61827   -1117.1383    279254.28   -75365.313    7582.0792   -82947.392    5281.5178 
   99150    295.97122   -913.61798    279826.35   -75364.595    7514.8692   -82879.464    5288.7228 
   99200    295.88997   -1097.6721    280395.67   -75372.212    7512.8062   -82885.018    5296.3607 
   99250    293.87536   -1269.4387    280506.66   -75381.646    7461.6541   -82843.301    5301.2416 
   99300    295.43497   -1065.9143    279924.03   -75428.398    7501.2535   -82929.652    5299.0969 
   99350    291.66727   -1046.4822     279226.8   -75448.278    7405.5894   -82853.867      5291.78 
   99400    299.06812   -998.32967    279080.57   -75429.177    7593.5012   -83022.678    5293.7113 
   99450    300.11464   -1227.7705    279623.14   -75423.918    7620.0727   -83043.991    5302.7845 
   99500    294.58103   -974.86638     280387.7   -75433.647    7479.5714   -82913.219    5312.8125 
   99550    298.86575   -1310.2455    280719.63   -75375.764    7588.3627   -82964.126    5314.1577 
   99600    295.72995   -1247.6799    279990.27   -75391.715    7508.7431   -82900.458    5305.3369 
   99650    297.04833   -1037.5544    279017.41   -75402.226    7542.2175   -82944.443    5295.2214 
   99700    298.28835   -984.16712    278621.35   -75402.311    7573.7023   -82976.014    5291.8611 
   99750    294.59181   -625.92212    278944.88   -75413.691     7479.845   -82893.537    5301.8788 
   99800    296.80168   -1184.9296    279647.67   -75399.443    7535.9549   -82935.398    5316.1796 
   99850    298.23365   -1293.1722    280078.86   -75382.836    7572.3133   -82955.149    5323.9534 
   99900     296.8485   -857.09941    280086.01    -75403.66    7537.1436   -82940.804    5328.5867 
   99950    301.83436   -1113.9941     279680.9   -75404.392    7663.7375   -83068.129    5325.7607 
  100000    289.32522   -739.83622     279128.9   -75375.864    7346.1234   -82721.987    5321.3706 
Loop time of 241.861 on 6 procs for 100000 steps with 8519 atoms

Performance: 357.229 ns/day, 0.067 hours/ns, 413.460 timesteps/s
99.5% CPU use with 6 MPI tasks x no OpenMP threads

MPI task timing breakdown:
Section |  min time  |  avg time  |  max time  |%varavg| %total
---------------------------------------------------------------
Pair    | 73.078     | 125.83     | 188.71     | 422.3 | 52.02
Neigh   | 32.708     | 36.72      | 39.884     |  48.4 | 15.18
Comm    | 7.0269     | 73.095     | 129.89     | 586.7 | 30.22
Output  | 0.13303    | 0.13512    | 0.14311    |   1.0 |  0.06
Modify  | 4.9936     | 5.0484     | 5.1338     |   2.0 |  2.09
Other   |            | 1.035      |            |       |  0.43

Nlocal:        1419.83 ave        1444 max        1393 min
Histogram: 1 0 1 1 0 0 0 1 1 1
Nghost:        1982.50 ave        2026 max        1942 min
Histogram: 2 0 0 0 1 1 0 0 1 1
Neighs:        0.00000 ave           0 max           0 min
Histogram: 6 0 0 0 0 0 0 0 0 0
FullNghs:      39246.0 ave       39794 max       38479 min
Histogram: 2 0 0 0 0 1 0 0 1 2

Total # of neighbors = 235476
Ave neighs/atom = 27.641272
Neighbor list builds = 20935
Dangerous builds = 0

# Create data file for import to other simulations
#
write_data data.${NAME}
write_data data.coexist_297K_-1000atm_ML
System init for write_data ...

Total wall time: 0:04:01
