
# Set production fixes - Nose/Hoover
#
fix                 2 all nph iso ${PRES} ${PRES} ${PCOUPL}
fix                 2 all nph iso -1000 ${PRES} ${PCOUPL}
fix                 2 all nph iso -1000 -1000 ${PCOUPL}
fix                 2 all nph iso -1000 -1000 10000.0
fix                 3 all temp/csvr ${TEMP} ${TEMP} ${TCOUPL} 837492
fix                 3 all temp/csvr 297 ${TEMP} ${TCOUPL} 837492
fix                 3 all temp/csvr 297 297 ${TCOUPL} 837492
fix                 3 all temp/csvr 297 297 5000.0 837492

# Define Order parameter
#
compute             2 all orientorder/atom nnn NULL cutoff 3.5
thermo              200
thermo_style        custom step temp press vol etotal ke pe c_1[4]

# Run 1ns simulation
dump		    1 all custom 400 prod.${NAME}.dump id type x y z vx vy vz c_2[*]
dump		    1 all custom 400 prod.ice_297K_-1000atm_ML.dump id type x y z vx vy vz c_2[*]
run                 200000
Neighbor list info ...
  update every 1 steps, delay 0 steps, check yes
  max neighbors/atom: 2000, page size: 100000
  master list distance cutoff = 6.0032907
  ghost atom cutoff = 6.0032907
  binsize = 3.0016454, bins = 20 18 18
  2 neighbor lists, perpetual/occasional/extra = 1 1 0
  (1) pair sw, perpetual
      attributes: full, newton on
      pair build: full/bin/atomonly
      stencil: full/bin/3d
      bin: standard
  (2) compute orientorder/atom, occasional, copy from (1)
      attributes: full, newton on
      pair build: copy
      stencil: none
      bin: none
Per MPI rank memory allocation (min/avg/max) = 5.821 | 5.821 | 5.821 Mbytes
Step Temp Press Volume TotEng KinEng PotEng c_1[4] 
       0    295.65222   -980.80086    149933.92   -47348.578    4060.0713   -51408.649   0.16429253 
     200    297.97596   -976.02013    149941.52   -47338.627    4091.9823   -51430.609   0.15998287 
     400    294.43136   -985.27398    149917.32    -47331.63    4043.3058   -51374.935    0.1614715 
     600    297.58893   -1002.4897    149910.37   -47371.098    4086.6673   -51457.765   0.16735017 
     800    295.89605   -1024.4249    149945.56    -47386.18    4063.4197   -51449.599   0.16152602 
    1000    291.22243   -1021.6714    149939.68   -47399.055    3999.2388   -51398.294   0.15459494 
    1200     299.4344   -946.11709    149887.24   -47426.264    4112.0104   -51538.274    0.1584203 
    1400    300.34689   -968.22734    149885.84   -47417.095    4124.5413   -51541.637   0.16574161 
    1600    287.31103   -1060.9621    149935.58   -47418.771    3945.5251   -51364.296   0.17080367 
    1800    292.08639   -1049.4613    149951.23   -47425.008    4011.1032   -51436.111   0.16644072 
    2000    298.04565    -940.8289    149890.86   -47379.427    4092.9392   -51472.367   0.15862493 
    2200    294.02815   -957.40462    149913.11   -47346.573    4037.7686   -51384.342   0.16045936 
    2400    293.30509   -1057.7652    150034.65   -47364.322    4027.8392   -51392.161   0.16539769 
    2600    294.59375   -1041.5505    149997.18   -47409.569    4045.5358   -51455.104   0.16246093 
    2800    292.73251   -946.15168    149798.08   -47429.274    4019.9761    -51449.25   0.16151436 
    3000    290.40603   -942.86575    149832.15   -47441.713    3988.0275   -51429.741   0.15596269 
    3200    294.07706   -1135.9757    150061.38   -47382.618    4038.4403   -51421.058   0.16330031 
    3400    294.82357   -1069.2809    149991.52   -47424.259    4048.6918   -51472.951   0.16238918 
    3600     296.5937   -857.00547    149720.81    -47458.51    4073.0002    -51531.51   0.16050185 
    3800    290.85392   -927.69935    149846.64   -47380.414    3994.1781   -51374.592   0.16654351 
    4000    295.98639   -1198.7507    150197.08   -47369.731    4064.6603   -51434.391   0.16950063 
    4200    298.02581   -1026.6423    149993.62   -47389.463    4092.6668    -51482.13   0.15704714 
    4400    292.51856    -763.5064    149621.12   -47380.826     4017.038   -51397.864   0.15462217 
    4600    294.84661   -986.65538    149924.78   -47357.169    4049.0082   -51406.177   0.16252305 
    4800    298.34081   -1241.9872    150295.26   -47340.811    4096.9926   -51437.803   0.16446508 
    5000    293.05139   -984.78125    149921.85   -47324.526    4024.3552   -51348.881    0.1607216 
    5200    298.11877   -736.32003    149631.19    -47331.42    4093.9434   -51425.364   0.15998715 
    5400    295.63074   -1076.0514    150065.75   -47285.526    4059.7763   -51345.303   0.16847186 
    5600    299.55627   -1241.3719    150302.25    -47264.05     4113.684   -51377.734   0.16599761 
    5800    300.03573   -911.87793    149800.23   -47260.811    4120.2682   -51381.079   0.16973141 
    6000    302.94291    -766.7664    149607.63   -47250.638    4160.1913   -51410.829   0.17271011 
    6200    297.27552   -1100.0806    150136.11    -47234.91    4082.3633   -51317.273   0.16941003 
    6400    300.80374   -1242.1592    150253.67   -47200.252     4130.815   -51331.067   0.16718773 
    6600    299.92507    -855.0103    149750.38   -47247.184    4118.7485   -51365.932    0.1604281 
    6800    305.81632   -769.86706    149708.23   -47290.295    4199.6508   -51489.945   0.15273147 
    7000    299.45949   -1150.8949     150200.6   -47286.507     4112.355   -51398.862   0.16558461 
    7200    297.68782    -1122.621    150209.64   -47232.355    4088.0254   -51320.381   0.17989328 
    7400    298.23783    -844.9883    149757.72    -47222.63    4095.5784   -51318.209   0.16546718 
    7600    301.10327   -877.82367     149840.1   -47256.756    4134.9283   -51391.684   0.15987439 
    7800    306.21935   -1188.9999    150297.33   -47278.834    4205.1854   -51484.019   0.16598892 
    8000    302.24243   -1089.1133    150153.91    -47245.89    4150.5719   -51396.462   0.17787058 
    8200    302.07973   -812.43297    149714.47   -47288.547    4148.3377   -51436.885   0.16570967 
    8400    298.69559    -890.6811    149855.48   -47312.482    4101.8646   -51414.346   0.15429337 
    8600    297.65497   -1209.3797    150250.75   -47264.769    4087.5743   -51352.343    0.1693989 
    8800    302.27552   -1096.9414    150132.27   -47196.369    4151.0263   -51347.395   0.16658961 
    9000    301.44244   -790.74035    149777.21   -47179.542     4139.586   -51319.128   0.16613382 
    9200    304.36113    -926.2427    149965.73   -47163.514    4179.6672   -51343.181   0.17107799 
    9400    299.30196   -1217.2493    150316.76    -47208.87    4110.1916   -51319.061   0.17380397 
    9600    298.74688   -1011.8793    150025.66   -47203.147     4102.569   -51305.716   0.16761018 
    9800    303.20002   -755.05497    149682.29   -47226.172    4163.7222   -51389.894    0.1625681 
   10000    308.06595   -1016.5855    150032.91   -47218.598     4230.544   -51449.142   0.16815696 
   10200    306.85241   -1229.9235    150335.81   -47204.635     4213.879   -51418.514    0.1663297 
   10400    302.45034    -908.0308    149919.64   -47197.872     4153.427   -51351.299   0.16420584 
   10600    302.47366   -805.40342    149702.13   -47182.856    4153.7474   -51336.603   0.16890733 
   10800    300.79593   -1085.8775    150139.74    -47208.59    4130.7078   -51339.297   0.16428223 
   11000    299.99649   -1243.9956    150321.38   -47247.688    4119.7294   -51367.418   0.15873757 
   11200    298.24036   -868.55967     149794.6   -47272.891    4095.6131   -51368.504    0.1661235 
   11400    297.44087   -736.22483    149622.56   -47303.631    4084.6341   -51388.265   0.15996829 
   11600    300.80165   -1176.0933    150276.08   -47265.771    4130.7862   -51396.557   0.16385926 
   11800    296.20536   -1300.3393    150392.79   -47337.927    4067.6674   -51405.594   0.16959769 
   12000    292.88282   -750.28774    149584.34   -47350.095    4022.0402   -51372.135   0.15554435 
   12200    297.41111   -703.26829    149535.75   -47329.563    4084.2254   -51413.789   0.15613757 
   12400    298.23498   -1317.9537    150436.17   -47283.614    4095.5393   -51379.153   0.16307074 
   12600    299.45712   -1241.9326     150362.7   -47295.923    4112.3224   -51408.245   0.16685385 
   12800    294.54169   -627.77803    149404.21   -47319.285    4044.8208   -51364.106   0.15571896 
   13000    297.95191   -702.47279    149620.84   -47298.924     4091.652   -51390.576   0.15041722 
   13200    301.57022   -1466.3005    150602.22   -47254.986    4141.3407   -51396.326   0.17849829 
   13400    296.72678   -1204.9879    150264.84   -47279.191    4074.8278   -51354.019   0.16894774 
   13600    301.48869   -580.54539    149352.81   -47282.946    4140.2211   -51423.167   0.15816436 
   13800    301.57543   -803.31932    149729.19   -47273.446    4141.4123   -51414.858   0.16028141 
   14000    298.66406   -1395.4052    150517.26   -47281.411    4101.4317   -51382.843   0.16907016 
   14200    297.69605   -1114.6811    150144.42   -47314.044    4088.1384   -51402.183   0.15761762 
   14400    298.47207     -658.713    149530.08   -47348.517    4098.7951   -51447.312   0.15295518 
   14600    298.34457    -905.1813    149879.58   -47341.177    4097.0442   -51438.221    0.1557043 
   14800    296.43974   -1283.7621     150325.2   -47315.546     4070.886   -51386.432   0.16430252 
   15000    297.77236   -1022.1417     150006.6   -47374.398    4089.1862   -51463.584   0.15257056 
   15200    294.58714    -778.4322    149661.76   -47434.466    4045.4449   -51479.911   0.15638624 
   15400    294.03932   -984.04915     149941.9   -47448.231     4037.922   -51486.153   0.15817153 
   15600    288.70672    -1148.343    150181.33   -47480.377    3964.6916   -51445.069   0.15643758 
   15800    291.52961   -979.52328    149903.25   -47434.866    4003.4571   -51438.323   0.16130404 
   16000    295.42171   -897.63244    149744.68   -47424.172    4056.9058   -51481.078   0.15686748 
   16200    298.88766   -994.65044    150001.47   -47366.939    4104.5023   -51471.441   0.15268566 
   16400    296.21423   -1096.0574    150153.75    -47360.41    4067.7891     -51428.2   0.15807371 
   16600    290.77119   -975.09198    149920.12   -47381.295    3993.0421   -51374.337    0.1574164 
   16800    293.77181    -878.6031    149803.99   -47336.408    4034.2484   -51370.657   0.15343111 
   17000    296.70816    -1061.542    150085.45   -47356.487    4074.5721   -51431.059   0.15379672 
   17200    296.61506   -1165.5715    150174.59   -47337.858    4073.2935   -51411.152   0.16449684 
   17400    295.58424    -914.9568    149860.09   -47388.254    4059.1377   -51447.392   0.15442611 
   17600    294.53073   -836.45132    149782.58   -47426.942    4044.6703   -51471.612   0.15264911 
   17800    291.55366   -1095.0463    150099.77   -47441.101    4003.7875   -51444.888    0.1593226 
   18000    290.63672   -1155.8092    150099.88   -47474.701    3991.1955   -51465.897   0.16068935 
   18200    293.23621   -884.41126    149760.32   -47506.507    4026.8932   -51533.401    0.1496785 
   18400    288.78468   -936.62446    149803.48   -47527.305    3965.7621   -51493.067   0.15434522 
   18600    292.60466   -1141.7639    150140.11   -47478.656    4018.2204   -51496.876   0.15759243 
   18800    292.75987   -1069.5129    150066.32    -47412.49    4020.3518   -51432.841   0.15201639 
   19000    288.34839   -885.19111    149748.17    -47445.95    3959.7708    -51405.72   0.15704549 
   19200    298.94819   -907.63205     149862.3   -47418.732    4105.3334   -51524.066   0.15519791 
   19400    292.49002   -1130.8654     150181.6   -47402.773    4016.6461   -51419.419   0.15906354 
   19600    296.02159   -1029.5491    150022.48   -47434.812    4065.1437   -51499.956   0.15250626 
   19800    291.25454   -861.00486    149727.87   -47436.275    3999.6798   -51435.955   0.16214233 
   20000    293.23105   -1015.1595    149934.32   -47423.593    4026.8224   -51450.416    0.1607668 
   20200    291.92315      -1199.4    150171.63   -47446.519    4008.8615   -51455.381   0.15491884 
   20400    292.23361   -958.71797    149884.29   -47428.294    4013.1249   -51441.418   0.15654435 
   20600    292.25663   -852.26794    149695.24   -47427.141     4013.441   -51440.582   0.15637751 
   20800    295.37378   -1052.6084    150035.13   -47424.998    4056.2476   -51481.246    0.1525921 
   21000    296.40734   -1179.9644    150229.26    -47415.42     4070.441   -51485.861   0.15724861 
   21200    293.83006   -920.52999    149801.26     -47411.7    4035.0484   -51446.748    0.1589452 
   21400    294.55483   -758.23133    149594.13   -47410.144    4045.0013   -51455.145   0.15350825 
   21600    291.60627   -1137.0768    150087.33   -47357.849    4004.5098   -51362.358   0.16434863 
   21800    299.14497   -1252.9078    150291.47   -47303.019    4108.0357   -51411.055   0.16771332 
   22000    301.29205   -817.03987    149715.74   -47317.771    4137.5207   -51455.292   0.16239159 
   22200    300.29194   -688.97906    149578.22   -47278.486    4123.7867   -51402.273   0.15739251 
   22400    299.75521   -1307.1179    150313.64   -47244.512    4116.4159   -51360.927     0.168578 
   22600    298.95919   -1285.9073    150341.48   -47249.745    4105.4845   -51355.229   0.16883669 
   22800    295.34991   -696.65682    149475.35   -47299.876    4055.9198   -51355.796   0.15581798 
   23000    298.28221    -698.4337    149532.34   -47318.087    4096.1879   -51414.274   0.15790404 
   23200    296.64834   -1403.9759    150483.09    -47296.87    4073.7505   -51370.621   0.17029589 
   23400    294.70187   -1235.8935    150334.55    -47307.37    4047.0206   -51354.391   0.16459248 
   23600     300.8135    -594.9097    149419.86   -47339.152     4130.949   -51470.101   0.15801311 
   23800    298.04195   -800.85902    149701.85   -47273.737    4092.8885   -51366.625   0.16218856 
   24000    297.80391   -1379.0718    150553.29   -47297.756    4089.6195   -51387.376   0.16743466 
   24200    300.53027   -1133.0524    150219.08   -47286.341    4127.0595   -51413.401   0.15502651 
   24400    299.46574   -615.16619    149501.44   -47302.774    4112.4408   -51415.215   0.15455479 
   24600    302.86078   -934.85893    149888.87   -47299.739    4159.0635   -51458.802   0.16137628 
   24800    306.61433   -1302.9581    150473.13   -47211.624    4210.6094   -51422.234   0.16119407 
   25000    305.41665   -1008.7194    150120.82   -47216.108    4194.1623    -51410.27   0.15311007 
   25200    293.13643   -792.45083    149718.69   -47246.804    4025.5229   -51272.327   0.16393698 
   25400    296.47258   -1007.0512    150014.04   -47307.309    4071.3369   -51378.646    0.1580073 
   25600    297.60037   -1212.9896    150220.56   -47327.979    4086.8244   -51414.804   0.16675657 
   25800    298.37218   -995.72518    149917.34   -47309.183    4097.4234   -51406.606   0.16039107 
   26000    300.52709    -825.2928    149731.43   -47289.455    4127.0159   -51416.471   0.15444081 
   26200     298.2064   -1023.7004    149982.23   -47333.068    4095.1468   -51428.215   0.15467536 
   26400    297.55452   -1174.7307    150142.03   -47353.581    4086.1948   -51439.776   0.16364809 
   26600    294.70995   -941.68506    149889.24    -47366.98    4047.1315   -51414.112   0.15983784 
   26800    297.63508    -895.9632    149784.33   -47374.849    4087.3011    -51462.15   0.15413901 
   27000    293.21307    -1049.864     150058.7   -47370.138    4026.5754   -51396.714   0.15830312 
   27200    293.50732   -1169.5924    150140.85   -47362.974    4030.6163    -51393.59   0.16467954 
   27400    295.96699   -937.09725    149839.11   -47332.353    4064.3938   -51396.747   0.15962362 
   27600    299.53469     -864.441    149798.42    -47338.23    4113.3877   -51451.618   0.15538609 
   27800    293.58357   -1166.3861    150119.08    -47328.87    4031.6634   -51360.533   0.16780072 
   28000    297.22125   -1137.9689    150115.26   -47316.102    4081.6181    -51397.72   0.15915142 
   28200    299.84791   -820.11356    149758.21   -47340.945     4117.689   -51458.634   0.14774798 
   28400    295.58291    -922.7046     149821.2   -47335.528    4059.1195   -51394.648   0.15925484 
   28600    294.42524   -1146.4439    150174.32   -47350.875    4043.2217   -51394.097     0.154394 
   28800      298.525   -1073.2672    150058.56   -47364.122     4099.522   -51463.644   0.15419388 
   29000    297.33905   -850.93481    149726.61   -47406.789    4083.2359   -51490.025   0.15314615 
   29200    299.62085   -935.97269    149873.25   -47442.005    4114.5709   -51556.576   0.15115969 
   29400    295.78885    -1180.158    150150.37   -47437.406    4061.9476   -51499.354   0.15745202 
   29600    290.84273   -996.81128    149944.16   -47399.472    3994.0245   -51393.497   0.15205153 
   29800    300.56641   -787.83379    149703.16   -47323.876    4127.5558   -51451.432   0.15302394 
   30000    298.91318   -1055.8385    150004.38   -47310.477    4104.8527   -51415.329     0.160022 
   30200    299.98244   -1165.3858     150220.5   -47316.771    4119.5365   -51436.307   0.15762906 
   30400    297.46899   -947.93992    149884.63   -47374.669    4085.0202   -51459.689   0.15687282 
   30600    296.00499    -788.6964    149668.06   -47323.811    4064.9157   -51388.727   0.15061842 
   30800    299.59595   -1029.1108    150059.06   -47283.999    4114.2289   -51398.228    0.1550977 
   31000    294.55055   -1256.5264     150238.8   -47267.078    4044.9425    -51312.02   0.17045362 
   31200    303.26289    -840.3825    149803.43   -47276.219    4164.5855   -51440.804   0.15724744 
   31400    302.06337   -737.84725    149666.02   -47275.908     4148.113   -51424.021   0.15129626 
   31600    293.13026   -1133.2186    150133.47   -47332.469    4025.4383   -51357.907   0.15531602 
   31800     294.8873   -1176.9255    150244.33   -47301.211     4049.567   -51350.778   0.16303446 
   32000    296.10738   -796.70301    149751.36   -47277.623    4066.3218   -51343.944   0.15636997 
   32200    292.94557    -816.5664    149719.93   -47314.646     4022.902   -51337.548   0.15743251 
   32400    297.32593   -1174.1584    150264.68   -47299.214    4083.0557   -51382.269   0.16146026 
   32600    300.11989   -1119.8106    150244.53   -47284.814    4121.4239   -51406.238   0.15426593 
   32800    295.89873   -759.26686    149678.17   -47289.742    4063.4565   -51353.198   0.15134138 
   33000    297.79674     -866.944    149786.37    -47278.76    4089.5211   -51368.281   0.15751427 
   33200    299.75172   -1252.7486    150374.62   -47263.261     4116.368   -51379.629   0.16134358 
   33400    299.79087   -1082.2442    150172.87   -47226.368    4116.9056   -51343.273   0.15579269 
   33600    301.28439   -667.99934    149598.96   -47166.758    4137.4156   -51304.174   0.15589136 
   33800    301.85574   -992.26938    149922.04    -47200.15    4145.2616   -51345.412   0.15968192 
   34000    304.37971   -1298.6281    150434.27   -47213.087    4179.9224   -51393.009   0.16057316 
   34200    296.55434   -1031.6058    150029.04   -47251.602    4072.4597   -51324.062   0.16157029 
   34400    295.95338   -648.79407    149529.98   -47325.646     4064.207   -51389.853    0.1583285 
   34600    300.93273   -990.44968    150009.54    -47293.91    4132.5864   -51426.497   0.15626073 
   34800     293.6482   -1365.1338    150487.05   -47326.522    4032.5508   -51359.073   0.16048065 
   35000    297.68783   -961.37262    149871.52   -47362.165    4088.0254    -51450.19   0.15922917 
   35200    297.74849   -627.49743    149405.13   -47355.676    4088.8585   -51444.535     0.156052 
   35400    298.85197   -1107.3506    150093.45   -47308.078    4104.0121    -51412.09   0.15946863 
   35600    300.45625   -1401.3642    150511.68   -47293.223     4126.043   -51419.266   0.16513689 
   35800    298.46425   -885.94026    149765.94   -47304.494    4098.6877   -51403.182   0.16019742 
   36000    304.14154   -613.87713    149466.59   -47311.187    4176.6517   -51487.838   0.14977769 
   36200    301.91047   -1176.5641     150242.6   -47316.408    4146.0133   -51462.421   0.15629091 
   36400    292.79756   -1360.8676    150411.08   -47339.461    4020.8694    -51360.33   0.16987522 
   36600    300.31493   -776.10664    149699.18   -47324.714    4124.1023   -51448.816   0.15694986 
   36800     299.9029   -770.60364    149649.99   -47371.206    4118.4442    -51489.65   0.15294902 
   37000    297.23573   -1166.5495    150226.38   -47352.281     4081.817   -51434.098    0.1556864 
   37200    300.74988   -1152.3594    150210.27   -47312.546    4130.0754   -51442.621   0.15383981 
   37400    295.74615   -786.77149    149735.95   -47310.728    4061.3612   -51372.089   0.15240734 
   37600    294.29338   -934.84259    149840.47   -47337.803    4041.4108   -51379.214   0.16178025 
   37800    296.93186   -1173.7087    150219.96    -47295.75     4077.644   -51373.394   0.16320173 
   38000    296.44316   -1111.8179    150080.34   -47353.645     4070.933   -51424.578   0.15997652 
   38200    292.41581   -819.17423    149769.42   -47351.104     4015.627   -51366.731   0.15205464 
   38400    292.34238   -927.92742    149899.06     -47314.2    4014.6186   -51328.819    0.1594454 
   38600    295.36411   -1143.4053    150151.64   -47307.983    4056.1148   -51364.097   0.16433704 
   38800    292.17062   -1039.5631     150009.9   -47361.633    4012.2599   -51373.893   0.16120397 
   39000    298.78435   -878.58546    149814.48   -47393.383    4103.0835   -51496.467   0.15647769 
   39200    295.69885   -1007.5954    149967.11   -47412.633    4060.7117   -51473.345   0.15560057 
   39400    293.57688   -1062.9669     150137.8    -47399.32    4031.5715   -51430.891   0.15193163 
   39600    294.51917    -1045.703       149970   -47474.579    4044.5116   -51519.091   0.15853727 
   39800    295.94932   -852.57738    149746.91   -47466.477    4064.1512   -51530.628    0.1559005 
   40000      289.561   -1030.4924    149913.35   -47475.243     3976.423   -51451.666   0.16170708 
   40200    294.82568    -1144.654    150092.68   -47446.163    4048.7208   -51494.884   0.15944737 
   40400    293.99984   -963.22209    149870.82   -47443.477    4037.3798   -51480.857   0.15525643 
   40600     292.1659    -874.5964    149727.45   -47474.772    4012.1951   -51486.967    0.1506847 
   40800    293.33025   -1062.5045    149959.04   -47490.881    4028.1846   -51519.065   0.15029056 
   41000    294.44735   -1134.6868    150060.47   -47442.677    4043.5253   -51486.202   0.16399514 
   41200    295.69335   -907.40615    149793.67   -47479.397    4060.6361   -51540.033    0.1513531 
   41400    294.23922   -895.37144    149732.66   -47445.272    4040.6671   -51485.939   0.15145572 
   41600    292.77543   -1103.7479    150050.96   -47433.541    4020.5655   -51454.106   0.15881141 
   41800     293.5873   -1115.0471    150060.25   -47430.143    4031.7145   -51461.858   0.16005024 
   42000    297.49598   -822.46784    149729.94    -47406.61    4085.3909   -51492.001   0.15668905 
   42200    290.44026   -911.45779    149828.92   -47431.864    3988.4976   -51420.362   0.15862461 
   42400    292.02334    -1192.167    150163.62   -47478.111    4010.2374   -51488.348   0.15768162 
   42600    294.95802   -1048.4528    149982.83   -47507.494    4050.5382   -51558.032   0.15170377 
   42800    290.92349   -772.76742    149642.72   -47513.322    3995.1336   -51508.456   0.14487766 
   43000    295.22332   -964.96723    149875.76   -47464.722    4054.1814   -51518.903   0.15625291 
   43200    290.84399   -1255.2151    150218.49   -47462.586    3994.0418   -51456.627    0.1614606 
   43400    293.24505     -978.469    149910.15   -47457.255    4027.0145   -51484.269   0.14948041 
   43600    294.89815   -735.33254    149558.32   -47458.951    4049.7159   -51508.667   0.14928427 
   43800    298.79882   -1008.1874    149976.21   -47426.749    4103.2822   -51530.032   0.15231434 
   44000    291.51099   -1331.9544    150374.62   -47439.159    4003.2015   -51442.361   0.16060571 
   44200     290.1622   -948.48614    149850.86   -47490.985     3984.679   -51475.664   0.15616113 
   44400    299.26043   -579.32674     149443.5   -47470.961    4109.6213   -51580.582   0.14950764 
   44600    293.27331   -1116.7221    150106.24   -47398.318    4027.4027   -51425.721   0.15844075 
   44800    300.51254    -1434.817    150516.78   -47355.307    4126.8161   -51482.123   0.15962738 
   45000    296.91556    -812.1809     149756.9   -47405.011    4077.4203   -51482.431   0.15090148 
   45200     295.6169   -588.09787    149421.21   -47429.993    4059.5863   -51489.579   0.14786636 
   45400    291.73837   -1263.5762    150323.61   -47468.965    4006.3239   -51475.289   0.15744391 
   45600    295.02847   -1438.1603    150527.22   -47453.117    4051.5055   -51504.622   0.16359809 
   45800    292.04188   -620.05279    149487.95   -47441.645     4010.492   -51452.137   0.14792602 
   46000     296.0731   -598.20865    149463.33   -47441.609     4065.851    -51507.46   0.14853327 
   46200    291.32483   -1434.6584    150531.72   -47459.936    4000.6451   -51460.581   0.16337758 
   46400    291.29673   -1309.0926     150407.5   -47443.221    4000.2592    -51443.48    0.1603141 
   46600    294.79176   -579.42246    149430.34   -47456.283    4048.2549   -51504.538   0.14949518 
   46800    295.61938   -783.65915    149658.42   -47419.277    4059.6203   -51478.897   0.15052333 
   47000    299.88947   -1328.9784    150481.62   -47384.906    4118.2597   -51503.165   0.15969881 
   47200    294.77646   -1157.3798    150214.49   -47358.357    4048.0449   -51406.402   0.16053789 
   47400    296.20356   -676.90415    149587.62   -47295.391    4067.6426   -51363.034   0.15554797 
   47600     300.0058   -903.22008    149859.58   -47267.915    4119.8572   -51387.772   0.15744891 
   47800    296.14412   -1259.5201    150346.04   -47227.433    4066.8264    -51294.26   0.16617664 
   48000    302.73056   -1023.2463    150094.55   -47234.942    4157.2753   -51392.217   0.15355105 
   48200    300.12094   -802.80591    149757.35   -47240.387    4121.4383   -51361.825   0.15641443 
   48400    297.96194   -992.74719    149993.38   -47216.775    4091.7897   -51308.565   0.16341509 
   48600     301.8163   -1132.2722    150225.78   -47279.467    4144.7201   -51424.187   0.16139386 
   48800     297.5248   -952.78319     149961.8    -47223.37    4085.7866   -51309.157   0.15644788 
   49000    300.27578   -831.12546    149822.49    -47203.84    4123.5647   -51327.405   0.15945706 
   49200    298.14482   -1129.5463    150156.05   -47234.823    4094.3012   -51329.125   0.16574417 
   49400    301.80473   -1149.2601    150236.99   -47244.458    4144.5611   -51389.019   0.15646392 
   49600    297.97121   -922.61464    149870.75   -47268.125    4091.9171   -51360.042   0.16086725 
   49800    300.36863   -887.59016    149812.09   -47248.791    4124.8398   -51373.631   0.16234675 
   50000    298.49502   -1127.9663    150150.28   -47243.971    4099.1103   -51343.081   0.16268064 
   50200    300.17044    -1144.108    150129.06   -47281.418    4122.1181   -51403.537   0.16127753 
   50400    299.11152   -809.06671    149724.39   -47291.042    4107.5764   -51398.619   0.16105164 
   50600    296.58718   -874.96404    149811.16   -47310.937    4072.9107   -51383.848   0.16135695 
   50800    297.03935   -1165.8935    150201.75   -47316.077    4079.1202   -51395.197   0.16686031 
   51000    300.45087   -1055.2987    150046.95   -47252.646    4125.9691   -51378.616   0.16507099 
   51200    300.85553   -794.91422    149659.86   -47289.415    4131.5263   -51420.941   0.15675814 
   51400     299.7084   -902.67522    149860.08   -47249.281    4115.7731   -51365.054   0.15956231 
   51600    300.45724   -1257.5899    150275.67   -47243.758    4126.0566   -51369.815   0.16419962 
   51800    299.60176    -1046.276     150035.4   -47242.338    4114.3087   -51356.647   0.16567095 
   52000    305.33999   -753.61855    149645.35   -47208.705    4193.1094   -51401.814   0.15573108 
   52200    299.02498   -990.65267     149979.8   -47175.919     4106.388   -51282.307   0.16130083 
   52400    299.63172   -1218.4307    150384.64   -47149.773    4114.7201   -51264.493   0.16743279 
   52600    299.75711   -1011.6527    150040.65   -47194.283    4116.4421   -51310.725   0.16251632 
   52800    302.23231   -748.79204    149678.35   -47219.211     4150.433   -51369.644   0.16120345 
   53000    302.87948   -977.83286    150038.04   -47220.241    4159.3203   -51379.561    0.1604305 
   53200    299.88396   -1265.8197    150380.62   -47223.942    4118.1841   -51342.126   0.16197304 
   53400     297.5932   -995.24743    149985.11   -47260.235     4086.726   -51346.961     0.159679 
   53600     297.4351   -757.09012    149684.61   -47292.299    4084.5549   -51376.854   0.15712939 
   53800    294.78932   -1043.5182    150095.43   -47262.873    4048.2215   -51311.094   0.16343461 
   54000    293.72072   -1302.6544    150368.49   -47248.816    4033.5467   -51282.363    0.1666939 
   54200    298.10018   -944.10625     149950.6   -47263.383    4093.6881   -51357.072   0.16086259 
   54400    301.87151    -770.2952    149724.94   -47294.777    4145.4783   -51440.255   0.15203362 
   54600    298.68914   -1074.9196    150133.55   -47284.153    4101.7761   -51385.929   0.15833893 
   54800    296.41977   -1195.9478     150321.6   -47223.371    4070.6118   -51293.983    0.1651549 
   55000    299.98328   -927.62581    149927.41   -47231.461    4119.5479   -51351.009   0.16598006 
   55200    299.03471   -808.76227    149718.31   -47263.554    4106.5217   -51370.075   0.15882576 
   55400    299.40972   -1096.2071    150131.62   -47282.657    4111.6715   -51394.328   0.15895396 
   55600    295.80967   -1210.1263     150301.2   -47315.777    4062.2335   -51378.011   0.16091076 
   55800    301.75997   -842.57923    149840.58   -47293.416    4143.9466   -51437.363   0.15376862 
   56000     299.2842   -823.59985    149683.04   -47279.525    4109.9478   -51389.472   0.16203988 
   56200     298.6157   -1113.5424    150118.38   -47308.344    4100.7676   -51409.112   0.16265589 
   56400    291.68855   -1208.7994       150223    -47306.35    4005.6398   -51311.989   0.17104256 
   56600     296.7631   -849.54665    149749.91   -47317.913    4075.3266    -51393.24   0.15929245 
   56800    300.78256   -813.23058    149724.73   -47267.809    4130.5242   -51398.333   0.15815037 
   57000    303.09919    -1167.965    150236.91   -47267.119    4162.3375   -51429.457   0.16513981 
   57200    297.98934    -1175.358    150185.58    -47297.93     4092.166   -51390.096   0.16493142 
   57400    300.09116   -783.78567    149641.52   -47325.484    4121.0295   -51446.513   0.15585759 
   57600    296.40495    -870.2225    149770.84   -47313.905    4070.4082   -51384.313   0.16185547 
   57800    296.99002   -1275.5333    150313.98   -47318.775    4078.4428   -51397.218   0.16816915 
   58000    297.65252   -1116.2876    150110.12   -47335.142    4087.5406   -51422.683   0.15918542 
   58200    296.65347   -734.55336    149594.38   -47383.656     4073.821   -51457.477   0.15297553 
   58400    294.82815   -884.65467    149814.66   -47372.992    4048.7546   -51421.746     0.158348 
   58600    296.02003   -1259.0538     150341.3   -47343.585    4065.1222   -51408.707   0.16671336 
   58800    298.34107   -1100.4819    150104.05    -47381.06    4096.9961   -51478.056   0.15716444 
   59000    296.34116   -738.59182    149585.12   -47412.952    4069.5322   -51482.484   0.14933712 
   59200    292.24706   -933.68256    149845.56   -47409.873    4013.3096   -51423.183   0.15419189 
   59400    296.35453   -1245.3167    150340.52   -47343.139    4069.7158   -51412.854   0.15762864 
   59600    293.45626   -1076.3904    150064.58   -47342.153     4029.915   -51372.068   0.16128447 
   59800    296.19405   -723.32276    149578.38   -47335.084     4067.512   -51402.596   0.15662766 
   60000    296.08047   -953.43721    149908.86   -47318.334    4065.9522   -51384.286   0.15542365 
   60200    298.61072   -1290.1642    150397.34   -47282.412    4100.6992   -51383.111   0.16112943 
   60400    297.58168   -1041.8688    150015.87    -47256.47    4086.5678   -51343.038   0.16216727 
   60600    297.54664   -692.31506    149578.14   -47304.409    4086.0865   -51390.495   0.15623807 
   60800     299.5622   -998.44138    150027.46   -47236.661    4113.7654   -51350.426   0.16080584 
   61000    297.47368   -1324.2932    150398.98     -47271.8    4085.0846   -51356.884   0.16463125 
   61200    297.21111   -924.69028    149862.15   -47284.405    4081.4789   -51365.883   0.15961367 
   61400    302.13434   -668.22969    149523.08   -47286.816    4149.0876   -51435.903   0.15459816 
   61600    300.18101   -1130.0762    150115.04   -47270.203    4122.2633   -51392.467   0.16504572 
   61800    297.16107   -1332.2061     150414.2   -47263.977    4080.7918   -51344.769   0.16486276 
   62000    295.76895   -893.91364     149759.4   -47299.053    4061.6743   -51360.728   0.15622294 
   62200    293.90143   -655.70931    149502.01    -47314.36    4036.0284   -51350.388   0.15623037 
   62400    297.41136   -1161.2352    150216.44   -47264.487    4084.2289   -51348.716   0.16539451 
   62600    302.54698    -1317.667    150382.66   -47281.642    4154.7543   -51436.397    0.1630376 
   62800    302.76468   -773.76659    149638.03    -47268.72    4157.7438   -51426.464   0.15338918 
   63000    302.02471   -702.28797    149593.86    -47236.37    4147.5821   -51383.952   0.15755749 
   63200    297.97238   -1259.0186    150330.77   -47229.782    4091.9331   -51321.715   0.16642045 
   63400     299.0757   -1169.5449    150263.87    -47184.75    4107.0846   -51291.834   0.16666248 
   63600    303.39953   -766.51178    149616.49   -47174.902    4166.4619   -51341.364   0.16218086 
   63800     299.8606   -857.16568    149745.85   -47202.063    4117.8632   -51319.926   0.16124253 
   64000    303.10914   -1230.3122    150299.85   -47186.925    4162.4741   -51349.399   0.16557009 
   64200    300.45793   -1148.7384    150142.62     -47190.8    4126.0661   -51316.866   0.16944329 
   64400    304.21613   -773.98816    149679.78   -47184.242     4177.676   -51361.918   0.15930879 
   64600    299.89993   -883.32099    149856.91   -47238.625    4118.4034   -51357.028   0.15630938 
   64800    302.70892   -1211.2898    150203.95   -47245.238     4156.978   -51402.216   0.16285289 
   65000    298.60226   -1053.4606    150018.17   -47236.558     4100.583   -51337.141   0.16410926 
   65200    297.38619     -904.287    149749.69   -47267.998    4083.8832   -51351.881   0.16304306 
   65400    299.58155   -1000.0435     149940.3   -47291.482    4114.0311   -51405.513   0.15726103 
   65600    300.97045   -1130.5265    150114.98   -47313.078    4133.1043   -51446.182   0.15766605 
   65800     296.7401   -951.57876    149917.87   -47289.823    4075.0107   -51364.833   0.15877205 
   66000    300.68193   -853.86061    149787.17   -47291.221    4129.1423   -51420.363    0.1537811 
   66200    295.45146   -1024.2559    149982.16   -47315.662    4057.3143   -51372.976   0.16292481 
   66400    297.53114   -1096.8532     150060.6   -47309.149    4085.8738   -51395.023   0.15895833 
   66600    299.19625   -926.19482     149863.4   -47325.848      4108.74   -51434.588   0.15596486 
   66800    302.87423   -873.85636     149837.4   -47308.858    4159.2482   -51468.106   0.15505633 
   67000    299.54225   -1057.4402    150031.36   -47335.599    4113.4914    -51449.09   0.15965191 
   67200    296.39581   -1070.0048    150004.39   -47357.214    4070.2827   -51427.497    0.1636904 
   67400    291.86341   -908.00614    149811.07   -47393.323    4008.0411   -51401.364   0.15727356 
   67600    301.80565   -909.73754    149839.86   -47348.031    4144.5738   -51492.605   0.15398635 
   67800    299.65762   -992.83068    150022.44   -47291.089    4115.0758   -51406.165   0.15440778 
   68000    295.01313   -1016.6729    149992.68   -47285.392    4051.2949   -51336.687   0.16144689 
   68200    293.49815   -968.78408    149820.74   -47362.766    4030.4903   -51393.256   0.16372186 
   68400    293.02229   -918.18509    149841.53   -47304.473    4023.9555   -51328.429   0.16058325 
   68600    293.84489   -1037.4415    150041.29   -47286.441     4035.252   -51321.693   0.15903041 
   68800     299.1842   -1041.3916    150024.57   -47253.872    4108.5745   -51362.447   0.16169508 
   69000    292.96237   -966.49918    149848.61   -47303.388    4023.1326   -51326.521   0.16599276 
   69200    300.16525   -948.53634    149892.51   -47309.093    4122.0469   -51431.139   0.15960023 
   69400    296.28723   -1099.8298    150080.89   -47345.681    4068.7916   -51414.472   0.16114237 
   69600    294.98698   -1020.0693    150014.48   -47359.442    4050.9358   -51410.378   0.15873726 
   69800    299.93332   -871.98476    149817.41   -47328.051    4118.8619   -51446.913   0.15301385 
   70000     301.7856    -992.1731    149922.04   -47286.398    4144.2985   -51430.697   0.15918446 
   70200    301.60818   -1072.1228    150172.36   -47265.475    4141.8621   -51407.337     0.153536 
   70400     303.3133   -1062.3561    150075.01   -47281.985    4165.2777   -51447.262   0.15910917 
   70600    298.99646   -848.21989    149779.25    -47257.69    4105.9963   -51363.686   0.15955302 
   70800    303.07945   -976.48098    149971.75   -47281.234    4162.0663     -51443.3   0.16192781 
   71000     294.8551   -1241.7172    150312.36   -47322.243    4049.1248   -51371.368   0.16587786 
   71200    293.19969   -998.97489    150023.09   -47334.197    4026.3917   -51360.588   0.15465549 
   71400    297.38711   -723.47863     149640.4   -47306.891    4083.8958   -51390.787   0.15237812 
   71600    295.64372    -1079.786    150102.51   -47279.616    4059.9546    -51339.57   0.16163702 
   71800    303.23513   -1361.5719    150491.36   -47293.488    4164.2043   -51457.692    0.1666418 
   72000    291.79976    -901.9493    149855.84    -47328.68    4007.1671   -51335.847   0.15523833 
   72200    295.65849   -592.52548    149475.22   -47370.439    4060.1573   -51430.596     0.145224 
   72400    293.32324   -1147.7134    150226.16   -47343.166    4028.0883   -51371.254   0.15853042 
   72600     298.4363   -1392.9495    150544.22   -47302.257    4098.3039   -51400.561   0.16725224 
   72800    297.56896   -833.96987    149750.99    -47393.26    4086.3931   -51479.653   0.15596953 
   73000    295.17932   -668.35951    149512.16   -47393.884    4053.5771   -51447.462   0.15656601 
   73200    295.27086   -1226.9227    150288.08   -47397.861    4054.8342   -51452.695   0.16192857 
   73400    291.01738     -1331.85     150429.6   -47389.026    3996.4229   -51385.449   0.16006981 
   73600    293.81726   -752.72234    149681.53    -47383.26    4034.8726   -51418.132   0.15257234 
   73800    298.12847   -748.43002    149661.31   -47379.911    4094.0766   -51473.988    0.1514432 
   74000    288.86257   -1263.3292    150335.42   -47418.019    3966.8318   -51384.851   0.16128797 
   74200    293.49166   -1183.0118    150235.06   -47414.995    4030.4011   -51445.396   0.15680099 
   74400    295.26787   -698.24985    149598.43   -47386.007    4054.7932     -51440.8   0.14763476 
   74600    294.49476   -845.63607    149768.61   -47408.203    4044.1764    -51452.38   0.15460383 
   74800    291.57041   -1285.6377    150334.09   -47409.834    4004.0174   -51413.852   0.16119212 
   75000    295.90552   -1115.7583    150092.56   -47375.453    4063.5498   -51439.003   0.15902764 
   75200    296.20902    -741.9811    149589.57   -47368.329    4067.7176   -51436.047   0.15381618 
   75400     290.8689   -941.17404    149862.29   -47352.995     3994.384   -51347.379   0.15892075 
   75600    297.41091   -1224.3173    150318.72   -47324.517    4084.2227    -51408.74   0.16047424 
   75800    300.13445    -1050.426    150074.81   -47303.795     4121.624   -51425.419   0.15263198 
   76000    298.73925   -757.17393    149688.39   -47295.197    4102.4642   -51397.661   0.15596338 
   76200     294.6082   -1024.7386    149959.49   -47318.582    4045.7342   -51364.316   0.16473124 
   76400    299.90331   -1221.1517     150287.7   -47282.208    4118.4497   -51400.658   0.16477409 
   76600     298.5611   -984.14889    150009.27   -47271.594    4100.0177   -51371.612   0.15810362 
   76800    303.56999   -836.77101    149745.01   -47274.752    4168.8027   -51443.555    0.1560328 
   77000    300.00601    -1042.801    150046.83   -47272.744    4119.8601   -51392.604   0.16040985 
   77200    293.28223   -1157.8615    150243.42   -47314.559    4027.5251   -51342.085   0.16671244 
   77400    301.84322   -937.88498     149880.4   -47310.348    4145.0898   -51455.438   0.15749765 
   77600    302.64707    -782.7899    149724.78   -47329.512    4156.1287   -51485.641   0.15129762 
   77800    300.26952   -1114.6435    150143.76   -47337.355    4123.4788   -51460.834   0.15702393 
   78000    293.14629   -1225.4429    150246.93   -47334.962    4025.6584    -51360.62   0.16264109 
   78200    298.43602    -879.7735     149824.1   -47334.561       4098.3   -51432.861   0.15791091 
   78400    291.97978    -852.4698    149747.92   -47355.985    4009.6391   -51365.624   0.15676784 
   78600     296.8836   -1142.8946    150141.43    -47370.11    4076.9813   -51447.091   0.16126069 
   78800    298.73809   -1109.2656    150134.39   -47355.067    4102.4483   -51457.516   0.15674086 
   79000    298.03143   -855.59021    149781.01   -47342.406     4092.744    -51435.15   0.15100802 
   79200    297.09203   -880.70817    149830.01   -47352.688    4079.8436   -51432.532    0.1557636 
   79400    297.68972   -1168.3087    150121.13    -47300.31    4088.0514   -51388.362   0.16415159 
   79600    295.94329   -1070.9213    150021.07   -47290.678    4064.0684   -51354.747    0.1631487 
   79800    297.16874   -892.47393     149768.2   -47320.403    4080.8971     -51401.3   0.16236325 
   80000    299.89739    -941.8046    149869.45   -47290.324    4118.3685   -51408.692   0.16216067 
   80200    296.10459    -1146.249    150100.48   -47250.487    4066.2835   -51316.771   0.16772653 
   80400    296.80175   -1064.9214    149994.17    -47221.08    4075.8573   -51296.937   0.16740137 
   80600    297.87677   -888.22014    149811.73   -47244.298    4090.6202   -51334.919   0.16306612 
   80800     300.0627   -984.41937    149958.06   -47184.045    4120.6386   -51304.684   0.16606827 
   81000    300.37862   -1097.7446    150125.66   -47235.272     4124.977   -51360.249   0.16123807 
   81200    298.60125   -979.82763    149940.32   -47216.958    4100.5691   -51317.527   0.16213041 
   81400    300.01215   -939.20444    149796.23   -47193.461    4119.9445   -51313.405   0.16772649 
   81600    291.90908   -1015.6378    149955.04   -47210.364    4008.6683   -51219.033   0.17094036 
   81800    301.14646   -1132.7821    150078.85   -47213.229    4135.5215    -51348.75   0.17402169 
   82000     307.3353    -964.3684    149938.58   -47180.446    4220.5102   -51400.957   0.16300258 
   82200    298.36337    -914.9659    149859.57   -47227.192    4097.3024   -51324.495   0.16396236 
   82400    306.10898   -1015.8633     149989.5   -47228.126    4203.6697   -51431.796   0.15961339 
   82600    293.73502   -1088.1792    150045.09    -47270.86    4033.7432   -51304.603    0.1655979 
   82800     293.6202   -959.15207     149947.1    -47312.83    4032.1664   -51344.997   0.16308435 
   83000    300.01649   -976.17031     149911.2   -47297.742    4120.0041   -51417.746   0.15991874 
   83200    298.99852    -1007.179    149978.35   -47318.708    4106.0247   -51424.732   0.15412737 
   83400    294.44527   -1048.2012    149994.13   -47339.165    4043.4967   -51382.662   0.15790242 
   83600    297.79479   -956.43185     149913.3   -47357.515    4089.4943    -51447.01   0.15903097 
   83800    295.59694   -928.48437    149915.08   -47307.092    4059.3121   -51366.405   0.16516879 
   84000    294.45196   -1018.5847    149996.32   -47337.332    4043.5886   -51380.921    0.1604672 
   84200    298.56193   -1024.3589    150017.14   -47325.259    4100.0292   -51425.288   0.15923279 
   84400    297.10915   -1027.7284    149950.79   -47330.151    4080.0787    -51410.23    0.1700892 
   84600    298.75494   -937.17751     149886.7   -47327.723    4102.6797   -51430.403   0.15951811 
   84800    296.25147   -1021.0057    149964.12   -47338.147    4068.3006   -51406.448   0.16120092 
   85000    296.12562   -1065.7286    150007.85   -47299.874    4066.5723   -51366.446   0.16412474 
   85200    302.91267   -971.41593    149932.18   -47270.617     4159.776   -51430.393   0.16154521 
   85400    299.95199   -965.31286    149926.25   -47257.121    4119.1182   -51376.239   0.16254004 
   85600     298.4269    -1003.543    149979.61   -47253.142    4098.1749   -51351.317   0.16007113 
   85800    296.78048   -1018.8031    149955.28    -47267.74    4075.5653   -51343.305   0.16865744 
   86000    296.38385   -937.19686    149908.45   -47221.299    4070.1185   -51291.418   0.16634457 
   86200     298.3497    -1041.082    150022.21   -47230.735    4097.1147    -51327.85   0.16284824 
   86400    298.88753   -1066.6543    150084.35   -47223.453    4104.5005   -51327.953   0.16528054 
   86600    299.21459   -964.84654    149936.46   -47224.382    4108.9918   -51333.373   0.16506568 
   86800    298.53284   -932.91765    149859.02   -47256.522    4099.6297   -51356.152   0.15935319 
   87000    298.95482   -1021.6349     149993.7   -47277.321    4105.4246   -51382.746   0.15651745 
   87200    297.86754   -1040.6605    150055.85   -47245.214    4090.4934   -51335.708   0.16068409 
   87400    304.81728   -987.13826    149908.29   -47210.695    4185.9314   -51396.627   0.16900124 
   87600    304.91145   -928.10007    149867.92   -47278.732    4187.2244   -51465.957   0.16408977 
   87800    298.95465   -1025.4151    150008.11   -47282.468    4105.4222    -51387.89   0.16205714 
   88000    292.07743   -1087.1623    150038.88   -47230.078    4010.9802   -51241.058   0.17519966 
   88200    301.20242   -967.44317    149905.32   -47244.867    4136.2899   -51381.157   0.16939465 
   88400    305.49879   -867.67019    149865.67   -47229.655    4195.2903   -51424.945   0.16115992 
   88600    295.92948   -1109.2872    150079.12   -47240.928    4063.8788   -51304.807   0.16999821 
   88800    302.03353   -1113.1347    150090.22   -47231.701    4147.7032   -51379.405   0.16769657 
   89000     301.4365   -873.72425       149802   -47257.852    4139.5045   -51397.356   0.15989764 
   89200    299.28574   -892.00466    149802.53   -47231.381     4109.969    -51341.35    0.1636663 
   89400    302.00167   -1157.7461    150153.06   -47198.483    4147.2658   -51345.749   0.17451365 
   89600     298.5699   -1098.7891    150090.34   -47220.806    4100.1386   -51320.944   0.16769979 
   89800    303.07512   -802.49297    149685.03   -47263.011     4162.007   -51425.018   0.15825441 
   90000    297.81477   -902.97565    149806.48   -47278.126    4089.7687   -51367.895   0.16450794 
   90200    296.54681   -1202.8556    150217.34   -47316.364    4072.3563    -51388.72   0.17341687 
   90400    295.83593   -1085.9884     150053.2   -47338.706    4062.5941     -51401.3   0.16586497 
   90600    298.51422   -760.52102    149638.74   -47337.453    4099.3739   -51436.827   0.15218976 
   90800     292.8701   -991.91333    149915.41   -47359.789    4021.8656   -51381.654    0.1585938 
   91000    298.98026   -1237.6789    150317.38   -47353.947    4105.7739   -51459.721   0.16068993 
   91200    295.69942   -1003.1452     149977.9   -47373.837    4060.7195   -51434.557   0.16167139 
   91400    299.35609   -752.06731    149609.46   -47370.917    4110.9351   -51481.852   0.15810689 
   91600    295.82195   -1025.0636    149992.08   -47370.645    4062.4021   -51433.047   0.15994163 
   91800    294.77008   -1282.6657    150318.56   -47341.088    4047.9572   -51389.046   0.16530022 
   92000    297.19046   -988.17923    149900.55   -47364.025    4081.1952    -51445.22   0.16373778 
   92200    299.56042   -755.30518    149600.89   -47391.469    4113.7409    -51505.21   0.15628117 
   92400    295.79167   -1080.7505    150055.54   -47364.832    4061.9863   -51426.818   0.16404155 
   92600    296.49464   -1251.8202    150325.72   -47417.735    4071.6399   -51489.375   0.16198036 
   92800    295.56338   -897.73128    149841.62   -47392.876    4058.8512   -51451.728   0.15413159 
   93000    302.63892   -726.08221     149618.4   -47323.753    4156.0168   -51479.769   0.15737452 
   93200    300.17543   -1161.9986    150152.87   -47316.599    4122.1867   -51438.786   0.16477274 
   93400    297.13311   -1249.0138    150331.77   -47314.458    4080.4077   -51394.866    0.1658629 
   93600    301.22801    -855.9685    149787.12   -47306.095    4136.6413   -51442.736   0.15714456 
   93800    301.96393   -804.90778    149671.61   -47298.822    4146.7474    -51445.57   0.16103433 
   94000    299.85172    -1190.449    150219.09   -47291.919    4117.7413    -51409.66   0.16695575 
   94200    294.18662   -1203.5136    150216.77   -47374.409    4039.9448   -51414.354   0.16209274 
   94400    293.03951   -793.27611    149627.06   -47367.373     4024.192   -51391.565   0.15379504 
   94600    297.17526   -828.23097    149743.57   -47364.405    4080.9866   -51445.391   0.15317116 
   94800    296.48855   -1266.5975    150330.66   -47408.706    4071.5563   -51480.263    0.1627446 
   95000    294.70227   -1144.4991    150100.38   -47418.256     4047.026   -51465.282   0.15528959 
   95200    294.23598    -739.1207    149528.24   -47431.956    4040.6226   -51472.579   0.15494563 
   95400    291.55816   -897.51427    149834.11   -47440.754    4003.8492   -51444.603   0.16284104 
   95600    292.57137   -1314.8395    150346.55   -47392.013    4017.7632   -51409.777   0.17102183 
   95800    286.88443   -1073.1021    149995.19   -47357.706    3939.6668   -51297.373   0.16780037 
   96000    292.79243   -682.31088     149577.3   -47354.744    4020.7989   -51375.543   0.15681061 
   96200    293.53707   -1040.8296    149978.89   -47394.571    4031.0248   -51425.595   0.16528774 
   96400    294.13417   -1246.0536    150312.56   -47382.489    4039.2245   -51421.714   0.16099866 
   96600    292.53493   -977.90996    149906.16   -47402.049    4017.2629   -51419.312   0.15801324 
   96800    292.63028   -746.34433    149624.08   -47459.391    4018.5722   -51477.963   0.15542482 
   97000    293.18038    -1053.949    149989.23   -47438.635    4026.1265   -51464.761   0.16012247 
   97200    288.07688   -1207.0195    150199.82   -47421.242    3956.0422   -51377.284   0.15839016 
   97400    292.02939   -915.66757    149855.74   -47380.156    4010.3204   -51390.476   0.15637426 
   97600     298.9352   -863.89874    149748.76   -47354.316    4105.1551   -51459.471   0.15960699 
   97800    299.45701    -1087.323    150065.54   -47344.704    4112.3209   -51457.024   0.15968802 
   98000    295.81802   -1133.3234    150111.56     -47313.3    4062.3481   -51375.648   0.16168472 
   98200    294.58452    -902.1318    149822.52   -47328.376    4045.4089   -51373.785   0.15696028 
   98400    296.40194   -868.84996    149835.94   -47255.644    4070.3669   -51326.011   0.16231801 
   98600    298.01822   -1089.6549     150083.6   -47301.319    4092.5626   -51393.882   0.16066606 
   98800    298.66015   -1015.0374    150022.99   -47262.843    4101.3779   -51364.221   0.16269754 
   99000    297.50543   -949.73113    149845.87   -47267.968    4085.5206   -51353.489   0.16470553 
   99200     293.8031   -971.96904    149927.35   -47333.399    4034.6781   -51368.077    0.1599516 
   99400    294.58087   -1099.9583    150079.33   -47427.077    4045.3589   -51472.436   0.15787055 
   99600    295.04603   -1024.8276    149954.02   -47452.776    4051.7467   -51504.522   0.15314549 
   99800    293.00717   -884.47761    149816.33   -47425.653    4023.7479     -51449.4   0.15564121 
  100000    298.40297   -990.88988    149955.47   -47425.086    4097.8463   -51522.932    0.1599513 
  100200    297.24847     -1049.24    150046.64   -47379.588    4081.9919    -51461.58   0.15972171 
  100400    297.31506   -1005.9311    149935.25   -47380.463    4082.9064    -51463.37   0.15646485 
  100600    293.60556   -941.85243    149894.45   -47328.246    4031.9653   -51360.211   0.16421819 
  100800     297.0648   -1051.8379    150021.57   -47357.535    4079.4697   -51437.005   0.16205981 
  101000    300.17472   -1032.0783    150045.52   -47339.791    4122.1769   -51461.968   0.16042932 
  101200    299.93523   -955.85345     149954.3   -47319.107    4118.8882   -51437.995   0.15844077 
  101400    297.98225   -985.40116    149948.56   -47325.776    4092.0686   -51417.844   0.16009937 
  101600    292.44117   -1017.5498    150011.77   -47341.594    4015.9752   -51357.569      0.15671 
  101800    297.47004   -989.35935    150021.76   -47307.401    4085.0347   -51392.436   0.15104443 
  102000    302.11888   -992.55327    149983.76   -47310.075    4148.8753    -51458.95   0.15799751 
  102200    299.53916   -1025.3193    149963.13   -47301.967     4113.449   -51415.416   0.16524055 
  102400    296.16161   -1008.5277    149965.11   -47242.721    4067.0666   -51309.788    0.1632721 
  102600    297.65775   -994.44269       150012   -47253.741    4087.6124   -51341.353   0.16062439 
  102800    299.67391   -1007.3079    150019.37   -47266.655    4115.2995   -51381.955   0.16227144 
  103000    298.11046   -985.86465    149967.32   -47261.545    4093.8294   -51355.374   0.16032537 
  103200    299.45604    -1021.393    149943.14   -47241.293    4112.3076     -51353.6   0.16029918 
  103400       301.03    -989.8079    149970.83   -47269.352    4133.9221   -51403.274   0.16594964 
  103600    300.80466   -997.26084    150022.08   -47272.392    4130.8276   -51403.219    0.1613033 
  103800    298.57341   -1047.9187    149995.75    -47277.72    4100.1868   -51377.907   0.15702893 
  104000    299.61901   -960.60762     149947.5   -47287.314    4114.5455    -51401.86   0.15919431 
  104200    300.28567   -991.20002    149998.19   -47301.502    4123.7006   -51425.202    0.1656463 
  104400    297.27742   -1065.0114    150075.75    -47317.83    4082.3895    -51400.22   0.16246106 
  104600    299.11666   -966.75323    149997.58   -47314.696     4107.647   -51422.343   0.15823184 
  104800    296.10643   -935.02661    149938.61   -47305.571    4066.3088    -51371.88   0.16285836 
  105000    301.82735   -1013.4458    150019.34   -47335.601    4144.8718   -51480.473    0.1588498 
  105200     296.3026   -1052.6377    150040.57   -47336.117    4069.0027    -51405.12   0.15673656 
  105400    299.74606   -953.46052    149894.84   -47329.136    4116.2903   -51445.426   0.15824875 
  105600    297.80435   -911.13152    149868.73   -47327.489    4089.6256   -51417.114   0.16095317 
  105800    298.85665   -1009.9714    150030.25   -47342.691    4104.0764   -51446.767   0.16048448 
  106000    300.02526   -1087.2351    150054.08   -47321.583    4120.1245   -51441.707   0.15829989 
  106200    300.16152   -884.94207    149862.81   -47299.939    4121.9956   -51421.934   0.16147514 
  106400    300.08681   -936.41787     149889.7   -47311.807    4120.9697   -51432.777    0.1623183 
  106600    297.37707   -1122.2823     150134.5   -47310.502    4083.7579   -51394.259   0.16503213 
  106800    295.94022    -1111.258     150066.1    -47305.03    4064.0263   -51369.056   0.16736166 
  107000    303.71115   -866.66298    149786.76   -47264.928    4170.7413   -51435.669   0.16009683 
  107200    298.51041   -938.46408    149908.93   -47251.303    4099.3216   -51350.624   0.16579729 
  107400    301.33574   -1148.5866    150194.92   -47253.461    4138.1208   -51391.582   0.16093079 
  107600    298.02901   -1027.0316    150037.03   -47232.248    4092.7107   -51324.959   0.16313903 
  107800    304.14219   -792.87232    149741.62   -47259.522    4176.6606   -51436.182   0.16385322 
  108000    306.61304     -972.613    149967.55   -47233.009    4210.5917   -51443.601   0.16495701 
  108200    300.60494   -1234.0543    150270.85   -47262.507     4128.085   -51390.592   0.16830795 
  108400    301.15077   -947.92254    149966.49   -47263.635    4135.5806   -51399.216   0.15965855 
  108600    304.10977   -800.17906    149719.55   -47237.496    4176.2154   -51413.712   0.16278722 
  108800    294.98784   -1041.6866    150084.75   -47255.053    4050.9476       -51306   0.16498685 
  109000    297.94767   -1213.4632    150304.17   -47290.324    4091.5937   -51381.918   0.16385483 
  109200    299.47082   -849.16627    149852.02    -47298.57    4112.5106   -51411.081   0.15985068 
  109400    295.85372   -770.14813    149663.24   -47286.463    4062.8383   -51349.302    0.1625391 
  109600    299.67892    -1126.482    150151.38   -47239.501    4115.3683   -51354.869   0.16150309 
  109800    296.08994   -1204.3541    150300.82    -47288.62    4066.0823   -51354.703   0.16925656 
  110000    299.71164   -863.92804    149744.31   -47234.944    4115.8176   -51350.762   0.17565148 
  110200    303.08633   -786.53436    149649.92   -47223.927    4162.1609   -51386.088   0.16813039 
  110400    298.03291   -1198.5139    150262.41   -47267.902    4092.7644   -51360.666   0.16488515 
  110600    293.93408   -1253.8778    150332.75    -47339.71    4036.4767   -51376.186   0.16387826 
  110800    295.52366   -773.00639    149648.36   -47345.655    4058.3059   -51403.961   0.16378504 
  111000     294.7567   -749.75745    149637.99   -47349.278    4047.7734   -51397.051   0.16079775 
  111200      297.395   -1249.7186    150356.54   -47326.413    4084.0041   -51410.417   0.16174276 
  111400    290.12308    -1277.657    150287.48   -47381.565    3984.1418   -51365.707   0.17306167 
  111600    296.26125   -722.53851    149538.42   -47447.551    4068.4348   -51515.986   0.15805398 
  111800    293.64585   -787.86444    149652.14   -47479.228    4032.5186   -51511.746   0.15331727 
  112000    293.88789    -1297.573    150325.05     -47459.6    4035.8424   -51495.443   0.16589516 
  112200      291.509   -1134.5895    150096.85   -47419.512    4003.1742   -51422.686   0.16897155 
  112400    296.27858   -676.89386    149500.53   -47395.501    4068.6728   -51464.174   0.16051425 
  112600    296.50324   -885.35823    149785.76   -47367.762     4071.758    -51439.52   0.15740765 
  112800    298.52196   -1246.7984    150310.87   -47374.916    4099.4802   -51474.396   0.16051026 
  113000    297.88441   -1073.7587    150004.67   -47356.887     4090.725   -51447.612   0.16374235 
  113200    299.95745   -735.76069    149545.62   -47399.713    4119.1933   -51518.907     0.158971 
  113400    294.44191    -976.9802    149853.01   -47375.738    4043.4506   -51419.189   0.16557723 
  113600    293.00743   -1240.8757    150256.35   -47372.971    4023.7515   -51396.723   0.16907578 
  113800    300.26748   -1042.5113    149972.92   -47361.032    4123.4508   -51484.483   0.16590601 
  114000    300.53086    -827.1382    149707.02   -47350.222    4127.0677   -51477.289   0.15625913 
  114200    296.20182   -1023.4572    149988.39   -47358.803    4067.6187   -51426.422    0.1592504 
  114400    301.51102    -1084.044    150169.35   -47296.129    4140.5278   -51436.657   0.16498656 
  114600    300.88443    -961.3306    149975.66   -47271.696    4131.9231   -51403.619   0.16174078 
  114800    302.17919   -918.56678    149879.22   -47259.207    4149.7035    -51408.91   0.15758242 
  115000    297.93353    -999.4124    150051.75   -47286.614    4091.3996   -51378.014   0.16001974 
  115200    294.20822   -1117.9077    150128.35   -47301.069    4040.2414    -51341.31   0.16953136 
  115400    301.03338    -956.7782    149983.96   -47316.535    4133.9685   -51450.504   0.16168955 
  115600    296.28661    -953.9965     149908.7   -47300.022    4068.7832   -51368.805   0.16218944 
  115800    295.36712   -1024.8395    150023.53   -47314.789    4056.1561   -51370.945   0.16615049 
  116000    300.31059   -1020.1139    150072.12   -47299.009    4124.0427   -51423.052   0.16448839 
  116200    294.75192   -966.14115     149971.7   -47319.063    4047.7079   -51366.771    0.1581927 
  116400    298.28989   -956.53602    149905.96   -47362.842    4096.2934   -51459.135   0.15722776 
  116600    295.69115   -971.31877    149984.95   -47374.284    4060.6058   -51434.889   0.16382187 
  116800    297.49322   -1065.2725    150046.02   -47327.798     4085.353   -51413.151   0.16470625 
  117000    297.68488   -1007.6751    149994.38   -47336.214     4087.985   -51424.199   0.15853249 
  117200    296.06441   -948.30284     149924.5   -47326.031    4065.7318   -51391.763   0.16191118 
  117400    293.99166   -1003.2799    149969.07   -47352.288    4037.2675   -51389.555   0.16674057 
  117600     301.5728   -1065.2497    150034.26   -47331.553    4141.3762   -51472.929   0.15972927 
  117800    296.81524   -1023.2174    149978.88   -47291.447    4076.0426    -51367.49     0.163434 
  118000    300.28505   -998.64335    149944.41   -47284.032     4123.692   -51407.724   0.16604549 
  118200    297.16895   -1028.4252    149981.67   -47318.279    4080.8999   -51399.179   0.16485455 
  118400    297.71043    -973.2964    149983.15   -47370.457    4088.3358   -51458.793   0.15340439 
  118600    293.08934   -982.51988    149954.21   -47398.024    4024.8763     -51422.9   0.15805445 
  118800    297.22591   -984.15494    149902.55   -47450.338    4081.6821    -51532.02   0.16268541 
  119000    292.97216   -975.21867    149888.36    -47448.42    4023.2672   -51471.687   0.16445736 
  119200    292.42738   -1008.8677    149943.94   -47448.561    4015.7859   -51464.346   0.15850724 
  119400    289.70228   -1076.6914    149960.86   -47473.687    3978.3632   -51452.051    0.1712176 
  119600    293.38597   -943.26736    149896.66   -47412.221    4028.9499   -51441.171   0.16051752 
  119800    298.33614   -961.78247    149910.01   -47409.186    4096.9284   -51506.115   0.15665835 
  120000    294.95121   -1024.6145    150008.92   -47425.747    4050.4446   -51476.191   0.15908429 
  120200    299.57414   -977.35228    149981.29   -47398.149    4113.9294   -51512.079   0.15560488 
  120400    296.43922   -949.45293    149876.78    -47448.17    4070.8788   -51519.049   0.15797893 
  120600    296.01318   -955.92041    149907.39   -47440.598    4065.0282   -51505.627   0.15915608 
  120800    294.74939   -1009.9611    149993.77   -47429.419     4047.673   -51477.092   0.15996767 
  121000    297.45478   -1031.3538    149955.05   -47415.289    4084.8251   -51500.114   0.16401874 
  121200    290.53619   -905.05855    149879.03   -47414.107    3989.8149   -51403.922   0.16241247 
  121400    290.39381   -1041.1369    149955.63   -47411.893    3987.8597   -51399.753   0.16456499 
  121600    297.19771   -1038.7396    150013.13   -47401.213    4081.2949   -51482.508   0.15911219 
  121800    295.97397   -971.73171    149912.79   -47400.485    4064.4898   -51464.975   0.16158808 
  122000     293.4282   -913.16184    149867.74   -47377.862    4029.5297   -51407.392   0.15941755 
  122200    297.38159   -1010.5585    149997.04   -47343.324      4083.82   -51427.144   0.15471177 
  122400    295.14643   -1013.4665    150076.79    -47296.26    4053.1254   -51349.386   0.16186786 
  122600    300.50299   -994.93487    149979.74   -47217.935    4126.6849    -51344.62    0.1720034 
  122800      302.056   -945.07959    149934.24   -47218.805    4148.0117   -51366.817   0.16063767 
  123000    302.88796   -1037.3613    150044.72   -47265.094    4159.4367    -51424.53   0.15905156 
  123200    299.77855   -1081.2765     150077.1   -47288.068    4116.7365   -51404.805   0.16729788 
  123400    295.19127   -1006.4889    149938.87     -47375.8    4053.7413   -51429.541   0.16095334 
  123600    295.53165   -911.94178    149906.57    -47323.15    4058.4155   -51381.566   0.15791243 
  123800    298.91551    -1066.709    150065.18   -47344.614    4104.8847   -51449.499   0.16352325 
  124000    293.95027   -1086.2961    150059.72   -47326.549    4036.6992   -51363.248   0.17272544 
  124200     298.1733   -908.76077    149874.15   -47312.295    4094.6923   -51406.987    0.1596846 
  124400    297.71575   -911.45516    149906.84   -47326.304    4088.4089   -51414.713   0.15268493 
  124600     294.0685   -1121.0135    150107.11   -47341.394    4038.3226   -51379.717   0.17128486 
  124800    292.76042   -1047.3442    150021.06   -47346.955    4020.3594   -51367.314   0.16618254 
  125000    298.29331   -871.83715    149810.37   -47358.732    4096.3403   -51455.073   0.15637434 
  125200    289.89748   -1006.8565    149924.63   -47346.686    3981.0438    -51327.73   0.16408923 
  125400    293.40029   -1176.0304    150124.61   -47413.532    4029.1465   -51442.679   0.16402914 
  125600    299.91174   -978.55773    149938.89   -47409.872    4118.5656   -51528.438   0.15650083 
  125800    297.77274    -820.5781    149734.04   -47403.722    4089.1915   -51492.913    0.1537186 
  126000    295.18592   -1018.1525    149989.55   -47366.819    4053.6678   -51420.487   0.16383792 
  126200    290.14519   -1147.3361    150202.28   -47342.299    3984.4455   -51326.744   0.17084649 
  126400    292.86554   -950.32616    149930.21   -47376.395     4021.803   -51398.198   0.15940321 
  126600    294.19007   -839.24976    149732.52   -47406.202    4039.9921   -51446.194   0.15444768 
  126800    295.96879   -1000.6023    150008.83   -47373.498    4064.4186   -51437.917   0.15393321 
  127000    297.09428   -1181.1608    150192.31   -47387.922    4079.8745   -51467.796   0.16287087 
  127200    292.46771   -952.51929    149844.79   -47427.516    4016.3397   -51443.855   0.15966209 
  127400    293.09493   -858.22953     149708.8   -47428.878    4024.9531   -51453.832   0.15536254 
  127600    294.63267   -1065.3451    150100.61   -47417.262    4046.0702   -51463.332   0.15788134 
  127800    293.38388   -1194.8794    150193.21   -47403.772    4028.9211   -51432.693   0.16697737 
  128000     292.8967   -917.67323    149730.55   -47408.277    4022.2309   -51430.508   0.16426903 
  128200     295.4991   -791.56818    149690.96   -47373.117    4057.9685   -51431.085   0.16154841 
  128400    292.51949   -1183.2063     150217.8   -47392.972    4017.0508   -51410.022   0.16694479 
  128600    291.60936   -1190.5665    150204.79   -47424.674    4004.5523   -51429.226   0.16339122 
  128800    293.61154   -734.70373    149600.32   -47469.847    4032.0474   -51501.894   0.15003031 
  129000    293.80491   -809.51149    149651.49    -47505.06     4034.703   -51539.763   0.15306904 
  129200    292.79641   -1271.8184    150253.19   -47452.027    4020.8536   -51472.881    0.1665169 
  129400    296.72095   -1169.2331    150146.82   -47453.414    4074.7477   -51528.162   0.15885524 
  129600    290.45484   -742.51265    149572.23   -47460.262    3988.6977    -51448.96   0.15653301 
  129800    287.25623   -917.78325    149790.11    -47470.31    3944.7725   -51415.082   0.16491853 
  130000    293.28899   -1278.2571    150331.63   -47472.118    4027.6179   -51499.736   0.16392255 
  130200    296.58091   -1050.9762    150036.09   -47496.839    4072.8247   -51569.664   0.15711798 
  130400    293.92738   -688.00542       149540   -47486.221    4036.3848   -51522.605   0.15310541 
  130600    293.17213   -972.94346    149911.24   -47437.616    4026.0133   -51463.629   0.16221323 
  130800    293.93351   -1305.8711    150363.44   -47452.354    4036.4689   -51488.823   0.16292578 
  131000     292.9945   -1006.6474    149962.62   -47478.472    4023.5738   -51502.046   0.15551271 
  131200    297.77127   -713.02865    149582.51   -47457.552    4089.1714   -51546.723   0.15407451 
  131400    298.22238    -1060.094    150004.92   -47453.143    4095.3663   -51548.509   0.15723105 
  131600    291.79567    -1231.681    150319.99    -47440.02    4007.1108   -51447.131    0.1678047 
  131800    295.10171    -989.5459    149908.52   -47417.145    4052.5114   -51469.656   0.16431052 
  132000    298.46451   -710.07326    149638.68   -47364.536    4098.6913   -51463.227   0.15897219 
  132200    294.40289   -1065.8689    150080.87    -47367.36    4042.9148   -51410.275   0.16177817 
  132400    292.51428   -1272.6034    150325.01   -47365.564    4016.9792   -51382.544    0.1642191 
  132600    292.42046   -919.49713    149865.38   -47348.683    4015.6909   -51364.374   0.16773235 
  132800    299.26078    -742.8306    149701.16    -47321.68    4109.6262   -51431.307   0.16093035 
  133000    299.16579   -1113.0695    150185.47   -47309.266    4108.3216   -51417.588   0.16219614 
  133200    302.78001   -1219.3157       150285   -47254.066    4157.9544    -51412.02   0.16702508 
  133400    296.33019   -831.21949    149806.83   -47246.021    4069.3815   -51315.402   0.16354517 
  133600    299.41798   -838.19812    149794.47   -47260.855    4111.7849    -51372.64   0.16636121 
  133800    295.42269   -1195.4113    150287.49    -47274.05    4056.9193   -51330.969   0.17182384 
  134000    304.91112   -1132.3269    150230.22   -47223.807      4187.22   -51411.027   0.16172594 
  134200    300.45026    -786.5311    149752.89   -47244.938    4125.9608   -51370.898   0.16232834 
  134400    299.64017   -874.85764    149857.36   -47242.283    4114.8362   -51357.119   0.16555392 
  134600    303.92189   -1195.6145    150277.13   -47253.204    4173.6353   -51426.839   0.16207178 
  134800    295.65434   -1106.7564    150111.99   -47299.113    4060.1004   -51359.213   0.16536101 
  135000    294.10495   -824.56141    149719.96   -47360.136    4038.8233   -51398.959   0.16132327 
  135200    293.89428   -971.98879    149907.19   -47369.188    4035.9301   -51405.118    0.1653779 
  135400    295.06045    -1203.592    150229.96   -47385.308    4051.9447   -51437.253   0.16337395 
  135600    299.29086   -1013.0417    149989.77   -47351.428    4110.0393   -51461.467   0.15658907 
  135800    298.83831   -807.96583    149735.29   -47428.736    4103.8246   -51532.561   0.15732548 
  136000    294.36631   -1021.3652    149968.57   -47458.357    4042.4124   -51500.769   0.15830827 
  136200    295.55758   -1151.7348    150144.71    -47466.43    4058.7717   -51525.202   0.16109738 
  136400    293.86998    -996.8863    149903.91   -47422.092    4035.5966   -51457.688   0.16375727 
  136600    296.03957   -873.00175    149787.57   -47366.141    4065.3907   -51431.531   0.16395361 
  136800    296.57392   -1032.0078    150011.78   -47372.744    4072.7287   -51445.472   0.15724078 
  137000    294.65068   -1097.9962    150067.83   -47375.991    4046.3175   -51422.309   0.16054607 
  137200    297.14687   -926.02863    149864.28   -47411.673    4080.5967    -51492.27   0.16449978 
  137400     297.0166   -902.68333    149852.94   -47367.853    4078.8077    -51446.66   0.16492274 
  137600    295.94486   -1050.1033    150050.12   -47356.935      4064.09   -51421.025    0.1621807 
  137800    295.98413    -1058.606    150072.38   -47328.776    4064.6293   -51393.406   0.16103727 
  138000    297.79499   -927.63773    149899.32   -47328.908    4089.4971   -51418.405   0.16274976 
  138200    292.74614   -967.58372    149885.24   -47380.674    4020.1633   -51400.837   0.16695466 
  138400    297.97277   -1036.9037    150026.66   -47363.761    4091.9385     -51455.7   0.16421174 
  138600    292.31228   -1054.2625    150023.49   -47377.062    4014.2053   -51391.267   0.16428235 
  138800    296.83036   -914.87227    149918.06   -47328.009    4076.2502   -51404.259   0.16145634 
  139000    299.03496   -1002.5733    149977.45   -47315.494    4106.5251   -51422.019   0.16569415 
  139200    292.83246   -1027.2346    150063.23   -47314.739    4021.3487   -51336.087   0.16695632 
  139400    294.36093   -1004.3984    150010.03   -47342.718    4042.3385   -51385.056   0.16399538 
  139600    297.08379   -956.46132    149936.86   -47325.757    4079.7305   -51405.487   0.16079735 
  139800    298.15716   -951.00689    149998.59   -47285.653    4094.4706   -51380.123    0.1621819 
  140000    299.00487   -1046.9328    150095.39   -47249.556    4106.1118   -51355.668   0.17081534 
  140200    297.44983   -988.67148    150034.25   -47294.149    4084.7571   -51378.906   0.16538837 
  140400    302.96338   -926.07445     149940.8   -47322.568    4160.4724    -51483.04   0.15699573 
  140600    299.06672    -981.7554    150006.21   -47321.093    4106.9613   -51428.054   0.16125181 
  140800    298.39254   -1047.9578    150074.59   -47313.178     4097.703   -51410.881   0.16409837 
  141000    294.04798   -1017.8041    149988.88   -47351.854    4038.0409   -51389.895   0.16674293 
  141200    298.62766   -912.50682    149932.64   -47303.012    4100.9318   -51403.944    0.1613375 
  141400    299.89607   -1019.4823    150075.71   -47306.663    4118.3503   -51425.013   0.15419622 
  141600    298.22141   -1110.4097    150147.65   -47288.972     4095.353   -51384.325   0.16150977 
  141800    298.05735   -936.24914    149960.51   -47346.396    4093.0999   -51439.496   0.16247773 
  142000    300.09859   -901.94419    149884.61   -47364.239    4121.1315    -51485.37   0.16057332 
  142200    303.08001   -1044.3473    150108.69   -47358.312    4162.0741   -51520.386   0.16049079 
  142400    291.54375   -1132.3583    150174.02   -47358.332    4003.6513   -51361.983   0.17063349 
  142600    294.76221    -922.7552    149884.01   -47352.799    4047.8491   -51400.648   0.16512454 
  142800    298.81594   -889.76823    149843.02   -47358.974    4103.5173   -51462.491   0.15842587 
  143000    292.71804   -1128.4027    150166.71   -47416.855    4019.7773   -51436.632   0.16290674 
  143200    297.82297   -1118.5714    150150.31   -47384.117    4089.8814   -51473.999   0.16505945 
  143400     294.3151   -860.10911    149764.24   -47353.401    4041.7092   -51395.111   0.16026418 
  143600    296.06928   -895.67504     149834.2   -47341.125    4065.7986   -51406.923   0.16221546 
  143800    296.17931   -1232.6265    150255.96   -47346.766    4067.3095   -51414.076   0.17307769 
  144000     288.8927   -1100.7087    150090.26   -47335.938    3967.2456   -51303.183   0.16925128 
  144200    299.71237   -731.86574    149606.92   -47316.732    4115.8276   -51432.559   0.15796232 
  144400     297.5699   -937.48251    149870.05   -47316.023    4086.4059   -51402.429   0.16557081 
  144600    299.27482   -1333.0622    150390.24   -47278.988     4109.819   -51388.807   0.17458533 
  144800    299.18198   -1002.3033    149988.45   -47253.709    4108.5441   -51362.253    0.1663044 
  145000    297.43679   -613.33199    149481.38   -47305.256    4084.5781   -51389.834   0.15209765 
  145200    295.34176   -1016.1514    149972.62    -47330.95    4055.8078   -51386.758   0.16074854 
  145400     298.6004   -1316.7799    150451.16   -47326.451    4100.5574   -51427.008    0.1618238 
  145600    296.48015   -952.74347    149903.43   -47353.444    4071.4409   -51424.885   0.15988328 
  145800    298.46573   -642.38804    149464.31   -47376.108    4098.7081   -51474.816   0.15888666 
  146000    297.82137   -1056.9854     150073.8   -47355.714    4089.8594   -51445.573    0.1620164 
  146200    294.51073   -1376.8359    150446.87   -47379.953    4044.3956   -51424.349   0.16888087 
  146400    295.15847   -859.04298    149777.39   -47341.938    4053.2908   -51395.229    0.1633959 
  146600    296.55906   -643.23587    149512.41   -47308.399    4072.5246   -51380.924   0.16482396 
  146800    297.26008    -1195.835    150213.96   -47253.869    4082.1514    -51336.02   0.17213812 
  147000    296.51211   -1340.2623    150402.31   -47263.814    4071.8798   -51335.694    0.1708571 
  147200    297.93634   -830.68899    149723.16   -47240.322    4091.4382    -51331.76   0.16091369 
  147400    298.00137   -763.10992     149621.8   -47309.954    4092.3311   -51402.285   0.15543668 
  147600    304.13498   -1216.0508    150240.75   -47314.627    4176.5615   -51491.188   0.16450991 
  147800    298.15102   -1191.8367    150205.14   -47356.842    4094.3863   -51451.228     0.164214 
  148000    296.50563   -776.82567    149616.56   -47328.634    4071.7908   -51400.425   0.16075536 
  148200     294.9395    -844.7708    149719.27   -47371.071    4050.2838   -51421.355   0.15945861 
  148400    294.69761   -1201.6905    150236.05   -47413.293    4046.9621   -51460.255    0.1644097 
  148600    298.39383   -1095.0553    150080.82   -47384.759    4097.7206    -51482.48   0.16121875 
  148800    296.78983   -792.61162    149679.38   -47394.695    4075.6936   -51470.389   0.15490394 
  149000    293.86805   -940.37605    149887.42    -47398.67    4035.5699    -51434.24    0.1581162 
  149200    297.27877   -1174.2668    150212.69   -47400.605     4082.408   -51483.013   0.15772239 
  149400    287.88117   -1020.8153     149950.4   -47425.669    3953.3546   -51379.024   0.15586197 
  149600    294.75053   -837.66228    149686.56   -47430.624    4047.6887   -51478.313   0.15737531 
  149800    293.16014   -1028.9235    149958.74    -47413.38    4025.8485   -51439.228   0.16220691 
  150000    296.37791   -1178.2603    150160.44   -47367.651    4070.0369   -51437.688   0.16143313 
  150200    298.25082   -981.07673    149904.59    -47316.29    4095.7568   -51412.047   0.16121251 
  150400    299.37814   -854.54839    149754.12   -47288.236    4111.2378   -51399.474   0.16624729 
  150600    293.88484    -1062.794     150003.2   -47336.863    4035.8006   -51372.663   0.16894121 
  150800    293.95652   -1164.7999    150103.95   -47297.009    4036.7849   -51333.794   0.16637382 
  151000    297.33715   -934.66643    149873.46   -47340.476    4083.2098   -51423.685   0.16041278 
  151200    297.44782    -886.5963    149821.22   -47329.002    4084.7295   -51413.731   0.16277079 
  151400    302.41983   -1048.2499    150034.43   -47237.668    4153.0081   -51390.676   0.16457758 
  151600    305.91813   -1039.9385    150093.46   -47222.334    4201.0488   -51423.382   0.15909681 
  151800     302.4496    -976.6506    149935.56   -47236.736    4153.4169   -51390.153   0.16056238 
  152000    293.77329   -975.75522    149887.26   -47238.797    4034.2687   -51273.066   0.17109657 
  152200    303.17695   -1043.8318    150000.72    -47258.81    4163.4054   -51422.215   0.16836155 
  152400    298.54401   -1058.2398    150032.57   -47307.533    4099.7831   -51407.316   0.17131243 
  152600    299.57495   -968.18056    149937.07   -47276.983    4113.9405   -51390.924   0.16393415 
  152800    302.28402   -914.73645    149917.83   -47208.653    4151.1431   -51359.796   0.15995732 
  153000    299.00392   -1039.2204    150021.37   -47278.427    4106.0988   -51384.526   0.16693255 
  153200    302.49532   -1024.1599    150025.71   -47217.622    4154.0448   -51371.667   0.16738082 
  153400    298.11236   -988.20493     149963.3   -47274.253    4093.8554   -51368.108   0.16503565 
  153600    295.83721    -986.2977    149948.49   -47301.505    4062.6117   -51364.117   0.15823117 
  153800    298.44306   -1030.2581    149986.55   -47330.748    4098.3968   -51429.145   0.15774362 
  154000     294.5975   -1049.3409    150014.01   -47345.675    4045.5872   -51391.263   0.16295565 
  154200     297.9512   -982.46485    149978.14   -47290.646    4091.6422   -51382.289   0.16319838 
  154400    299.94842   -1011.5699    149970.85   -47285.144    4119.0692   -51404.214   0.16716164 
  154600    294.19475   -1028.2972    150003.72    -47307.08    4040.0564   -51347.136   0.16426304 
  154800    296.71086   -1010.0955    149998.94   -47323.297    4074.6091   -51397.906    0.1600006 
  155000    296.27179   -1032.4768    149967.78   -47311.623    4068.5796   -51380.203   0.16773744 
[...]
  163200    293.71477   -1206.1447    150222.91    -47381.15    4033.4651   -51414.615    0.1608019 
  163400    294.29096   -888.72042    149776.57   -47423.128    4041.3776   -51464.506   0.15480897 
  163600    294.06682   -757.63606    149685.67   -47372.311    4038.2996   -51410.611   0.15630808 
  163800    294.86594    -1147.233    150178.54   -47425.613    4049.2736   -51474.886   0.15209715 
  164000    295.79379    -1180.327    150169.22   -47443.183    4062.0154   -51505.198   0.14870422 
  164200    293.31181   -771.49604    149641.23   -47446.714    4027.9314   -51474.645   0.15333834 
  164400    297.92839   -830.51922    149763.13   -47387.429     4091.329   -51478.758   0.15937386 
  164600    298.28299   -1270.6065    150356.86   -47357.414    4096.1986   -51453.612    0.1585089 
  164800     297.2631   -1149.2514    150152.26   -47398.696    4082.1928   -51480.889   0.15315812 
  165000    299.56783   -664.37013    149534.54   -47382.401    4113.8427   -51496.244   0.15376727 
  165200     301.4299   -847.52437    149790.64   -47375.855    4139.4139   -51515.269   0.14951889 
  165400    290.25121   -1347.0888    150353.46   -47395.014    3985.9014   -51380.915   0.16514069 
  165600    296.53733    -1039.208    149985.29   -47337.296    4072.2261   -51409.523   0.15824515 
  165800    294.97246   -688.64572     149497.7   -47369.424    4050.7364    -51420.16   0.15132898 
  166000    300.13608   -967.02455    149942.84   -47322.573    4121.6463   -51444.219   0.14732339 
  166200    294.60026   -1300.5601    150373.06    -47345.38    4045.6251   -51391.005   0.16009626 
  166400    296.79105   -949.83607    149894.65   -47348.318    4075.7104   -51424.029   0.16186525 
  166600    295.82465   -686.55767    149549.52   -47347.777    4062.4392   -51410.216   0.15183173 
  166800    294.71441   -1079.7223    150081.18   -47403.371    4047.1927   -51450.564   0.15295081 
  167000    289.11828   -1268.7718    150333.02   -47398.433    3970.3433   -51368.776   0.16409535 
  167200    297.09475   -869.94754       149781   -47355.083     4079.881   -51434.964   0.15791206 
  167400     294.7056    -786.5196    149631.27   -47404.252    4047.0717   -51451.324   0.15480491 
  167600    293.10025   -1146.3367     150142.8   -47377.433    4025.0261   -51402.459   0.16233044 
  167800    292.78157   -1192.8812    150189.69   -47446.176    4020.6498   -51466.826   0.16067077 
  168000    295.82962   -881.11747    149723.83   -47441.521    4062.5074   -51504.029   0.15704311 
  168200    291.76526   -898.20545    149748.78   -47438.692    4006.6933   -51445.386   0.15970664 
  168400    293.96034    -1151.054    150116.43   -47388.601    4036.8374   -51425.439   0.16158189 
  168600    289.52588   -1102.1115       150069   -47398.876    3975.9408   -51374.817   0.16017827 
  168800    295.30708   -912.46262    149790.85   -47445.441    4055.3317   -51500.773   0.15733869 
  169000    291.08017   -936.28358    149810.45   -47429.024    3997.2852   -51426.309   0.16271941 
  169200    290.33231   -1056.6692    150011.61    -47394.73    3987.0152   -51381.745   0.15694454 
  169400    295.66135   -1009.4168    150022.04   -47421.553    4060.1967   -51481.749   0.15171676 
  169600    293.09173    -939.5458    149886.13   -47433.435    4024.9091   -51458.344   0.15786034 
  169800    291.70949   -960.34778    149897.33   -47439.444    4005.9274   -51445.371   0.15339937 
  170000    297.83917   -1072.4096     149978.9    -47479.17    4090.1038   -51569.274   0.15381995 
  170200    292.11455   -978.46386    149916.31   -47488.505    4011.4899   -51499.995   0.15802222 
  170400    291.73351   -948.44973    149855.17   -47457.972    4006.2572   -51464.229   0.15239172 
  170600     290.9531   -1007.4955    149944.99   -47438.057    3995.5402   -51433.597   0.15032221 
  170800    286.44046   -1095.4659    149997.15   -47460.884    3933.5699   -51394.454   0.16195781 
  171000     295.8625   -977.54275    149873.39   -47463.407     4062.959   -51526.366    0.1662661 
  171200    294.21043   -979.77526    149842.57   -47491.411    4040.2718   -51531.683   0.15478161 
  171400    293.75344   -1031.7628    149967.62    -47483.72    4033.9961   -51517.716   0.15084709 
  171600    292.54486   -1043.0828    149980.79   -47447.168    4017.3991   -51464.567     0.162285 
  171800    293.54834   -984.65681    149867.53   -47426.959    4031.1795   -51458.138   0.16177043 
  172000     296.1412   -942.52013    149874.04   -47432.863    4066.7863   -51499.649   0.15331819 
  172200    294.17829   -1054.2264    149984.78   -47437.251    4039.8304   -51477.082   0.15971435 
  172400    294.90914   -1036.5956    149939.49   -47405.392    4049.8668   -51455.259   0.16447279 
  172600    293.90244   -966.07596     149879.5   -47390.778    4036.0422    -51426.82    0.1562147 
  172800    292.98542   -1007.3537     149963.6   -47396.967    4023.4492   -51420.416   0.15634125 
  173000    294.78334   -1062.1394    149997.85    -47415.57    4048.1393   -51463.709   0.16102765 
  173200     293.0391   -967.30555    149913.78   -47456.046    4024.1863   -51480.232     0.159553 
  173400    291.86275   -1006.5929    149909.56   -47442.751    4008.0321   -51450.783   0.15796151 
  173600    298.48446   -1046.9114    149996.72   -47391.294    4098.9653   -51490.259   0.16205718 
  173800    295.30071   -1067.8536    149979.24   -47392.023    4055.2441   -51447.267   0.16133097 
  174000    295.92401   -924.74615    149870.38    -47356.31    4063.8037   -51420.114   0.15907695 
  174200    296.96448   -961.00043       149952   -47349.249     4078.092   -51427.341   0.15609146 
  174400    300.21159   -1070.8032    150116.45   -47329.905    4122.6832   -51452.589   0.15678131 
  174600    295.25024   -1014.9695    150012.41    -47342.46     4054.551   -51397.011   0.15959485 
  174800    297.28894   -878.30165    149831.64   -47307.505    4082.5477   -51390.052   0.15468537 
  175000     293.8545   -939.05547    149964.93   -47354.484     4035.384   -51389.868   0.15617736 
  175200    293.61707   -1169.4158    150148.09   -47348.354    4032.1234   -51380.477   0.16087971 
  175400    288.49757   -997.11347     149936.5   -47361.167    3961.8194   -51322.986   0.16879766 
  175600    295.75892   -881.90794    149752.49   -47376.324    4061.5365    -51437.86   0.16932238 
  175800    293.95513   -1030.9176    149988.32   -47356.266    4036.7658   -51393.032   0.16241666 
  176000    294.71093   -1157.5378     150156.2   -47339.444    4047.1449   -51386.589   0.16545325 
  176200    299.60781   -893.36146    149837.68   -47292.699    4114.3917    -51407.09   0.16218669 
  176400    296.83037   -821.59048    149736.05   -47334.483    4076.2503   -51410.734   0.15675571 
  176600    296.60967   -1079.7277     150110.2   -47308.611    4073.2195   -51381.831   0.15563511 
  176800    293.84956   -1149.0247     150180.3   -47313.933    4035.3161   -51349.249   0.16522182 
  177000    296.77834   -840.09411    149810.38   -47336.898    4075.5359   -51412.434   0.15979772 
  177200     299.2469   -843.37142    149788.25   -47351.919    4109.4355   -51461.355    0.1498333 
  177400    295.71655   -1142.6978     150198.4   -47438.038    4060.9547   -51498.993   0.15578881 
  177600    295.88984   -1153.6775    150152.38    -47403.06    4063.3344   -51466.394   0.17177553 
  177800    297.40773   -774.16838    149706.61   -47386.277     4084.179   -51470.456   0.15676104 
  178000    292.92426   -905.57003    149839.97   -47341.211    4022.6093    -51363.82   0.15546716 
  178200     293.8501   -1234.4832    150332.25    -47369.92    4035.3235   -51405.244   0.16200297 
  178400    291.74825   -1111.2038    150128.45   -47347.085    4006.4596   -51353.545   0.16507256 
  178600    293.53691   -762.07795    149616.18     -47371.1    4031.0225   -51402.123   0.14915237 
  178800    300.60583   -934.34339    149890.03   -47338.172    4128.0971   -51466.269   0.14989048 
  179000    293.06749   -1286.4962    150420.66   -47301.822    4024.5763   -51326.398   0.16740391 
  179200    298.04865   -1050.2249    150105.79   -47331.968    4092.9805   -51424.949   0.15514758 
  179400    294.96662    -700.5869    149584.84   -47311.534    4050.6562    -51362.19   0.15319409 
  179600    297.41012   -968.99244    149959.41    -47315.95    4084.2119   -51400.162   0.16568042 
  179800    295.56715   -1349.2841    150462.64   -47335.958    4058.9031   -51394.861   0.16798098 
  180000    299.17651   -1026.6438    150017.35   -47309.723    4108.4689   -51418.192   0.16198008 
  180200    302.45202   -631.30843    149575.11   -47276.636    4153.4502   -51430.087   0.15258407 
  180400    301.85719   -1008.4242    150058.21   -47226.237    4145.2816   -51371.519   0.15878504 
  180600     295.6165   -1301.6687    150426.54   -47309.306    4059.5808   -51368.887   0.16085583 
  180800    296.37861   -948.87264    149898.64    -47281.43    4070.0464   -51351.477   0.15333593 
  181000    296.83933   -714.71534     149622.8   -47327.211    4076.3734   -51403.585   0.15454632 
  181200    296.60724   -1107.0929    150143.43   -47305.292    4073.1862   -51378.479   0.16197463 
  181400    295.48176   -1229.0678    150309.85   -47340.646    4057.7304   -51398.377   0.16232247 
  181600    293.55187   -900.15218    149786.02   -47369.463     4031.228   -51400.691   0.15981963 
  181800    298.21055   -789.44663    149715.27   -47341.719    4095.2038   -51436.923   0.15414842 
  182000    296.22936   -1124.7094    150198.38   -47342.767    4067.9969   -51410.764   0.16160948 
  182200    299.91388   -1175.1985    150225.81   -47359.202    4118.5949   -51477.797   0.16633903 
  182400    296.56224   -872.93765    149819.59    -47365.83    4072.5682   -51438.398   0.15271676 
  182600    297.66384   -905.27066    149858.18   -47329.076     4087.696   -51416.772   0.15090159 
  182800    298.74237   -1131.0919     150221.7   -47287.695    4102.5071   -51390.203   0.15824602 
  183000    298.04678   -1077.8614    150137.01    -47289.34    4092.9548   -51382.295   0.15990518 
  183200    300.84386   -828.47525    149799.49   -47276.124    4131.3659    -51407.49   0.15588602 
  183400    301.61293   -904.38669    149933.42   -47284.583    4141.9273    -51426.51   0.15704257 
  183600    296.01519   -1152.0276    150238.94   -47309.164    4065.0558    -51374.22   0.16565725 
  183800    298.54414   -1092.2946    150069.32    -47346.47    4099.7849   -51446.255   0.15753747 
  184000    298.94124   -862.07278    149802.81   -47362.839     4105.238   -51468.077   0.15721597 
  184200    297.08055   -1007.8693    149959.82    -47404.03    4079.6859   -51483.716   0.16891139 
  184400    292.99435    -1134.347    150137.36   -47410.257    4023.5718   -51433.829   0.16396165 
  184600    293.15477   -1011.7179    149952.71   -47421.464    4025.7748   -51447.239   0.14980155 
  184800    298.02203   -863.97776    149818.84   -47410.737    4092.6149   -51503.351   0.14666555 
  185000    295.91114   -1043.4986    150034.13   -47399.029    4063.6269   -51462.656   0.16064638 
  185200    290.88125   -1147.4365    150111.53   -47455.243    3994.5535   -51449.797   0.15307813 
  185400    296.57187   -924.54039    149876.34   -47436.232    4072.7005   -51508.933   0.14864733 
  185600    295.17557   -923.22243    149883.82   -47440.594    4053.5256   -51494.119   0.16016129 
  185800    293.99042   -1099.4082    150134.31   -47380.233    4037.2505   -51417.484   0.15599795 
  186000    297.49244   -1092.4577    150140.05   -47367.572    4085.3423   -51452.914   0.15491928 
  186200    296.37203   -956.29599    149879.76   -47361.898    4069.9561   -51431.854    0.1631556 
  186400    296.29473   -932.02823    149909.34   -47310.133    4068.8947   -51379.027   0.16352652 
  186600    298.61192   -1102.2769     150165.6   -47341.366    4100.7157   -51442.082   0.15608761 
  186800    300.70567    -1080.986    150080.73   -47368.361    4129.4683   -51497.829    0.1538051 
  187000    297.94079   -878.19893    149807.08   -47342.135    4091.4993   -51433.634   0.15608103 
  187200    300.91994   -904.69717     149899.9   -47361.714    4132.4107   -51494.125   0.14894605 
  187400     298.7843   -1124.7516    150191.24    -47342.82    4103.0828   -51445.903   0.16071076 
  187600     292.6389   -1090.9199    150072.73   -47384.487    4018.6906   -51403.177   0.16459056 
  187800    297.20995   -865.86141       149779   -47377.806     4081.463   -51459.269   0.15932463 
  188000    297.76393   -929.97392     149922.1   -47348.835    4089.0706   -51437.906   0.15692386 
  188200    296.56837   -1148.4138    150215.93   -47334.776    4072.6523   -51407.428   0.16117245 
  188400    298.61834   -1019.1902    150046.88    -47325.01    4100.8039   -51425.814   0.15548782 
  188600    300.13143    -831.7074    149784.66   -47334.656    4121.5825   -51456.239   0.16166819 
  188800    294.54482   -1000.7267    149956.62   -47345.715    4044.8637   -51390.578   0.16564945 
  189000    295.96981   -1188.1482    150217.45   -47333.279    4064.4326   -51397.712   0.15588492 
  189200    300.31331   -989.65923    149997.75   -47340.781    4124.0802   -51464.861   0.15110506 
  189400    297.09602   -814.37543    149738.03   -47304.777    4079.8985   -51384.675   0.15869487 
  189600    294.18186   -1021.4761    150013.13   -47315.767    4039.8795   -51355.646    0.1674821 
  189800    299.47214   -1175.1865    150251.94   -47351.807    4112.5286   -51464.335   0.16048952 
  190000     297.3906   -977.71065    149912.71    -47389.24    4083.9437   -51473.184   0.16166848 
  190200    296.80356   -763.68469    149675.03   -47366.341    4075.8822   -51442.223   0.16101736 
  190400    297.84489   -1032.0448     150086.6   -47359.644    4090.1823   -51449.826   0.14836629 
  190600    298.71383    -1193.017    150308.94   -47297.292    4102.1151   -51399.407   0.15993165 
  190800    295.28263   -884.97891    149867.72   -47337.264    4054.9958    -51392.26   0.16699161 
  191000    294.49404   -805.36068    149693.07   -47354.026    4044.1665   -51398.193   0.16290305 
  191200    295.11471   -1089.2891    150142.17   -47341.106    4052.6899   -51393.796   0.15365286 
  191400    296.48997   -1198.0615    150244.23    -47363.69    4071.5757   -51435.266   0.15894853 
  191600    296.10893   -845.62533    149764.44   -47324.996     4066.343   -51391.339   0.16520487 
  191800    295.19563   -840.81534     149741.8   -47361.061    4053.8012   -51414.862   0.16018827 
  192000    295.52089   -1186.1093    150202.68   -47354.752    4058.2677    -51413.02   0.16087021 
  192200    294.54842    -1121.157    150142.97   -47323.361    4044.9132   -51368.274   0.17056342 
  192400     298.7491   -778.05585    149657.59    -47338.33    4102.5995    -51440.93    0.1582243 
  192600    298.41335   -887.39854    149768.21   -47368.673    4097.9887   -51466.662   0.15397772 
  192800    296.99054   -1249.6115     150208.9   -47336.491    4078.4498   -51414.941   0.16717435 
  193000    299.66166   -1076.1744    150049.07     -47328.5    4115.1313   -51443.632   0.16530429 
  193200      304.705   -778.04895    149661.86   -47285.757    4184.3895   -51470.146   0.15794897 
  193400    298.64676   -938.30447    149882.15    -47284.92    4101.1941   -51386.114   0.15678045 
  193600    302.33413   -1198.8579    150292.63    -47291.05    4151.8312   -51442.882   0.16175053 
  193800    294.54889   -1033.1454    150028.69   -47343.739    4044.9197   -51388.659   0.15940841 
  194000    298.85127   -737.29918    149615.47   -47376.084    4104.0025   -51480.087   0.15660534 
  194200    296.52169   -943.36056    149921.42     -47357.6    4072.0113   -51429.612   0.16490107 
  194400    293.11412   -1299.1907    150319.81   -47330.867    4025.2165   -51356.084   0.16852775 
  194600    292.30238   -998.69096    149923.25   -47362.062    4014.0693   -51376.131   0.15760625 
  194800    295.00205    -672.5838    149537.33   -47352.463    4051.1428   -51403.606   0.15443815 
  195000    299.86791    -1032.434    150025.68   -47329.419    4117.9636   -51447.382   0.16101798 
  195200     295.3999   -1374.1822     150412.4   -47305.596    4056.6063   -51362.203   0.17290048 
  195400    299.31494   -905.32148    149821.93   -47316.321    4110.3699   -51426.691   0.16439127 
  195600    292.01904   -670.44654     149465.5   -47324.995    4010.1783   -51335.173   0.16202695 
  195800    295.02971   -1187.9419    150149.11   -47360.591    4051.5226   -51412.114   0.16184455 
  196000    294.70551   -1343.0057    150410.48   -47322.458    4047.0705   -51369.528   0.17415278 
  196200    291.91289   -744.72217    149616.93   -47320.256    4008.7207   -51328.976   0.17135645 
  196400    298.65802   -619.64159    149463.13   -47323.415    4101.3487   -51424.763   0.15833225 
  196600    293.68793   -1308.0469    150340.42   -47377.109    4033.0964   -51410.205   0.16583364 
  196800    292.68615   -1300.1803    150340.06   -47366.048    4019.3394   -51385.388   0.17053599 
  197000     294.8359   -698.08725     149419.5    -47389.43    4048.8611   -51438.291   0.15838065 
  197200    297.78432    -697.3249    149508.84   -47447.612    4089.3506   -51536.962   0.15347371 
  197400    291.28212   -1400.5396    150422.52   -47389.729    4000.0585   -51389.787   0.17196868 
  197600    298.66023   -1250.4141    150232.58   -47305.062    4101.3791   -51406.441   0.16928392 
  197800    303.35857   -621.98847    149450.38   -47303.347    4165.8994   -51469.246   0.15070084 
  198000    301.39502   -843.33474    149766.35   -47331.259    4138.9348   -51470.193   0.15638395 
  198200    295.82893   -1321.8982    150417.22   -47345.465     4062.498   -51407.963   0.17619554 
  198400     301.3092   -1060.5452    150038.78   -47278.911    4137.7563   -51416.668   0.16524496 
  198600     300.9687   -688.44104     149535.8   -47276.354    4133.0804   -51409.434   0.15493194 
  198800    298.90236   -998.49903    149932.81    -47305.55    4104.7041   -51410.254   0.16279041 
  199000    295.76193   -1293.9526    150279.67   -47305.657    4061.5779   -51367.235   0.17171761 
  199200    296.55638     -961.144    149882.91   -47306.161    4072.4878   -51378.649   0.15348213 
  199400    293.73156   -775.36373    149656.49   -47319.991    4033.6956   -51353.687   0.15662924 
  199600     296.2839   -1033.0606    149982.88   -47340.656    4068.7458   -51409.402   0.16871897 
  199800    294.32273   -1175.3688    150126.96   -47315.995    4041.8139   -51357.809   0.17192588 
  200000    295.42412   -977.86346    149824.85   -47340.203    4056.9389   -51397.142   0.16246291 
Loop time of 105.969 on 6 procs for 200000 steps with 4608 atoms

Performance: 815.332 ns/day, 0.029 hours/ns, 1887.342 timesteps/s
98.0% CPU use with 6 MPI tasks x no OpenMP threads

MPI task timing breakdown:
Section |  min time  |  avg time  |  max time  |%varavg| %total
---------------------------------------------------------------
Pair    | 74.591     | 75.08      | 75.377     |   2.8 | 70.85
Neigh   | 10.664     | 11.158     | 12.513     |  19.4 | 10.53
Comm    | 8.4302     | 9.7995     | 10.796     |  23.5 |  9.25
Output  | 3.0236     | 3.0246     | 3.0286     |   0.1 |  2.85
Modify  | 5.5905     | 5.7289     | 5.8282     |   3.1 |  5.41
Other   |            | 1.178      |            |       |  1.11

Nlocal:        768.000 ave         787 max         752 min
Histogram: 1 0 1 0 1 2 0 0 0 1
Nghost:        1389.50 ave        1403 max        1376 min
Histogram: 1 0 1 0 1 1 0 1 0 1
Neighs:        0.00000 ave           0 max           0 min
Histogram: 6 0 0 0 0 0 0 0 0 0
FullNghs:      21867.3 ave       22457 max       21375 min
Histogram: 1 0 1 0 1 2 0 0 0 1

Total # of neighbors = 131204
Ave neighs/atom = 28.473090
Neighbor list builds = 12866
Dangerous builds = 0
write_data		data.${NAME}
write_data		data.ice_297K_-1000atm_ML
System init for write_data ...
Total wall time: 0:02:36
