
# Import phase coexistance setup
#
read_data           ../data.ice_water_1atm
Reading data file ...
  orthogonal box = (-0.037551654 -0.031298218 -0.031298218) to (113.76774 57.301808 57.301808)
  3 by 1 by 2 MPI processor grid
  reading atoms ...
  11553 atoms
  reading velocities ...
  11553 velocities
  read_data CPU = 0.024 seconds

# Define potential
#
pair_style 	    sw
pair_coeff	    * * ../ML.sw mW
Reading sw potential file ../ML.sw with DATE: 2019-02-27

# Reset velocity/set timestep
#
velocity	    all create ${TEMP} 120598 rot yes dist gaussian
velocity	    all create 286 120598 rot yes dist gaussian
timestep	    10.0

# Define output
#
compute	            1 all msd
compute             2 all orientorder/atom nnn NULL degrees 2 4 12
thermo              100
thermo_style        custom step temp press vol etotal ke pe c_1[4]

# Neighbor lists
#
neigh_modify        delay 0 every 1 check yes

# Set fixes
#
fix                 1 all momentum 10 linear 1 1 1 rescale
fix                 2 all nph iso ${PRES} ${PRES} ${PCOUPL}
fix                 2 all nph iso 0 ${PRES} ${PCOUPL}
fix                 2 all nph iso 0 0 ${PCOUPL}
fix                 2 all nph iso 0 0 10000.0
fix                 3 all temp/csvr ${TEMP} ${TEMP} ${TCOUPL} 837492
fix                 3 all temp/csvr 286 ${TEMP} ${TCOUPL} 837492
fix                 3 all temp/csvr 286 286 ${TCOUPL} 837492
fix                 3 all temp/csvr 286 286 5000.0 837492

# Run longer equilibration 0.5 ns
#
dump 1 all atom 1000 eq.${NAME}.dump
dump 1 all atom 1000 eq.Tmelt_286K_AUTO.dump
run 50000
Neighbor list info ...
  update every 1 steps, delay 0 steps, check yes
  max neighbors/atom: 2000, page size: 100000
  master list distance cutoff = 6.0032907
  ghost atom cutoff = 6.0032907
  binsize = 3.0016454, bins = 38 20 20
  2 neighbor lists, perpetual/occasional/extra = 1 1 0
  (1) pair sw, perpetual
      attributes: full, newton on
      pair build: full/bin/atomonly
      stencil: full/bin/3d
      bin: standard
  (2) compute orientorder/atom, occasional, copy from (1)
      attributes: full, newton on
      pair build: copy
      stencil: none
      bin: none
Per MPI rank memory allocation (min/avg/max) = 4.643 | 4.644 | 4.646 Mbytes
Step Temp Press Volume TotEng KinEng PotEng c_1[4] 
       0          286   -107.95799    374087.66   -103842.22    9848.2149   -113690.44            0 
     100    350.52241   -404.99389    371752.02   -104326.46        12070   -116396.46    3.2297972 
     200    344.88255    108.16929       367532   -104839.62    11875.795   -116715.41    6.6128592 
     300    342.53232   -6.0079315    365509.72   -105162.38    11794.867   -116957.24    9.9264523 
     400    339.75121    178.20931    365048.55   -105671.42    11699.101   -117370.52    13.035418 
     500     336.4054    10.320612    364880.97   -106036.08     11583.89   -117619.97    15.975293 
     600    325.02047   -86.266333    364613.35   -106403.45    11191.858    -117595.3    18.790908 
     700    324.52072    42.289085    364050.53    -106690.5     11174.65   -117865.15    21.488045 
     800    320.53046    57.246079    362705.82   -106974.41    11037.248   -118011.66    23.944421 
     900    319.40904   -103.39069    361709.06   -107179.03    10998.632   -118177.66    26.396626 
    1000    314.12427   -44.634724    361535.42   -107400.06    10816.655   -118216.71    28.757341 
    1100    309.51526    246.21985    361685.51   -107665.01    10657.947   -118322.96    30.719339 
    1200    306.98578    -114.2178    362637.42   -107894.26    10570.846   -118465.11    32.787619 
    1300    307.12853   -252.39063     362888.3   -108112.91    10575.761   -118688.67    34.808601 
    1400    306.97985    81.894012    361875.03   -108261.17    10570.642   -118831.82    36.823717 
    1500    303.72897    28.852078    361573.35   -108404.73      10458.7   -118863.43    38.842171 
    1600    303.99784   -8.5114885    361900.32   -108545.55    10467.958   -119013.51    40.661675 
    1700    303.69121   -98.697629    361630.39    -108662.2      10457.4    -119119.6    42.397331 
    1800     298.6336    70.794509    360958.37   -108753.16    10283.244    -119036.4    43.783242 
    1900     300.1762    52.425953    360995.14   -108800.23    10336.363   -119136.59    45.658601 
    2000    296.81684   -42.782945    361208.18   -108834.21    10220.685    -119054.9     47.41382 
    2100    298.23591   -94.124496    360663.48   -108997.25     10269.55    -119266.8    49.044071 
    2200    298.36111    182.73755     360335.3   -109044.68    10273.861   -119318.54    50.612771 
    2300    297.93846   -102.50733    361077.75   -109076.79    10259.308    -119336.1    51.851782 
    2400    296.24186   -51.923604    360953.99   -109103.35    10200.886   -119304.23    53.177837 
    2500    299.49412    -24.16967    360258.86   -109117.84    10312.876   -119430.71    54.738968 
    2600    296.79745   -79.765809    359961.01   -109192.19    10220.018   -119412.21    56.113703 
    2700    293.96264    83.650623    360281.62   -109183.05    10122.403   -119305.45    57.711023 
    2800    298.08735     60.67924    360879.63   -109297.18    10264.435   -119561.61    59.052391 
    2900    293.56977   -22.907337    361634.07    -109429.5    10108.875   -119538.37     60.18941 
    3000    292.07875   -369.04165    362041.89   -109465.25    10057.532   -119522.78    61.590452 
    3100    295.39104    79.049055     361049.3   -109547.55    10171.589   -119719.14     63.18697 
    3200    294.26607    199.88205    360468.53   -109587.28    10132.851   -119720.13    64.698923 
    3300    295.87341   -92.498565    360481.23   -109580.43    10188.199   -119768.62    65.951332 
    3400    289.47128   -27.070263    360522.85   -109590.37     9967.746   -119558.11    67.229003 
    3500    292.81247   -104.33719    360934.86   -109668.42    10082.797   -119751.22    68.510349 
    3600    290.80954   -234.56298    361437.23   -109686.03    10013.828   -119699.86    69.628542 
    3700    289.27739    177.19225    360915.38   -109740.12    9961.0694   -119701.19    70.586076 
    3800    289.11635   -195.60231    360769.47   -109808.86    9955.5243   -119764.39    71.756372 
    3900    290.00389    -39.78442    360495.48   -109851.49    9986.0861   -119837.58     73.16125 
    4000    287.39113    52.641745    360479.58   -109834.89    9896.1176      -119731     74.27017 
    4100    290.20347    38.914404    360761.59   -109852.94    9992.9585    -119845.9    75.566102 
    4200    288.64539   -97.375929    360927.46    -109835.1    9939.3072   -119774.41    76.661116 
    4300    289.06684   -103.83259    360788.47   -109859.88    9953.8194    -119813.7    78.123642 
    4400    290.96828    -14.11437    360790.33   -109917.59    10019.294   -119936.89    79.529166 
    4500    291.50658    5.0816219    360675.28   -109815.59     10037.83   -119853.42    80.745885 
    4600     287.8033    49.745264     360343.9   -109779.56    9910.3102   -119689.87    82.008718 
    4700    291.72002     -174.099    359939.07    -109713.1     10045.18   -119758.28    83.397025 
    4800    288.13382    114.97339    359941.63   -109760.08    9921.6916   -119681.77    84.199478 
    4900    289.55377   -125.37339    360889.49   -109783.71    9970.5864    -119754.3    85.416038 
    5000    290.18367    19.423677    361678.44   -109841.93    9992.2768   -119834.21    86.624952 
    5100    286.32842   -209.22362    361848.33   -109870.24    9859.5239   -119729.76     88.00894 
    5200    288.11005    33.025991    360779.97   -109928.03     9920.873    -119848.9    89.179491 
    5300    288.94776    136.82523     359806.6   -109897.45    9949.7189   -119847.17    90.334077 
    5400    291.27386   -2.6965494    360307.72    -109935.8    10029.817   -119965.62    91.856605 
    5500    288.00612    12.859292    360900.89   -109924.17    9917.2942   -119841.47    92.965232 
    5600    289.33009   0.17414917    360859.23   -110067.53    9962.8842   -120030.41    94.401444 
    5700    286.96485    143.87447    360599.81   -110152.31    9881.4388   -120033.75    95.558098 
    5800    288.14155    278.11518     360578.3   -110149.31    9921.9575   -120071.27    96.542551 
    5900    288.46304   -102.19307     361025.9   -110138.58    9933.0279   -120071.61    97.336836 
    6000    286.58498   -58.738323    360646.59   -110165.57    9868.3582   -120033.93    98.392028 
    6100    289.20091    41.430929    359702.84   -110126.48    9958.4359   -120084.92    99.564926 
    6200    287.94334   -39.351246    360048.85   -110145.18    9915.1325   -120060.31     100.5874 
    6300      286.196    122.63842     360157.3   -110087.09    9854.9639   -119942.05    101.33538 
    6400    288.22843    249.01984    360051.46   -110135.55    9924.9493    -120060.5    102.62418 
    6500     288.7585   -71.574867    360832.99   -110094.35    9943.2019   -120037.56    104.13848 
    6600     288.3596    32.281312    360923.02   -110103.74    9929.4661   -120033.21    104.80924 
    6700    286.81223    197.36044     360314.4   -110185.11    9876.1833   -120061.29    106.14353 
    6800    286.78146    52.856374    360752.86   -110184.85    9875.1238   -120059.97    107.63395 
    6900    288.49775   -3.2447653    361862.98   -110152.98     9934.223    -120087.2    108.63876 
    7000    290.49164   -241.81582    361997.62   -110124.22    10002.881    -120127.1    109.30152 
    7100    289.20446    25.041675    360699.39   -110118.99    9958.5583   -120077.55    110.00222 
    7200    286.60606    72.120639     360001.2   -110241.88    9869.0841   -120110.96    111.45361 
    7300    289.90538    237.91369       360235   -110169.92    9982.6939   -120152.61    112.62302 
    7400    286.71938   -77.251373    361126.61   -110115.08    9872.9861   -119988.07    114.06324 
    7500    292.51772   -121.07963     361650.1   -110178.07    10072.648   -120250.72    115.61833 
    7600    291.00965    22.541112    361528.08   -110162.72    10020.719   -120183.43    116.72394 
    7700    290.80693    93.441203    361477.31   -110172.01    10013.738   -120185.74    117.71482 
    7800    288.54222   -64.482731    361266.49    -110192.3    9935.7545   -120128.06    118.83584 
    7900     287.8541   -5.4902469    361016.16   -110226.35    9912.0594   -120138.41     120.3016 
    8000     286.7429   -51.657901    361172.38   -110268.89     9873.796   -120142.69    121.25921 
    8100    286.74913    24.977525    361010.88   -110304.17    9874.0107   -120178.18     122.0302 
    8200    288.28974   -82.546908    360741.35    -110284.2    9927.0604   -120211.26    123.00048 
    8300    288.73332   -64.497974     360355.4   -110273.81    9942.3349   -120216.15     124.4671 
    8400    290.05525   -63.669012    360006.49   -110348.43    9987.8546   -120336.29    125.80982 
    8500    288.12544    17.848388    359992.38   -110340.19    9921.4028   -120261.59    126.88287 
    8600    288.25549    53.806076    360627.49   -110386.86    9925.8812   -120312.74    127.89333 
    8700    288.55141    72.461239    361600.48   -110399.21    9936.0708   -120335.28    128.49592 
    8800    284.82278   -91.473955    361544.17   -110364.47     9807.678   -120172.15    129.32864 
    8900    286.06509    90.773446    360857.89   -110448.62    9850.4562   -120299.08    130.33303 
    9000     284.9501    91.969223     360843.1   -110422.58    9812.0624   -120234.64    131.20094 
    9100    285.60874    -7.157148    361408.67      -110492    9834.7419   -120326.75    131.91017 
    9200    282.67305   -180.37919     361647.5      -110458    9733.6537   -120191.66    132.99466 
    9300     281.4244    71.456565    360784.33   -110557.75    9690.6571   -120248.41    134.10193 
    9400    282.42998    240.90932       359964   -110523.39    9725.2837   -120248.67    135.08649 
    9500    286.02224    26.469418    360393.73    -110510.5    9848.9808   -120359.48    136.20886 
    9600    285.57572    -77.21298    360867.37   -110472.64     9833.605   -120306.24    137.09507 
    9700    283.46647    37.747364    360913.76   -110507.48    9760.9746   -120268.45    137.96257 
    9800    285.69421   -244.04512    361467.34   -110529.29    9837.6853   -120366.98    138.60375 
    9900    287.83387   -236.98614    361231.81   -110538.19    9911.3628   -120449.55    139.24317 
   10000    286.35901    88.408428    360230.37   -110517.09    9860.5772   -120377.67    140.19385 
   10100    288.08182    61.897043       360348   -110491.04     9919.901   -120410.94    141.48011 
   10200    286.77535   -92.249996     361351.3    -110472.4    9874.9134   -120347.32    142.43741 
   10300    288.39566   -205.74926    361706.16   -110455.33    9930.7078   -120386.03    143.25717 
   10400    285.55035    85.380712    361041.05    -110546.2    9832.7314   -120378.93    143.90892 
   10500    286.04708     119.9347    360327.69   -110509.64    9849.8361   -120359.48    145.09688 
   10600    286.35339    94.813251    360404.41   -110483.31    9860.3836   -120343.69    146.05243 
   10700     288.3889   -138.57571    360678.02   -110485.62    9930.4749   -120416.09    147.26498 
   10800    288.25574   -31.333816    360645.39   -110480.58    9925.8896   -120406.47    148.41096 
   10900    285.24866   -174.68967    361020.48   -110421.46    9822.3429   -120243.81    149.35873 
   11000    285.10213   -128.96281     361464.1   -110475.35    9817.2974   -120292.65    149.85598 
   11100    286.34339   -52.796313    361091.18   -110489.02    9860.0392   -120349.06    150.91726 
   11200    286.30559    77.807627    360695.98   -110490.48    9858.7376   -120349.22    151.71297 
   11300    288.75592    138.72705    361007.31   -110518.23     9943.113   -120461.35    152.69196 
   11400    288.01455    40.439875    361258.44   -110568.37    9917.5844   -120485.95    154.16246 
   11500    286.69474    -309.6721    361049.66   -110630.31    9872.1376   -120502.45     155.3539 
   11600    286.12982    270.72937    359969.47   -110640.04    9852.6852   -120492.72    156.44269 
   11700    287.30483    -18.58304     359825.1   -110590.02    9893.1458   -120483.17    157.33612 
   11800    284.06379   -29.345558    360504.51   -110638.59    9781.5427   -120420.13    158.07767 
   11900     285.6995   -72.347041     360930.2   -110658.52    9837.8673   -120496.39    159.42757 
   12000    283.26404   -172.54589    361350.85   -110655.24    9754.0039   -120409.25     160.0652 
   12100    286.36005   -57.101588    360936.45    -110623.7    9860.6128   -120484.31    160.74679 
   12200    289.11345    77.037947    360280.87   -110619.24    9955.4245   -120574.67    161.29626 
   12300    286.85353     110.9009    360414.52   -110591.41    9877.6055   -120469.01    162.42442 
   12400    284.20443    93.513376    361257.91   -110672.69    9786.3856   -120459.08    163.34516 
   12500    287.14898    70.900278    361406.17   -110598.41    9887.7792   -120486.19    164.09254 
   12600    287.75021   -2.3881392    361089.26   -110612.31    9908.4822   -120520.79    164.96524 
   12700    288.32474   -13.885185    361029.24    -110606.9    9928.2657   -120535.17    166.09745 
   12800    284.46827   -122.58087    361413.92   -110690.16    9795.4708   -120485.63     167.0843 
   12900    283.93758    -29.28789    361172.09   -110666.22    9777.1969   -120443.42    167.94355 
   13000    286.08532     75.17656    360642.52   -110661.86    9851.1529   -120513.01     168.5708 
   13100    286.49087    183.12483    360549.53   -110621.26    9865.1177   -120486.38    169.54287 
   13200    287.09063   -155.30614    361201.56   -110670.78      9885.77   -120556.55    170.79467 
   13300    287.40521    76.449258    360995.65   -110725.32    9896.6021   -120621.92    172.24902 
   13400     284.7306    29.021113    360830.55   -110740.71     9804.504   -120545.21    172.87757 
   13500    287.30884   -12.206868    361036.95   -110740.51     9893.284   -120633.79    173.95156 
   13600    282.82258    34.810398    360729.52   -110848.65    9738.8026   -120587.45     175.1225 
   13700     283.3054   -2.3473637    360881.33   -110854.99    9755.4282   -120610.42    176.09789 
   13800       283.55   -86.084836     361340.5   -110900.97    9763.8507   -120664.82    176.99565 
   13900    285.84095   -11.685359    361418.04   -110865.81    9842.7381   -120708.54    178.18016 
   14000    285.31664     128.9017     361724.6   -110849.24    9824.6837   -120673.92    179.82701 
   14100    284.08748   -33.771445    362340.84   -110840.55    9782.3585   -120622.91    181.08467 
   14200    285.69204   -149.24104     362070.3   -110842.98    9837.6104   -120680.59    181.85539 
   14300     288.6706    -9.272481    361345.76   -110793.54    9940.1752   -120733.71    183.05604 
   14400    287.66115    280.71176    360863.15   -110784.72    9905.4156   -120690.14    184.06857 
   14500    286.95146   -19.933115    361319.32   -110859.06    9880.9776   -120740.03    185.50177 
   14600    284.69737   -169.89815    362455.52   -110907.79    9803.3595   -120711.15    186.68466 
   14700    287.18134   -159.80862    362297.48   -110899.31    9888.8933   -120788.21    187.67753 
   14800    288.22087    29.279661    361338.42   -110996.11     9924.689    -120920.8     188.8715 
   14900    287.75157    165.39557    361417.03   -111005.33    9908.5291   -120913.86    189.89417 
   15000    285.45784   -168.98159    361971.58   -111112.01    9829.5459   -120941.55    190.56218 
   15100     281.9238    123.10498    361682.91   -111095.02    9707.8538   -120802.88    191.26334 
   15200    282.70523    18.096575    361431.89   -111100.13    9734.7618   -120834.89    192.56619 
   15300    282.35463   -34.733506    361810.44   -111078.44    9722.6891   -120801.13    193.38473 
   15400    283.82241   -26.589725    361841.87   -111040.03    9773.2311   -120813.26    194.16863 
   15500    287.67537    144.86604    361483.08   -111046.04     9905.905   -120951.95     194.6776 
   15600     285.7761   -30.322008    361482.73    -111070.1    9840.5052    -120910.6    195.26182 
   15700    286.61035   -73.802616    361911.22    -111055.5    9869.2317   -120924.73    195.74036 
   15800    286.29659   -30.621176    361975.96   -111056.74    9858.4277   -120915.16    196.26882 
   15900    283.60527    143.26075    361998.86   -111071.67    9765.7539   -120837.43    197.34177 
   16000    288.71597    95.552605    362315.66   -111003.62    9941.7375   -120945.36    198.15865 
   16100    289.54068    89.960218    362587.24   -110962.69    9970.1359   -120932.82    198.64567 
   16200    285.63488    49.686886    362479.48   -110929.43    9835.6421   -120765.07    199.14031 
   16300    287.06136    45.960401    362385.85   -110940.07    9884.7621   -120824.84    199.90564 
   16400    290.37611    107.52607    362206.34   -110949.14    9998.9034   -120948.04    200.86666 
   16500     286.5666    36.106693    362400.94   -110977.69    9867.7252   -120845.41    202.20101 
   16600    288.83933   -40.999474    362511.51    -110915.1    9945.9851   -120861.08    203.39399 
   16700    288.02911   -38.771773    361867.68   -110922.26    9918.0857   -120840.35    204.11869 
   16800    289.07104    299.70948    360716.64   -110973.11    9953.9641   -120927.08    204.74732 
   16900    290.09723    231.86617    360956.17   -111012.22    9989.3003   -121001.52     205.4484 
   17000    288.98188   -169.01328    362067.07   -111022.36    9950.8939   -120973.26    206.38051 
   17100    285.97554   -73.476921    362224.79   -111014.25    9847.3727   -120861.62    207.25484 
   17200    290.51826    87.647758    361970.56   -110890.57    10003.798   -120894.37    208.69456 
   17300    290.46476     -94.1669    362368.36   -110857.62    10001.956   -120859.58    209.78124 
   17400    289.34892   -171.06839    362631.15   -110947.48    9963.5325   -120911.01    210.81745 
   17500    289.63949    14.047648    361953.55   -110993.47    9973.5384      -120967    211.62565 
   17600     290.3652    185.02771    361653.13   -111027.07    9998.5276    -121025.6    211.96329 
   17700    288.25069   -111.18635    362260.82   -110946.84    9925.7159   -120872.56     213.0903 
   17800      290.034   -153.14407     362286.9   -110936.25    9987.1228   -120923.37    214.43599 
   17900    289.73808   -35.085353    361744.93   -111010.71    9976.9331   -120987.65    214.93093 
   18000    286.89362    225.35138    361256.27   -111112.95    9878.9862   -120991.94      214.995 
   18100    284.32107    122.20049    361374.89   -111196.38    9790.4021   -120986.78    215.94662 
   18200    287.28406   -34.727133    361921.62   -111168.78    9892.4306   -121061.21    216.77141 
   18300    290.52309    64.937065    362298.76   -111105.02    10003.964   -121108.98    217.35669 
   18400    287.53168   -58.603404    362430.08   -111094.42    9900.9573   -120995.38     218.2149 
   18500    289.30204    42.309651    362263.05   -111113.45    9961.9182   -121075.36    218.77737 
   18600    288.47082    185.57685    362332.41   -111048.67    9933.2959   -120981.97    219.43913 
   18700    288.99266   -143.24049    362693.05   -111098.87     9951.265   -121050.13    219.83545 
   18800    289.40881   -62.559022    362047.94   -111019.44    9965.5949   -120985.04    220.17635 
   18900    291.72702    179.59497    360965.69   -111090.05    10045.421   -121135.47    220.92118 
   19000    289.08404   -42.981969    361235.89   -111115.94    9954.4118   -121070.35    222.03743 
   19100    287.07222    95.227403    361837.53   -111110.17     9885.136   -120995.31    222.90847 
   19200     292.3783    12.681055    362993.04   -111139.24    10067.847   -121207.09     224.1427 
   19300    290.02412   -102.34537    363736.64   -111147.46    9986.7826   -121134.24    225.36521 
   19400    287.57217    72.287964    362721.22   -111206.01    9902.3514   -121108.36    226.08986 
   19500    284.42778    116.73697    361480.47   -111307.98    9794.0765   -121102.06    226.86325 
   19600    288.59769    157.54005    361787.73   -111243.02    9937.6644   -121180.68    227.40016 
   19700    289.79508   -254.30886    362636.42   -111132.78    9978.8959   -121111.68     228.1769 
   19800    285.33992   -21.414753    362317.97   -111184.24    9825.4855   -121009.73     228.8202 
   19900    288.16969    34.371314    361820.32   -111104.75    9922.9267   -121027.68    229.83329 
   20000    288.31949   -25.289775    362158.73   -111077.59     9928.085   -121005.68    230.76966 
   20100    285.34105   -156.75792    362512.11   -111154.97    9825.5245   -120980.49    231.88379 
   20200    286.50859    163.24375    362170.49   -111182.09    9865.7279   -121047.81     232.3783 
   20300    287.45373   -218.04839    362557.17   -111181.14    9898.2731   -121079.42    233.24265 
   20400    288.28817   -87.503104    362609.49      -111116    9927.0064   -121043.01    234.28648 
   20500    286.08477   -338.57371    362661.85    -111055.3     9851.134   -120906.43    235.23061 
   20600    288.16187   -10.830666    361675.22   -111033.06    9922.6575   -120955.72    235.96663 
   20700    290.52342    223.93794    360965.12   -111069.68    10003.976   -121073.65    236.95213 
   20800    289.64239   -28.126541     361813.5   -111046.61    9973.6382   -121020.25    237.75498 
   20900    288.19417   -92.475514    362662.22   -110961.13    9923.7698    -120884.9    239.08846 
   21000    287.03927    87.150018     362340.8   -111060.67    9884.0015   -120944.68    240.50964 
   21100    291.47154    200.57933    361782.23   -110995.55    10036.624   -121032.18    241.33838 
   21200    286.92293   -128.34137    361994.81   -111065.83    9879.9952   -120945.83     241.9432 
   21300    288.72265    240.84589    361798.51   -111105.85    9941.9673   -121047.82    243.27166 
   21400    291.09917   -59.878327    362144.85   -111186.85    10023.801   -121210.65    244.10684 
   21500    288.62211   -239.13486    362742.01   -111142.87    9938.5055   -121081.37    244.80623 
   21600    286.66967   -16.043629    361919.73   -111210.47    9871.2746   -121081.74    245.22697 
   21700    284.01966    395.41126    360779.83   -111191.61    9780.0231   -120971.63    246.20257 
   21800    288.91224    272.62612    361658.53   -111220.11    9948.4959   -121168.61     247.0831 
   21900    288.34887   -267.44814    362872.17   -111194.73    9929.0965   -121123.83    248.82244 
   22000    287.71573   -35.014965    362761.42   -111153.96     9907.295   -121061.25    250.41766 
   22100    287.88526   -37.048988     362791.2   -111128.28    9913.1324   -121041.41    251.05662 
   22200     291.2319   -108.79578    362440.75   -111105.91    10028.372   -121134.28     251.5497 
   22300    288.78287    236.87643     361664.6   -111154.66    9944.0411    -121098.7    252.36619 
   22400     289.7691    90.429984    361984.35   -111202.63    9978.0011   -121180.63     252.5717 
   22500    286.90291   -44.253109    362923.92   -111089.47    9879.3059   -120968.78    253.28691 
   22600    287.99292    -295.4084    363133.09   -111168.29    9916.8397   -121085.13    254.27687 
   22700    288.62424   -1.4187502    362444.05   -111159.59    9938.5789   -121098.17    255.59344 
   22800    290.54768    106.03374    362276.75   -111157.06    10004.811   -121161.87    256.42459 
   22900    287.34137    14.879676    362738.47   -111088.01    9894.4042   -120982.41    257.87741 
   23000    290.53296   -70.635774    362973.04    -111184.7    10004.304      -121189     259.0577 
   23100    289.76878    -57.62161    362444.63   -111220.07    9977.9901   -121198.06    259.30551 
   23200    287.29255     145.5566    361483.03   -111177.14    9892.7228   -121069.86    259.43098 
   23300    287.46459   -77.840614    361772.58   -111196.97    9898.6469   -121095.62    260.30009 
   23400    287.33347   -125.92894    362343.29   -111200.78     9894.132   -121094.91    260.56668 
   23500    288.63369    142.71179    362169.93   -111264.32    9938.9041   -121203.22    261.44058 
   23600     289.7055    78.622492     362017.8   -111274.98    9975.8111   -121250.79    262.40472 
   23700     288.2777   -76.087396    362426.19   -111351.23     9926.646   -121277.88     263.1672 
   23800    290.20104   -85.169412    362743.95   -111330.85    9992.8749   -121323.73    264.10245 
   23900    289.60138   -1.0859049    362564.13   -111307.33     9972.226   -121279.56    265.58674 
   24000    288.20371    3.1215629    362574.61   -111345.15    9924.0982   -121269.25     266.2169 
   24100    286.25369   -181.46781    362197.84   -111349.36    9856.9505   -121206.31    266.39539 
   24200    286.53868    43.987675    361814.03   -111343.87     9866.764   -121210.64    266.85969 
   24300     291.3574   -117.04516    362509.24    -111306.5    10032.693    -121339.2    268.26837 
   24400    289.03913    38.511656    362588.36   -111383.15    9952.8653   -121336.02    269.20234 
   24500    290.81529     35.43058    362131.48   -111400.27    10014.026   -121414.29    270.14413 
   24600    283.67845    47.025322    361883.02   -111467.17    9768.2739   -121235.44    271.16097 
   24700     284.3687    -189.1959    362140.19   -111473.34    9792.0422   -121265.38    272.44601 
   24800    287.96997   -13.860301    362058.24   -111494.17    9916.0495   -121410.21    273.30851 
   24900      287.965    37.143447     362398.1   -111539.19    9915.8784   -121455.07    275.04332 
   25000    286.63525   -143.88942    362652.45   -111511.95    9870.0893   -121382.04    275.97425 
   25100    286.45175   -167.94515    362529.38    -111526.6    9863.7704   -121390.37    276.80046 
   25200    288.34075   -109.39093    362443.58   -111464.08    9928.8172   -121392.89      277.611 
   25300     285.2544    89.880984     362370.6   -111400.03    9822.5406   -121222.57    278.80506 
   25400    286.40357    51.310906    362031.86   -111452.43    9862.1116   -121314.55     279.8822 
   25500    286.05354    162.33939    361881.37   -111516.71    9850.0586   -121366.77    280.48548 
   25600    287.88759    -173.5105    362847.18   -111548.19    9913.2127    -121461.4    281.88362 
   25700    287.04425   -46.754169    363479.28   -111490.22    9884.1729    -121374.4    283.05541 
   25800    286.75242    124.05775    363263.61   -111507.07    9874.1239   -121381.19    283.62212 
   25900    285.35749   -75.514368    363485.07   -111535.15    9826.0906   -121361.24      284.743 
   26000    285.13238    14.292835    362982.09   -111607.74    9818.3391   -121426.08    284.95174 
   26100    286.23496   -31.192575    362695.63   -111614.98    9856.3056   -121471.28    286.24779 
   26200    288.47186   -239.47839    363079.71   -111541.26    9933.3318   -121474.59    286.52316 
   26300     289.1781   -154.04973    363147.27   -111523.06    9957.6507   -121480.72    287.05653 
   26400     287.4283    155.97072     362752.7   -111493.78    9897.3974   -121391.18    287.30106 
   26500    286.85014   -38.262318    362786.33   -111501.72    9877.4888   -121379.21    287.76638 
   26600    288.99632    73.800591    362198.35   -111551.58    9951.3909   -121502.97    288.32624 
   26700    284.85409    60.672194    361858.93   -111640.43    9808.7564   -121449.19    289.35967 
   26800    286.57885    25.400254    362491.09   -111682.17    9868.1471   -121550.32    290.74508 
   26900    283.96115   -367.75036    362833.31   -111760.41    9778.0083   -121538.42    291.58836 
   27000    285.73275     127.1311    361449.62   -111762.22    9839.0124   -121601.23    291.61593 
   27100    285.08148    309.41884    360739.21   -111806.74    9816.5862   -121623.33    291.64026 
   27200     283.7731    47.082013    362223.71    -111696.6    9771.5331   -121468.13    292.84425 
   27300    284.74676   -322.35572    363317.11   -111696.42    9805.0604   -121501.48    294.49479 
   27400    287.46719    146.40837    362405.91    -111656.5    9898.7365   -121555.23    295.25191 
   27500    289.16045    217.85295    362030.46   -111591.95    9957.0428   -121548.99    296.08316 
   27600    284.43044   -52.692087    362786.91   -111527.16    9794.1683   -121321.33    297.34712 
   27700    285.33102    96.259392    362860.15   -111577.84    9825.1789   -121403.02    298.15053 
   27800     287.4331   -107.44276    362775.79   -111597.75    9897.5626   -121495.31    299.00694 
   27900    286.86646   -17.512191    362927.85   -111479.67    9878.0508   -121357.72    299.72038 
   28000    289.27518    151.92186    362560.98   -111511.73    9960.9933   -121472.72    300.29318 
   28100    288.28051   -98.494072    362523.69   -111496.38    9926.7426   -121423.12    300.95382 
   28200    286.42099    77.366638    362571.75   -111549.91    9862.7114   -121412.63    301.23672 
   28300    285.73988   -118.14033    362491.92   -111500.92    9839.2579   -121340.17    301.81003 
   28400    285.10488    48.769517    362356.76   -111523.65    9817.3921   -121341.04     301.9516 
   28500    284.38877   -19.776032    362476.75    -111461.8    9792.7334   -121254.54    302.86146 
   28600    291.17346    105.04792    362368.47   -111369.46     10026.36   -121395.82    303.64048 
   28700    289.26538   -67.820708    362574.14   -111318.07     9960.656   -121278.73    305.23874 
   28800    287.25269   -65.957739    362681.85   -111463.25    9891.3505    -121354.6    305.84027 
   28900    289.03448    36.520465    362346.78   -111479.38    9952.7053   -121432.08    306.93451 
   29000    285.32023    18.252168    361943.12   -111534.52    9824.8074   -121359.32    307.66138 
   29100    289.62068   -106.70163    361913.16   -111518.77    9972.8905   -121491.66    308.80269 
   29200    288.13385    43.467987    361977.54   -111506.77    9921.6925   -121428.46    309.51217 
   29300    282.96886    12.761707    362082.23   -111520.14    9743.8397   -121263.98    310.90251 
   29400    287.00762    67.767624    362451.59   -111581.16    9882.9114   -121464.07    312.12929 
   29500    284.78348   -42.567466    363379.59   -111584.02    9806.3249   -121390.34    312.80758 
   29600    284.58481   -221.76961    363984.42   -111504.62    9799.4836    -121304.1    313.55574 
   29700    286.54816    203.88355    362948.67   -111517.58    9867.0905   -121384.67    313.71417 
   29800    286.24015    83.152092    361915.47   -111470.04    9856.4843   -121326.52    314.00369 
   29900    290.32513    230.46803    362094.44   -111418.48    9997.1478   -121415.63    315.12343 
   30000    287.63314   -187.37037    363420.49   -111453.25    9904.4508    -121357.7    316.44285 
   30100    285.21434   -56.266145     363107.7   -111412.77    9821.1613   -121233.93    318.27192 
   30200    288.64702   -61.226164    361983.33   -111407.83    9939.3631   -121347.19    318.97845 
   30300    289.35836    193.71668    361166.93   -111384.99    9963.8578   -121348.84    319.87485 
   30400    287.86336    31.681312    361342.11   -111507.29    9912.3785   -121419.67    320.87715 
   30500    287.80466    -69.18692    362037.82   -111477.61    9910.3573   -121387.97    322.50306 
   30600    289.01825    -136.1758    362819.35    -111487.6    9952.1461   -121439.75    323.75427 
   30700    284.89531   -61.711663    362710.41    -111512.9    9810.1757   -121323.08    324.31108 
   30800    286.57264    15.049112    362372.77   -111594.95    9867.9332   -121462.88    325.09311 
   30900    287.38872    81.354307    362437.28   -111619.48    9896.0346   -121515.51    325.47857 
   31000    283.50018   -88.892652    362578.76   -111631.72    9762.1352   -121393.86    326.43692 
   31100    285.13321     76.12648    362100.93    -111594.9    9818.3675   -121413.26    326.41387 
   31200     289.3453    90.520426    362017.66   -111535.45    9963.4078   -121498.86     327.4525 
   31300    286.71767    50.532083    362537.24   -111533.73    9872.9272   -121406.66    328.81071 
   31400    285.20712   -157.04875    363119.02   -111593.21    9820.9126   -121414.13    330.12902 
   31500    285.79647     74.74424    362875.45   -111576.98    9841.2063   -121418.19     330.7614 
   31600    283.94708   -92.208215    362470.55   -111608.14    9777.5239   -121385.66    331.00518 
   31700    288.11837    233.11127     362008.7    -111560.6    9921.1596   -121481.76    332.06277 
   31800    287.30107   -164.68439    363045.73   -111584.96    9893.0164   -121477.97    333.22549 
   31900     284.8601    -174.6289    363652.62   -111628.06     9808.963   -121437.02    334.28309 
   32000    289.85501     133.5031    362879.77   -111640.34    9980.9594    -121621.3    334.76873 
   32100    283.94637    140.56206    362558.46   -111662.21    9777.4995   -121439.71    335.03724 
   32200     287.5545    29.533202    362672.11   -111640.07     9901.743   -121541.81    335.85438 
   32300     285.9063    220.12947    362516.15   -111661.08    9844.9882   -121506.07    336.91085 
   32400    282.14324   -139.40336    362768.12   -111665.23    9715.4101   -121380.64    338.16334 
   32500    278.51348   0.23083055    363033.83   -111672.13    9590.4217   -121262.55    338.40407 
   32600    286.97806     16.99609    362930.48   -111617.66    9881.8938   -121499.56    338.74324 
   32700    285.92059    91.196519    362669.18   -111639.21    9845.4804   -121484.69    339.29896 
   32800    284.99333   -36.224675    363191.97   -111647.62    9813.5507   -121461.17    340.53876 
   32900    286.96438    -8.199035    363681.74   -111663.02    9881.4225   -121544.45    342.14014 
   33000    287.06264    23.309087    363780.49   -111650.31    9884.8063   -121535.12    343.58284 
   33100    288.10638    -21.53262    363664.06   -111702.15    9920.7467    -121622.9    344.44283 
   33200    285.96255   -24.006368    363383.95   -111754.19    9846.9254   -121601.11    345.24383 
   33300    283.58087    174.55906    362603.92   -111748.07    9764.9137   -121512.98    345.00775 
   33400    282.92701    68.667927    362304.43   -111758.82    9742.3987   -121501.21    345.95766 
   33500    284.31624   -84.410276    362246.35   -111769.11    9790.2358   -121559.35    346.54712 
   33600    284.85254   -74.920437    362518.71   -111772.81    9808.7029   -121581.52    347.34484 
   33700    285.48261   -64.981839    362785.81   -111733.28    9830.3989   -121563.68    348.20435 
   33800    285.76794   -152.97042    362645.85   -111706.02    9840.2242   -121546.24    348.83682 
   33900    287.69651    151.42129    361836.71    -111763.7    9906.6329   -121670.33    348.82633 
   34000      284.924    114.14261    361918.78   -111715.57    9811.1635   -121526.73    350.22019 
   34100     284.9894    -151.8186    362397.78   -111754.38    9813.4154   -121567.79    351.59315 
   34200    283.38468    18.730535    362543.37   -111779.21    9758.1582   -121537.37      352.682 
   34300    284.68527   -89.515722    362578.08   -111699.71     9802.943   -121502.65    353.30098 
   34400    285.50778    139.60876    362425.71   -111785.55    9831.2657   -121616.81    353.70558 
   34500     286.5711   -59.638958    362707.17   -111782.33    9867.8803   -121650.21      354.593 
   34600    284.11897   -39.769929    362905.67   -111864.12     9783.443   -121647.57     355.8127 
   34700    287.38627    28.330333    362789.99      -111808    9895.9502   -121703.95    356.83892 
   34800    288.05637   -9.6237044    363150.84   -111812.18    9919.0246   -121731.21    357.46088 
   34900    283.72434   -39.903866     363682.4   -111852.83    9769.8542   -121622.69    358.64787 
   35000    285.43212   -79.818195    363274.27   -111801.87    9828.6603   -121630.53    358.99105 
   35100     287.5202    207.74332     362140.7      -111821    9900.5621   -121721.57    359.33573 
   35200    285.48837     199.9424    362021.48   -111822.51    9830.5974   -121653.11    360.02823 
   35300    285.82398   -35.376293    363302.31   -111739.33    9842.1536   -121581.48    361.99653 
   35400    285.58056   -184.04851    363609.53   -111766.15    9833.7716   -121599.92    363.39342 
   35500    288.73484    108.47146    362628.86   -111711.64    9942.3873   -121654.03    364.48806 
   35600    289.01895   -37.702992    362439.54   -111672.18    9952.1704   -121624.35    364.09993 
   35700    285.62651   -174.16346    362621.99   -111706.67    9835.3541   -121542.03    364.88955 
   35800    283.71865    52.816551    361898.89   -111743.13    9769.6582   -121512.79    365.43273 
   35900     284.1707     196.7962    362069.08   -111703.36    9785.2242   -121488.58    366.84832 
   36000    286.83589   -4.9357347    363298.28   -111747.26    9876.9982   -121624.26     367.7828 
   36100    284.68397    -142.0526     363665.5   -111750.19    9802.8984   -121553.09    368.75028 
   36200    285.59449    3.1473385    362976.02   -111742.85    9834.2513    -121577.1    368.88356 
   36300    286.13856    213.62635    362599.79    -111792.8     9852.986   -121645.78    368.91875 
   36400    287.24326   -11.386085    362926.64   -111766.35    9891.0256   -121657.38    369.31011 
   36500    286.93422   -184.20582    363082.52   -111736.42     9880.384   -121616.81    369.97593 
   36600     288.0782   -3.1272368    362913.72   -111683.69    9919.7764   -121603.47    370.19585 
   36700    286.09679    142.81225     363164.7   -111700.43    9851.5478   -121551.97    371.31127 
   36800    287.38163    71.025188    363585.59   -111686.87    9895.7904   -121582.66    372.18232 
   36900    284.07673    130.43027     362922.9   -111699.69    9781.9882   -121481.68    372.26208 
   37000    285.74537    135.59849    362410.52   -111767.56    9839.4469      -121607    373.05087 
   37100    285.77036    11.870407    362627.88   -111725.92    9840.3075   -121566.23    373.27127 
   37200    285.53582   -161.52237       362912   -111758.41    9832.2311   -121590.64    373.94752 
   37300    287.97998    29.989908    362396.35   -111774.35     9916.394   -121690.75    374.00255 
   37400    286.99858    106.05808    362360.11   -111772.43    9882.6005   -121655.04     375.1706 
   37500    285.85849   -87.076088    362994.06   -111756.05    9843.3422    -121599.4    376.70253 
   37600    289.47893   -137.54679    363130.51   -111772.17    9968.0095   -121740.18    377.17343 
   37700    288.22246    34.823124    363025.18   -111769.33    9924.7439   -121694.08    378.45818 
   37800    286.01265   -210.93963    363568.15   -111825.85    9848.6506    -121674.5    379.07059 
   37900    285.71199   -162.06302    363668.83   -111889.47    9838.2973   -121727.77    380.30887 
   38000    287.12174    295.11735    363033.85    -111927.1    9886.8412   -121813.95    380.73531 
   38100    283.30659    -3.333778    363364.26   -111969.08    9755.4692   -121724.55    382.24618 
   38200    287.72956   -30.615012    363681.73   -111948.83    9907.7712    -121856.6    382.71845 
   38300    283.87846    46.011855    363413.08   -112049.71     9775.161   -121824.87    383.01643 
   38400    287.72185   -10.757616    363048.62   -112051.82    9907.5056   -121959.33    384.06229 
   38500    282.04888   -163.69644    362901.74   -112037.89    9712.1608   -121750.05    385.35787 
   38600     282.6916    160.36235    361943.33   -112078.96    9734.2923   -121813.25    385.36312 
   38700    285.50651   -5.7760677    362227.65   -112029.46    9831.2219   -121860.68    386.42672 
   38800    285.37004   -108.68935    363143.94   -111994.44    9826.5226   -121820.96    387.46525 
   38900    285.52634   -131.22301    364032.07   -111984.38    9831.9046   -121816.28    388.28648 
   39000     285.0272   -226.54999    364475.53   -111988.84    9814.7172   -121803.55     389.4949 
   39100    286.92863      11.2584     363770.2   -111987.72    9880.1917   -121867.91    389.35382 
   39200    287.28664    193.21331    362981.19   -111938.87    9892.5195   -121831.39    389.47003 
   39300    287.39019    104.76767    362757.32   -112117.45    9896.0852   -122013.53    390.36178 
   39400     282.5524    53.603754    363109.12   -112130.62    9729.4992   -121860.12    391.60263 
   39500    282.07152   -128.66733    363585.73    -112142.9    9712.9402   -121855.84    392.45461 
   39600    285.75105    39.938621    363303.28   -112173.52    9839.6424   -122013.16     392.2868 
   39700    280.64615    166.17987    362986.64   -112214.41    9663.8586   -121878.27     392.3772 
   39800    280.77373   -32.273924    363050.01    -112265.2    9668.2517   -121933.45    392.97039 
   39900    282.43658     44.43806    362749.81   -112191.32    9725.5111   -121916.83    392.87861 
   40000    286.71821    82.850687    362867.62   -112074.92    9872.9458   -121947.86    394.31678 
   40100     286.2856   -250.05103    363728.35   -112053.91    9858.0492   -121911.96    395.90241 
   40200    288.83833   -47.268888    363167.32   -112019.43    9945.9508   -121965.38     395.8284 
   40300     289.1087    282.63038    361847.68   -111953.94    9955.2609    -121909.2     395.7509 
   40400    287.83407   0.73253674    362297.87   -111958.27      9911.37   -121869.64    396.45643 
   40500    285.12539   -260.01119    363325.94   -112001.07    9818.0981   -121819.17    397.58883 
   40600     286.1225   -35.682676    362678.55   -112030.32     9852.433   -121882.75    397.97931 
   40700     287.6012    255.59897    362337.16   -112040.09    9903.3511   -121943.44    398.28185 
   40800    286.62862   -243.96425    363444.07   -112058.48     9869.861   -121928.34    399.27422 
   40900    287.96326   -8.8852164    363276.11   -112050.72    9915.8184   -121966.53    400.28741 
   41000    287.67952    271.43282    362735.97   -111961.35    9906.0478    -121867.4    401.18436 
   41100    285.51476    140.70159    363165.72   -111969.61     9831.506   -121801.12     401.8961 
   41200    286.36304    -197.1614    363960.25   -111936.59    9860.7157   -121797.31    402.51948 
   41300    289.33826   -27.488297    363744.48   -111968.12    9963.1654   -121931.28    403.87347 
   41400    287.11309    91.608847    363188.86   -111987.68    9886.5432   -121874.23    403.67763 
   41500    289.13159   -36.568873       363192   -112066.81    9956.0489   -122022.86    404.46577 
   41600     286.9884    178.64139     362930.5   -112100.75    9882.2498      -121983    405.06551 
   41700    287.04051   -53.318373    363368.49   -112118.86     9884.044   -122002.91    406.42575 
   41800    286.43171   -43.286613    363491.05   -112089.28    9863.0806   -121952.36    407.14198 
   41900    283.65611    12.629456    363297.49   -112117.28    9767.5045   -121884.78    407.76688 
   42000     286.2585    108.29053    363325.14   -112153.93    9857.1162   -122011.05    409.21075 
   42100    288.12016   -164.62072    363846.13   -112178.12    9921.2212   -122099.34    410.47809 
   42200    285.74327      82.2216    363916.52   -112104.25    9839.3745   -121943.62    412.07626 
   42300    288.03085   0.83506533    363740.38   -112151.31    9918.1457   -122069.46    412.13533 
   42400    289.05703    88.541571    363486.21   -112135.94    9953.4818   -122089.42    412.40612 
   42500    286.96309   -102.83275    363774.07   -112175.09    9881.3782   -122056.47    412.92035 
   42600    287.45296    8.6842371    363919.57   -112201.95    9898.2467    -122100.2    413.80477 
   42700    288.84036   -152.60806    363733.09   -112167.44    9946.0208   -122113.46    414.26686 
   42800    290.16457    131.18572    363553.56    -112281.6     9991.619   -122273.22    415.69632 
   42900     285.3865   -239.49635     363976.1    -112315.1    9827.0894   -122142.18    416.05001 
   43000    286.31891    53.088094    363814.96   -112324.91    9859.1965   -122184.11    416.09762 
   43100    286.92824    144.01579    363285.56   -112371.49    9880.1783   -122251.67    416.96535 
   43200    284.20413    109.14715    363230.46    -112377.8    9786.3753   -122164.17    417.12482 
   43300     285.5258   -64.097505    363492.16   -112400.06    9831.8862   -122231.95    417.60527 
   43400    286.19647    97.202282    363046.61   -112340.21      9854.98   -122195.19    418.65533 
   43500    287.00035    92.085142    362615.71    -112373.9    9882.6611   -122256.56    418.86459 
   43600    288.15994    119.28266    362702.58   -112339.72    9922.5909   -122262.31    419.55229 
   43700     286.6939   -158.72776    363188.01   -112348.05    9872.1089   -122220.16    421.29023 
   43800    287.84955    250.24369    363302.24    -112336.4    9911.9029    -122248.3     421.6403 
   43900    287.78095   -26.093421    364007.87   -112222.67    9909.5407   -122132.21    422.58948 
   44000     288.9841   -49.441208    364189.78   -112264.81    9950.9704   -122215.78    423.56716 
   44100    287.74886   -89.402062    364068.64   -112277.36    9908.4357    -122185.8    424.42649 
   44200    287.23408   -22.856698    363868.42   -112325.91    9890.7095   -122216.62    425.38683 
   44300    289.21237     115.6115    364001.87   -112310.45    9958.8306   -122269.28    426.58328 
   44400    289.11643   -235.14219    364700.23   -112370.23    9955.5271   -122325.76    428.30271 
   44500    289.65888   -74.287287    364465.37    -112373.9    9974.2059   -122348.11    428.18508 
   44600    286.42823    157.85578    363404.77   -112444.39    9862.9605   -122307.35    428.30699 
   44700    290.21276     119.5567    362988.96   -112453.36    9993.2784   -122446.64    427.98205 
   44800    288.61125   -184.99335     363913.5   -112354.15    9938.1313   -122292.29    429.45884 
   44900     288.8629   -242.04722    364563.03   -112373.47     9946.797   -122320.27    431.78477 
   45000    290.44288   -199.34276    364186.84   -112384.59    10001.202    -122385.8     432.2089 
   45100    286.37355    278.30506    363844.92   -112354.63    9861.0777   -122215.71    433.01392 
   45200    289.22143   -88.213711    364338.49   -112339.55    9959.1425    -122298.7    434.63628 
   45300    287.67804    153.37245    364125.62   -112311.41    9905.9972    -122217.4    434.79415 
   45400    291.36003    87.997236    363562.46   -112309.05    10032.784   -122341.84    435.50036 
   45500    287.06132    155.06486    363207.89   -112391.41    9884.7605   -122276.17     436.3486 
   45600    288.01454   -36.254327    363740.86   -112362.75     9917.584   -122280.33     437.3085 
   45700     289.1002   -172.50364    364130.77   -112397.94    9954.9682    -122352.9    438.37973 
   45800      287.074    97.545438    364084.62   -112410.47    9885.1974   -122295.67    438.49425 
   45900    287.40451    149.59222    364009.61   -112453.33    9896.5781   -122349.91    439.46523 
   46000    284.23125    48.786796    364113.45   -112508.72    9787.3092   -122296.03    440.27233 
   46100    287.10437   -58.263183    364159.49   -112482.51    9886.2433   -122368.76    440.97186 
   46200     288.4652    69.675756    363872.25   -112561.95    9933.1024   -122495.05    441.27878 
   46300     283.7409    71.797625    363942.12   -112602.03    9770.4242   -122372.45    442.04315 
   46400    285.61436     83.22568    364197.59   -112642.13    9834.9355   -122477.07    442.66397 
   46500    282.47569   -63.385207    364294.06   -112637.78    9726.8578   -122364.64    443.67717 
   46600    285.48504    87.768366    363947.77   -112699.73    9830.4825   -122530.21    444.31378 
   46700    285.02983  -0.71558388     363868.5   -112643.94    9814.8077   -122458.75     444.5095 
   46800    286.78302    29.809896    364008.18   -112575.47    9875.1777   -122450.65    445.09704 
   46900    287.28369   -113.06888    364389.46   -112573.14     9892.418   -122465.56    445.93136 
   47000    287.66415   -36.939896    364594.82   -112553.38    9905.5187   -122458.89    446.94996 
   47100    282.18735   -123.44095    364440.82   -112606.28    9716.9287   -122323.21    448.17949 
   47200    287.70204   -83.023471    364293.12   -112644.13    9906.8235   -122550.95    447.48412 
   47300    288.91601   -83.507606    363620.99   -112576.08    9948.6256   -122524.71    447.93609 
   47400    288.44062     273.0334    362473.57    -112569.8    9932.2558   -122502.06    448.27379 
   47500    287.70889    190.71263    362804.52   -112534.16    9907.0594   -122441.22     449.5163 
   47600     285.5911   -146.69249    364445.98    -112596.3    9834.1345   -122430.43    451.22953 
   47700    286.34336   -213.67254    364827.31   -112630.67    9860.0383   -122490.71       452.38 
   47800    290.23557    184.34567    363549.11   -112629.92    9994.0639   -122623.98     452.1956 
   47900     292.3155    245.17626    363739.69    -112588.6    10065.685   -122654.28    453.35025 
   48000    289.68047   -202.47658     364945.5   -112616.31    9974.9492   -122591.26    454.83011 
   48100    287.51584   -75.387288    364785.19   -112542.36    9900.4119   -122442.77    455.29295 
   48200    289.30117    226.88201    363917.78   -112513.95    9961.8885   -122475.84    455.08832 
   48300     288.7315    20.971773    364032.41   -112622.31    9942.2722   -122564.58    456.37864 
   48400    288.70987    79.923048    364446.33   -112709.95    9941.5272   -122651.48    457.48169 
   48500    286.97519    31.100009       364726   -112686.26     9881.795   -122568.05    458.47361 
   48600    287.52502     149.4631     364490.3   -112670.96     9900.728   -122571.68    458.76814 
   48700    288.92088    13.540304    364048.04    -112699.2    9948.7933   -122647.99    458.92897 
   48800    288.86848    155.92445    363738.62    -112625.1     9946.989   -122572.09    459.37473 
   48900    287.92383   -149.22575    364536.68   -112658.04    9914.4607    -122572.5    460.09448 
   49000    288.64652   -123.04439    364946.02   -112597.28    9939.3461   -122536.62    461.02211 
   49100    290.92923     56.66571    364458.18   -112579.83     10017.95   -122597.78    461.76148 
   49200    289.50329    -16.86325     364394.4   -112515.42    9968.8483   -122484.27    462.11967 
   49300    290.62524    144.62135    364535.82   -112473.64    10007.482   -122481.12    462.86074 
   49400    288.47843   -40.019263    364562.48   -112545.33    9933.5578   -122478.88    463.66062 
   49500    287.14834    75.532648    363954.45   -112662.45     9887.757   -122550.21    463.65246 
   49600    291.39086    72.674633    363746.03   -112691.76    10033.845    -122725.6    463.84607 
   49700    288.58456   -5.4091465    364566.85   -112804.23    9937.2123   -122741.44    465.45098 
   49800    287.07924   -221.00083    365125.28   -112777.88    9885.3776   -122663.26    466.42799 
   49900    287.34092    67.128632    364433.73   -112769.59    9894.3885   -122663.98    465.56841 
   50000    289.10428    -119.6277    364291.46   -112731.84    9955.1086   -122686.95    466.07816 
Loop time of 152.803 on 6 procs for 50000 steps with 11553 atoms

Performance: 282.716 ns/day, 0.085 hours/ns, 327.218 timesteps/s
99.5% CPU use with 6 MPI tasks x no OpenMP threads

MPI task timing breakdown:
Section |  min time  |  avg time  |  max time  |%varavg| %total
---------------------------------------------------------------
Pair    | 50.489     | 86.073     | 125.58     | 329.0 | 56.33
Neigh   | 15.593     | 17.321     | 19.003     |  31.2 | 11.34
Comm    | 4.3964     | 45.591     | 82.898     | 471.1 | 29.84
Output  | 0.08057    | 0.081296   | 0.084505   |   0.5 |  0.05
Modify  | 2.9803     | 3.0412     | 3.0832     |   1.9 |  1.99
Other   |            | 0.696      |            |       |  0.46

Nlocal:        1925.50 ave        1991 max        1865 min
Histogram: 2 0 0 0 1 1 0 0 1 1
Nghost:        2523.50 ave        2547 max        2470 min
Histogram: 1 0 0 0 1 0 0 1 0 3
Neighs:        0.00000 ave           0 max           0 min
Histogram: 6 0 0 0 0 0 0 0 0 0
FullNghs:      54928.3 ave       57021 max       53385 min
Histogram: 2 0 1 0 1 0 0 1 0 1

Total # of neighbors = 329570
Ave neighs/atom = 28.526790
Neighbor list builds = 7022
Dangerous builds = 0

reset_timestep      0
undump              1

################################################
#######         Run Simulation         #########
################################################

log                 log.run_${NAME}
log                 log.run_Tmelt_286K_AUTO
