LAMMPS data file via write_data, version 29 Oct 2020, timestep = 200000

4608 atoms
1 atom types

-0.09175405064583941 57.36226405064877 xlo xhi
-0.08155915612855225 50.988679156128924 ylo yhi
-0.08155915612855225 50.988679156128924 zlo zhi

Masses

1 18.015

Atoms # atomic

5 1 1.7272719963386614 1.5056880926862952 1.4496182133828457 0 0 0
13 1 7.647803213668673 1.7712736757814014 1.6166433742456425 0 0 0
11 1 9.121807955698554 -0.03699050779977821 3.0075229043927694 0 0 0
10 1 6.341288965671584 3.0663445985686857 3.4494953665038968 0 0 0
21 1 14.59184974683628 1.552958518867569 1.437154933320017 0 0 0
766 1 13.756565487377099 49.48604477836132 24.43237076047385 0 0 0
8 1 4.75595603758728 4.421287385798838 1.5880263772640744 0 0 0
27 1 2.6891327811796346 6.212331798341257 2.8894555417619596 0 0 0
35 1 9.194068799028303 6.252777390117855 3.104850498405246 0 0 0
650 1 -0.0090336258136859 22.092904826345016 22.431842454152953 0 0 0
16 1 11.346997280763434 4.881433476109591 1.2232917965663086 0 0 0
24 1 17.28726888302329 4.716940584997293 1.4687325968043474 0 0 0
29 1 1.2185542020107667 8.112435978704346 1.5742896800794624 0 0 0
37 1 7.386021547888957 7.816078000767593 1.7426494432650868 0 0 0
45 1 14.386007071587994 7.950436849637454 1.5181091973020393 0 0 0
578 1 0.020654166098154667 3.2391415193810724 22.25492764187112 0 0 0
65 1 12.500918647210566 12.418732371909778 0.339629345106754 0 0 0
32 1 4.585203268106762 11.383339455386503 1.5649144109984463 0 0 0
40 1 10.75083523402946 11.131391294563118 1.768135080788845 0 0 0
60 1 9.637462654721688 16.03882556608632 0.24064144818795397 0 0 0
48 1 17.55605752220812 11.09612923317032 1.7819870305452379 0 0 0
745 1 -0.06017946258645814 44.72699068662911 19.31643019890078 0 0 0
53 1 1.7011890926432185 14.282952388319964 1.3034500166194967 0 0 0
51 1 2.904413917873162 12.797764482836294 3.392315410148584 0 0 0
100 1 2.94933669834838 28.287945302937914 0.026986512604997515 0 0 0
61 1 7.938081801822875 14.287683241560066 1.6263640311819798 0 0 0
697 1 0.1779246688299453 31.92505002839101 19.37248396154831 0 0 0
69 1 14.139783053562185 14.182903154307976 1.7065848302458946 0 0 0
868 1 2.9555727912898804 28.678637872644863 25.427061392147955 0 0 0
56 1 4.52986405788254 17.341699872987267 1.3624701011312739 0 0 0
64 1 11.286903270553669 17.487258670974853 1.4640479966015603 0 0 0
66 1 12.757948512599562 15.81318877627988 3.33481488299853 0 0 0
72 1 17.014105646990334 17.71276579499603 1.3776775032168447 0 0 0
434 1 -0.025835760909466224 15.663895743117124 16.376427966251075 0 0 0
77 1 1.2620082904281444 20.515176861245127 1.2587132927338105 0 0 0
75 1 3.073598428936498 19.172598041039326 2.9120544057858484 0 0 0
85 1 7.78923765186913 20.354149750958353 1.2094568307764764 0 0 0
93 1 14.26505102865969 20.53376412218457 1.3443864997235215 0 0 0
91 1 15.975031142056544 19.312579379339137 3.065085546982301 0 0 0
121 1 0.0302164225666402 31.526577274111286 0.3605030679499343 0 0 0
758 1 7.854726024283597 49.472553164403124 23.612107837513403 0 0 0
80 1 4.111760380720343 23.672879777767857 1.7768664241960979 0 0 0
82 1 6.057320894498363 21.829776096925883 2.94541448158041 0 0 0
88 1 10.891974957921512 23.936982054779413 1.2161817918551419 0 0 0
385 1 0.16964723981490887 50.75564796263545 12.50726002987483 0 -1 0
101 1 1.4037632193227225 27.01654405293086 2.248631332554247 0 0 0
849 1 6.139382782304766 18.886188596844068 25.41334249553313 0 0 0
109 1 7.391053982766646 26.876037005950696 1.6188898084548018 0 0 0
433 1 0.08985373787503192 12.867040138399467 12.624529762518181 0 0 0
96 1 17.27244652671647 23.54191703274121 1.3843716775160635 0 0 0
908 1 15.983817647928259 35.10352468284182 25.2767163403955 0 0 0
313 1 -0.04196879980307726 32.00241392639626 6.605989748582068 0 0 0
265 1 -0.03525664440271127 18.698868178724737 6.545139497726318 0 0 0
106 1 6.133406048850383 28.598125744475904 3.5735739489152234 0 0 0
117 1 14.633545872743763 26.92747496478135 1.652774340379591 0 0 0
953 1 12.363781681052705 44.6279955438541 25.451946168517438 0 0 0
104 1 4.517759495909495 29.93345943555262 1.5968101496788376 0 0 0
146 1 0.0635614381669809 41.47147872257527 3.0694351379767455 0 0 0
131 1 9.18711451778356 31.89454086780551 3.1882411519698164 0 0 0
112 1 11.00950496234147 30.23029649584639 1.3641658131920689 0 0 0
289 1 -0.03746833253535323 25.29754973488081 6.601794127592933 0 0 0
120 1 17.742141087252193 30.145252931635785 1.5069288974684363 0 0 0
125 1 1.5663930769363206 33.32347707556363 1.798887442866047 0 0 0
133 1 8.098411765535607 33.315670997022764 1.1312334868891714 0 0 0
141 1 14.072511041729088 33.39134078401072 1.3082386834440145 0 0 0
266 1 -0.0342290358407098 21.9462578864757 9.71228732584112 0 0 0
147 1 3.6024379043835215 38.245623056785575 3.2661249774695365 0 0 0
128 1 4.722092340023433 36.781131166577254 1.1736359505966345 0 0 0
458 1 0.19848937094546515 22.402459931567822 15.786444651602888 0 0 0
136 1 11.152667823811475 36.81337893360944 1.0560131740966385 0 0 0
937 1 -0.0660139516806808 44.47826268810296 25.290793107894544 0 0 0
163 1 15.43145335973293 38.098591378747585 3.3839175439019193 0 0 0
144 1 17.38618988523146 36.61204092734947 1.7113895475624372 0 0 0
149 1 1.9841030516137503 39.96757606855432 1.7717679051091264 0 0 0
788 1 16.283003933147874 2.9880127502921487 25.259331240719334 0 0 0
157 1 7.8961192020650275 40.14478290865712 1.3463280386110381 0 0 0
777 1 6.024007581059259 50.8523423966726 25.337310682897034 0 -1 0
162 1 12.53230475634479 40.89651212016258 2.830907601632536 0 0 0
165 1 14.272701691385636 39.58924725251718 1.2169846767175025 0 0 0
750 1 1.164502322188171 49.26549184639518 23.5810459472669 0 0 0
152 1 4.852611153068108 43.038077127262824 1.2740976474520629 0 0 0
482 1 0.02637527463882848 28.930382638834562 15.956786784092397 0 0 0
179 1 9.723285655653694 44.4890257060906 2.6697796505816904 0 0 0
160 1 11.049391998963653 42.55824315304433 1.2750645716755677 0 0 0
168 1 17.38189859926078 42.84706267094411 1.4558915086835398 0 0 0
187 1 15.456152308010656 44.46455485887232 3.027812557344877 0 0 0
173 1 1.49380529195521 46.41802348151781 1.1497884968316263 0 0 0
181 1 8.002263645688059 46.060390319142854 1.3784550111116092 0 0 0
178 1 6.3233511187169125 47.69391072197206 2.9501719554951267 0 0 0
189 1 14.504945850699466 46.02925108104654 1.317228103451434 0 0 0
74 1 0.04385541027834472 22.07206287827859 3.2073119083072337 0 0 0
176 1 4.648616126778886 49.49472080723251 1.554749263887111 0 0 0
3 1 3.036449918957512 -0.07264944103125016 2.9984333205033145 0 0 0
184 1 10.962746622508805 49.45806068305524 1.4409608436242716 0 0 0
19 1 15.953053005741978 50.91587346226456 3.1614458216226584 0 -1 0
192 1 17.592005639876955 49.395342391239765 1.4876882673986507 0 0 0
7 1 4.680674586746029 1.5705178139111386 4.786397990054697 0 0 0
201 1 6.2817182620788925 -0.005483666040802859 6.259969980207648 0 0 0
15 1 10.881860123437756 1.5595280129387816 4.609575429788381 0 0 0
23 1 17.582838310559097 1.368052959262079 4.522466368201766 0 0 0
6 1 1.4857678211720444 4.843058029374581 4.748088282449641 0 0 0
14 1 7.662896632955436 4.583127291562845 4.861780828612904 0 0 0
204 1 9.375696196056143 2.982385578009211 6.256738090930909 0 0 0
18 1 12.851219954444959 2.981919502054544 2.9474764550176613 0 0 0
22 1 14.133057667927147 4.4576787609999045 4.611951786732206 0 0 0
31 1 4.340438484404177 7.749396477255946 4.670966192244568 0 0 0
225 1 6.003046200045823 6.516000296822276 6.436844397351101 0 0 0
39 1 11.033231978296962 7.677907744737572 4.54264259798498 0 0 0
43 1 15.60084902679561 6.028440002214016 3.0878913002379136 0 0 0
47 1 17.271497858335287 7.841730650282923 4.7415483329011865 0 0 0
30 1 1.0806660785833808 11.334296242380852 4.7849332732666445 0 0 0
34 1 5.8455908977568605 9.676761024379681 3.2517217544249304 0 0 0
38 1 7.785067569023255 10.904988993479455 4.946596018683902 0 0 0
42 1 12.481592936491348 9.439490031679975 3.1410437967298424 0 0 0
46 1 14.212246269316482 11.205333650352275 4.632333045619182 0 0 0
236 1 15.992588493670972 9.545875667683362 6.0612639138265685 0 0 0
36 1 9.237292881507832 9.270757078219555 0.30992957041626445 0 0 0
55 1 4.807867799118825 14.171639451193855 5.014514912525979 0 0 0
249 1 6.4026369273385315 12.613953001893409 6.574228920021706 0 0 0
59 1 9.197075412123194 12.64152174956418 3.2596833923976707 0 0 0
63 1 10.923238074836961 14.374645993148297 4.615757503714722 0 0 0
67 1 15.917929747123313 12.852296063452265 3.39444568958674 0 0 0
71 1 17.645787101893752 14.37943586560956 4.820902268319196 0 0 0
767 1 17.24835474415637 46.58391809986145 23.73736419647858 0 0 0
54 1 1.5454252892619231 17.448010163083985 4.399160913275265 0 0 0
244 1 3.0276567595995916 16.178182920952647 6.4857907317732275 0 0 0
58 1 6.073873503576413 15.772339589436498 3.2042284124823275 0 0 0
62 1 7.8234143185791405 17.356463314113746 4.7965796047306775 0 0 0
252 1 9.676139972371017 15.78551755733359 6.221950400216076 0 0 0
70 1 14.354457786451013 17.56485301996958 4.583971480922864 0 0 0
260 1 15.738731910259856 15.770312226064398 6.173517685818951 0 0 0
759 1 10.836952096739978 46.18394367608202 23.89745639749426 0 0 0
79 1 4.3840477072489685 20.610178944230857 4.702615441990022 0 0 0
273 1 6.435477780856966 19.601378834631454 6.040451392579535 0 0 0
83 1 9.537444541725238 19.012688788572067 2.9692096324434423 0 0 0
87 1 11.568707756218032 20.796577971535896 4.233319317422587 0 0 0
95 1 17.995977394368445 20.397061158805734 4.686469150179595 0 0 0
268 1 2.7085289034568154 22.09573486178464 6.579506030514687 0 0 0
90 1 12.96576525643188 22.69468750874423 2.4807765275113702 0 0 0
94 1 14.523123120245506 23.874377390954457 4.584218597494667 0 0 0
78 1 1.28280900110302 23.8740059649894 4.96812096417903 0 0 0
99 1 2.9840540365542942 25.40348515109515 3.7412411649553428 0 0 0
86 1 7.869671227644097 23.115021546825236 4.315666753367977 0 0 0
107 1 9.073952983511672 24.942749322197727 2.9598910205847173 0 0 0
115 1 16.06473027725131 25.35376956235228 3.0755954677985344 0 0 0
103 1 4.838064572563947 26.69629438319961 5.2528622326055725 0 0 0
111 1 10.394038230250521 26.7442353450691 4.583049555162991 0 0 0
114 1 12.294314516838377 28.445746523011298 3.23126850001973 0 0 0
119 1 17.530551664837994 27.024420182311328 4.743532062047013 0 0 0
123 1 2.974041880111068 31.477564225616632 3.3039281063940757 0 0 0
1 1 -0.022367817286401248 0.19060758323125088 0.1655254041462903 0 0 0
102 1 1.3562780279781432 30.203029503963776 4.9942181766172595 0 0 0
110 1 7.704678409467116 30.473978022714128 4.90729795888328 0 0 0
139 1 15.863346010772132 31.667444710254024 3.2382367806708707 0 0 0
118 1 14.098819458925893 29.873277357611276 4.539292853062553 0 0 0
127 1 4.273417539005742 33.8105634014443 4.50668816489631 0 0 0
130 1 6.123371256874669 34.765024070570504 2.417160295100019 0 0 0
135 1 10.743861940430225 33.449878640240314 5.023816580776719 0 0 0
324 1 8.910443917766372 35.14043309790027 6.1210031272329735 0 0 0
138 1 12.187409316370797 34.72142953100837 3.256793154048914 0 0 0
143 1 17.447007542865464 33.728419754500266 4.468607509123186 0 0 0
126 1 1.8637509634460576 36.87934549640488 5.052381935517285 0 0 0
155 1 9.29709412530109 38.239717031705354 2.7926257732180035 0 0 0
134 1 7.254759569905854 36.744958451329296 4.090236129110569 0 0 0
142 1 14.107629888115882 36.01350667287784 4.845511616416492 0 0 0
50 1 0.05683063153434631 15.76528703939864 2.886402736624227 0 0 0
340 1 3.001659798425842 41.570006667947595 6.356705431107497 0 0 0
151 1 4.767278140080946 39.76786029719749 5.049591282633814 0 0 0
154 1 6.1782294054364755 41.44967576633405 3.1795904289154007 0 0 0
159 1 10.983144075866093 39.459939556248145 4.430481612275647 0 0 0
356 1 15.833094457008073 41.156035061918956 6.33478522060497 0 0 0
167 1 17.368178381151893 39.61200101891002 4.820776947888987 0 0 0
554 1 0.07111192565044525 48.09209333155458 15.742124743704904 0 0 0
171 1 3.047414706661255 44.56832291106568 2.5572757173232725 0 0 0
150 1 1.810418450455489 43.00404670406003 4.568155292948788 0 0 0
369 1 6.261213191609445 44.359596423763264 5.726040385933103 0 0 0
158 1 8.083480785872917 42.840548779909824 4.318932856452734 0 0 0
166 1 14.227528629816705 42.402629540139884 4.478128954434914 0 0 0
2449 1 19.038489314648725 38.45510639701034 25.24213422220251 0 0 0
364 1 3.2162157311419284 47.87017262935625 6.5454977398520064 0 0 0
175 1 4.470315286297031 46.12128720216164 4.615024580224986 0 0 0
186 1 12.858140637169841 47.849127791348394 2.77995389283631 0 0 0
183 1 11.121635102009328 46.225310530819485 4.225964223877334 0 0 0
377 1 12.841764106038196 44.67852151487614 5.549361523232826 0 0 0
191 1 17.591180957346545 46.25981755629566 4.606810539604797 0 0 0
174 1 1.7122831756421752 49.68581405844539 5.1043954742677915 0 0 0
182 1 7.759022339843257 49.371229789440164 4.34265903085825 0 0 0
190 1 13.925437439871162 49.38709487771385 4.451026979400389 0 0 0
197 1 1.278275679342556 1.6446577171200671 7.968239410554199 0 0 0
205 1 7.934258828134201 1.547251069612543 7.97911977577567 0 0 0
203 1 9.636451934797595 50.933668165606406 9.2519477013299 0 -1 0
213 1 13.979434978128877 1.51409191271801 7.640080873438723 0 0 0
211 1 15.96075452829735 -0.04527433085895893 9.351647680025664 0 0 0
145 1 0.21005592395939732 38.232803811433456 0.32020821758828083 0 0 0
196 1 3.0881747258529297 3.0502123516706203 6.3642606720855115 0 0 0
200 1 4.936235785660019 4.821325917101431 7.946223948777009 0 0 0
202 1 6.387275542487971 3.1128091430253324 9.480451039674689 0 0 0
208 1 11.032593648014489 4.816511759527075 7.518407471806366 0 0 0
210 1 12.375097379443675 3.146492621227594 9.294673904921993 0 0 0
212 1 15.806912412257486 2.8152269428918304 6.036631876701141 0 0 0
216 1 17.171740923354136 4.714654272181724 7.679655299723025 0 0 0
751 1 4.520821603503814 46.25008581810707 23.81256966258864 0 0 0
221 1 1.5422673734404562 8.090772436326386 8.032900473587059 0 0 0
229 1 8.091823147050825 8.182506647148575 7.721760643891954 0 0 0
227 1 9.561680693500719 6.439453430412108 9.393948239549497 0 0 0
233 1 12.812958345781434 6.255411232357961 5.806607167576798 0 0 0
237 1 13.749551073383214 8.268049421857885 7.342935224026796 0 0 0
220 1 3.076490027425018 9.723206092220327 6.264902357615039 0 0 0
224 1 4.881653226883386 11.136685541590516 8.094001678887807 0 0 0
228 1 9.87695469285568 9.496810700590723 6.198962877958826 0 0 0
232 1 10.902964731261637 11.322392306979243 8.379338966088948 0 0 0
240 1 17.451538184458894 10.626323924243215 8.13955071202226 0 0 0
245 1 1.5790034594410423 14.233173309065027 8.125850994320519 0 0 0
253 1 7.948380374282767 14.5753612315692 7.896194055119068 0 0 0
257 1 12.176868889236834 12.611578672398506 6.265046931555097 0 0 0
251 1 9.320044458269487 12.95033746720843 9.674218597419927 0 0 0
261 1 13.972581066861068 14.132364832086992 7.678554345599878 0 0 0
248 1 4.815909571973317 17.956377384539795 7.760685977879851 0 0 0
250 1 6.328444778276156 16.18441852965972 9.16623552794527 0 0 0
256 1 11.013936711723783 17.38074663547684 7.919505042740413 0 0 0
258 1 12.464872099461518 15.879206663042172 9.546681888540745 0 0 0
264 1 17.177274677521435 17.407999342452367 8.012636725382622 0 0 0
269 1 1.3088795989921427 20.607139772181352 7.92568788509095 0 0 0
267 1 3.2620583146924056 19.438776685131195 9.504885132738288 0 0 0
277 1 8.076516496318343 20.783087243375842 7.813687941298688 0 0 0
275 1 9.367091308428453 18.785375135318436 9.682744698138569 0 0 0
281 1 12.434347037549706 19.002027601920613 6.208388262555029 0 0 0
285 1 14.361957558173765 20.473048770976426 7.615139873985309 0 0 0
763 1 15.739755682968958 44.70677078678436 22.25203363088327 0 0 0
2258 1 19.012871554593243 41.37757909834882 21.968373375870115 0 0 0
272 1 4.689879722153421 23.690498905510207 7.942478045286583 0 0 0
274 1 6.247024675463135 22.101574602378896 9.364439218431045 0 0 0
276 1 9.589356407012538 21.969208446366657 5.925923033483935 0 0 0
280 1 10.755247337119476 23.533101339767164 7.928571226507888 0 0 0
282 1 12.59252537441032 21.995351471330913 9.317229768518253 0 0 0
284 1 16.125021642348017 22.190781696377332 6.042235952624257 0 0 0
288 1 17.677900892322192 24.08433121406833 8.047561104366741 0 0 0
742 1 13.941959632413948 43.27238769706855 23.882280095602656 0 0 0
293 1 1.7157520902382026 26.919737666139266 8.456122059402437 0 0 0
291 1 3.467114429258609 25.438740598729154 9.853704724975412 0 0 0
297 1 6.539670748434592 24.899077191102585 6.468306532173317 0 0 0
301 1 7.665980887754592 27.124653793944777 8.090477841000151 0 0 0
305 1 12.380860657182742 25.055819187601838 6.1009031469344075 0 0 0
309 1 13.997488658105864 26.771377796639477 7.93710977771862 0 0 0
122 1 0.03842073348482314 35.13206416646014 3.474735078636547 0 0 0
292 1 3.28263017592398 28.555184733822056 6.587082462552604 0 0 0
300 1 9.301815399104271 28.77844396037487 6.260299671445514 0 0 0
298 1 6.0321645758964255 28.857237368825785 9.4000040990066 0 0 0
308 1 15.67138788244033 28.340251404638224 6.298588899212214 0 0 0
296 1 4.674083279988773 30.72398472776497 8.115204172090017 0 0 0
315 1 3.232245397196882 32.19549925272774 9.684996472594353 0 0 0
321 1 6.049874682903438 32.06929323917754 6.178796202800571 0 0 0
304 1 10.831330712783442 29.943849881300117 7.987364307543956 0 0 0
329 1 12.539692144128201 31.47699307625664 6.430266873386283 0 0 0
312 1 17.30251483113515 30.28601614911199 7.344926966438256 0 0 0
116 1 16.046174572823134 28.575264448416014 0.10512418262387188 0 0 0
316 1 3.113173271303251 35.095029342241716 6.618946584781646 0 0 0
317 1 1.4283486748467922 33.69545534149847 8.18969012794814 0 0 0
322 1 6.792312714443997 35.07304110851908 9.622572476804761 0 0 0
325 1 7.73673953903934 33.3969550863563 7.574430810181775 0 0 0
330 1 12.741321962772142 34.949054059564375 9.291868094987372 0 0 0
332 1 15.852451258765884 34.91509567684987 6.581310187915136 0 0 0
333 1 14.18491120640588 33.275389128887625 7.8710083625150125 0 0 0
140 1 15.765493566695525 35.08313603332083 0.2701495413064257 0 0 0
320 1 4.815462839817677 36.37806632886378 8.142997553663534 0 0 0
345 1 6.444673039256651 38.15871256149444 6.1581967360264604 0 0 0
328 1 10.626505581620181 36.76993852839276 7.836807107554465 0 0 0
353 1 12.74848566188754 38.06586922138132 6.038870726838713 0 0 0
336 1 17.77395763772323 36.57574089863138 7.846282488726549 0 0 0
361 1 0.12260044141947823 44.673428613583226 6.1275798341308505 0 0 0
341 1 1.4225814210440135 40.04711021138047 8.025213898437753 0 0 0
349 1 8.007670472181719 39.608692068477396 8.032647757654324 0 0 0
346 1 6.409714459012444 41.17291946572752 9.604504897889438 0 0 0
348 1 9.541047726235576 41.35670153347088 6.076160707849628 0 0 0
357 1 14.191909856503667 39.76048575291193 7.876807772930276 0 0 0
363 1 3.066941039476747 44.39196223370509 9.183481580944353 0 0 0
344 1 4.786862017578579 42.86472468469309 7.940502265768663 0 0 0
352 1 11.448763518641712 43.13514982447299 7.355844516407429 0 0 0
360 1 17.124079452678703 42.87219038941288 7.992490508034585 0 0 0
365 1 1.435431158308451 46.185680152193086 7.836703997885156 0 0 0
370 1 6.6931419195781094 47.84689452931816 9.374817081479925 0 0 0
372 1 9.582751405292292 47.73333150137553 5.755347559179424 0 0 0
373 1 7.844343513380851 46.23577623910444 7.211541558501628 0 0 0
380 1 15.752058740679962 47.8693379788518 5.908182676079903 0 0 0
381 1 14.18066982689509 46.051482621484865 7.548843458524838 0 0 0
195 1 3.0878352676324456 0.1113506698967745 9.596448011963625 0 0 0
368 1 4.788765643823221 49.46890728555195 8.121149590276627 0 0 0
209 1 12.175026454986131 0.020752697567232303 6.233338108608105 0 0 0
376 1 11.021357174163505 48.90541356905561 7.637213759285138 0 0 0
384 1 17.33830010471084 49.54475707922528 7.721722948256932 0 0 0
199 1 4.749431108696854 1.8064461402258225 11.141612254687542 0 0 0
207 1 10.81584222016327 1.6068887040678361 10.955231935286383 0 0 0
404 1 15.54606817651295 3.2067835293046305 12.503768328261765 0 0 0
215 1 17.074054927877377 1.6353809360485771 11.002628037812144 0 0 0
198 1 1.277384188500502 4.806643304761482 10.782530181015472 0 0 0
206 1 7.628602526850402 4.734481999773003 11.187862538917265 0 0 0
417 1 5.889456856297464 6.359260889629759 12.955362691548183 0 0 0
214 1 14.108131820060064 5.018474077306182 10.782597872977986 0 0 0
219 1 3.3032193924614512 6.446350803430776 9.41806270128652 0 0 0
223 1 4.802135049623962 7.945878254601286 11.126194850584792 0 0 0
231 1 10.886513408661758 7.929021275808742 11.309475615880103 0 0 0
235 1 15.470707834712558 6.650615497381098 9.2130960044232 0 0 0
425 1 12.371551226891297 6.377019583957983 12.830775021276057 0 0 0
239 1 17.33518683670609 7.849949317595904 10.854470456103895 0 0 0
734 1 7.606412330414152 43.20458199293908 23.881997466812248 0 0 0
222 1 1.4321367192495784 11.07066269359444 11.425877149682192 0 0 0
226 1 6.430215188920633 9.532872321368517 9.572563288310889 0 0 0
230 1 7.854937359786862 11.169478321638147 11.11929981260073 0 0 0
234 1 12.470558272927443 9.440234826424572 9.515828288950514 0 0 0
238 1 14.1281959119575 10.964974285582766 10.916705314965274 0 0 0
243 1 2.978199183655377 12.600830589812558 9.554911636962075 0 0 0
247 1 4.901919126956994 14.328062812840272 11.07201114913497 0 0 0
441 1 6.231710540473908 12.706958620838956 12.90568345867373 0 0 0
255 1 11.191295519263313 14.28542314867665 11.545462464464205 0 0 0
259 1 15.64761843767336 12.572647903954799 9.257226094047173 0 0 0
263 1 17.475526139693198 14.094175728777445 10.939661941014306 0 0 0
246 1 1.8032948765910444 17.28359408554847 11.453528103946995 0 0 0
436 1 3.2431171380063253 15.577457014794506 13.178095232641487 0 0 0
254 1 7.575124577874725 17.32141762751245 11.263640817224404 0 0 0
444 1 9.254600879627414 15.829123137758257 12.640969321640107 0 0 0
262 1 14.099545265998351 17.49669599472763 11.225805368971276 0 0 0
271 1 4.958938277486819 20.574024263690095 11.255805684103482 0 0 0
465 1 6.030124701384803 18.86512826577675 13.030681869605587 0 0 0
279 1 10.951259211072049 20.60248046421374 10.929378586197599 0 0 0
473 1 12.706055955092454 19.07438696144011 12.677788278633567 0 0 0
283 1 15.992677286144822 19.2689088300611 9.652802322748379 0 0 0
287 1 17.878536382000096 20.639640517874412 11.41140082141833 0 0 0
270 1 1.494768241382847 23.61042924937902 11.234149932338 0 0 0
278 1 7.770921153608808 23.752915175054774 10.931260027518709 0 0 0
468 1 9.179613416329573 22.157539664899065 12.802435818357308 0 0 0
286 1 14.2759553066717 23.63912643063059 10.985611821491823 0 0 0
476 1 15.977422020030136 22.352427891742806 12.615568810154253 0 0 0
1777 1 19.028356656876788 12.68612459885391 6.670925735639785 0 0 0
295 1 4.954272808833892 27.177381399455484 11.516099707613433 0 0 0
299 1 9.457409513948418 25.306863763711444 9.240202829730537 0 0 0
497 1 12.36089188336782 25.1944749186872 12.677751860205404 0 0 0
307 1 15.83813621545681 25.406559143061905 9.163787641259045 0 0 0
306 1 12.661117950132166 28.46188575310011 9.582226082488072 0 0 0
303 1 10.949837828439765 27.032996187256526 11.133227593168819 0 0 0
311 1 17.13524836848934 27.09123945029215 10.812442384894807 0 0 0
500 1 15.623877666406386 28.442895387092424 12.573422635972737 0 0 0
2233 1 19.038758908167896 31.610592530231102 19.00953095857573 0 0 0
294 1 1.686738014581804 30.392448985415456 11.27357473852573 0 0 0
302 1 7.580472767966619 30.470397219548254 10.998681669894939 0 0 0
513 1 6.50123759380647 32.23263393357202 12.731837617197517 0 0 0
323 1 9.467227009382366 31.88010475592636 9.4943717387612 0 0 0
310 1 14.031828572625338 30.129547541489885 11.14265181453651 0 0 0
331 1 15.805340070458156 31.529998261627597 9.47102079343615 0 0 0
1970 1 19.03236999580914 15.924265442132718 16.042754394106012 0 0 0
319 1 4.8131695374450425 34.11757419389967 11.214880316569785 0 0 0
327 1 10.84953726667372 33.65580003098016 11.031616941260356 0 0 0
516 1 9.431643711112473 35.286347799743524 12.941933194184607 0 0 0
335 1 17.60483305303741 33.079458068443984 11.062605910809825 0 0 0
755 1 9.145057823347004 44.83247656876736 22.24244517297094 0 0 0
318 1 1.197284843271256 36.81085252224622 11.442903533334183 0 0 0
339 1 3.1729174340410395 38.027590650042626 9.58438462566151 0 0 0
326 1 7.866089948559319 36.89025518685655 11.449960148513165 0 0 0
347 1 9.627985809018304 38.39620530629152 9.981335346304835 0 0 0
334 1 14.589980735041838 36.401127439278994 11.20162250857015 0 0 0
355 1 15.896162963737133 38.14045579633708 9.573614761799137 0 0 0
343 1 4.51469315306268 39.94378177282405 11.471246440034392 0 0 0
351 1 11.12934870241104 40.161114942691995 10.964181999406852 0 0 0
354 1 12.710062941605871 41.54531172515176 9.289027959941814 0 0 0
359 1 17.21252289887733 39.79145238851079 11.13618846879237 0 0 0
342 1 1.6682412215518652 43.350888237786535 11.237316888509149 0 0 0
338 1 0.027537011572782044 41.598263874638036 9.625742717520005 0 0 0
350 1 7.882588601297471 42.80553094673408 11.045113102979217 0 0 0
371 1 9.267809310933053 44.354339489769345 8.970150083074824 0 0 0
561 1 6.480836999731013 44.597471869174285 12.527311387913384 0 0 0
379 1 15.568953898908813 44.48398259081705 9.538912547488934 0 0 0
358 1 14.291435822317599 42.9022481631589 11.159075421277786 0 0 0
367 1 4.834792716159962 45.95541614664343 10.782262291862347 0 0 0
564 1 9.379720721699934 47.623341617127934 12.661765258701227 0 0 0
378 1 12.541678567832252 47.67188712816041 9.462477210702822 0 0 0
375 1 10.833425330913563 45.70389766774041 10.740154828904291 0 0 0
383 1 17.373894651370453 46.23699945406986 11.068153847373905 0 0 0
366 1 1.8650926003047499 48.96820946905632 10.716684531354522 0 0 0
374 1 7.919472043690089 49.49409206115196 11.164411811396366 0 0 0
382 1 13.952114081169064 49.4480130474348 10.857272922340613 0 0 0
389 1 1.730558951149146 1.681151582123946 14.243092796564756 0 0 0
397 1 7.477799080815219 1.3308065663272164 14.22755152604001 0 0 0
405 1 14.115022659229176 1.4131967216013583 14.284168110042456 0 0 0
403 1 16.085415489828037 50.82999300709713 15.669759559334505 0 -1 0
388 1 2.847177193073116 3.3751829333816676 12.660120935888257 0 0 0
392 1 4.526599263852518 4.745731337616203 14.723255416106834 0 0 0
396 1 9.322276812086397 3.1029668623831137 12.809149777812445 0 0 0
400 1 10.87852769051008 4.757257409793353 14.458004980045141 0 0 0
408 1 16.94936224515528 4.870902587765461 14.129909828096203 0 0 0
413 1 1.4344620933371017 7.796448004044599 14.521103932718095 0 0 0
421 1 7.556591208741209 7.625796101285993 14.233294755941772 0 0 0
429 1 14.117892447508572 7.616461720080746 14.43234574934638 0 0 0
427 1 15.616860194395247 6.189381319844126 16.11504113386419 0 0 0
726 1 1.6076554126586036 42.78974377595836 23.65512383356514 0 0 0
412 1 3.086740603526595 9.372873375052468 12.765326785137619 0 0 0
416 1 5.0372731595632985 10.630137853339336 14.380026905269693 0 0 0
420 1 9.21670279083754 9.59028539946395 12.766786734114644 0 0 0
424 1 11.188890639080524 11.202592721155455 14.142063341500899 0 0 0
428 1 15.74843010061441 9.297164967984575 12.510091818350755 0 0 0
432 1 17.20129232443074 10.870386246347215 14.03568328667766 0 0 0
747 1 3.459654382941065 44.562244550871014 22.039045384799262 0 0 0
437 1 1.4135670509882978 14.136636271752534 14.493181695667399 0 0 0
435 1 3.57096568954056 12.63062897936257 16.04642374918016 0 0 0
445 1 7.753403878019031 14.152086653201676 14.443850870762834 0 0 0
443 1 9.792939990566675 12.79963245162104 15.975711482820529 0 0 0
449 1 12.896392375303648 12.662245944381079 12.699576689798631 0 0 0
453 1 14.332697579246132 14.582754945555202 13.914208891111114 0 0 0
2186 1 18.712652119705123 22.141745098759895 22.350526313244544 0 0 0
440 1 4.703496564684991 17.279467649196288 14.637390297162344 0 0 0
442 1 6.457868920995206 16.039192345225796 15.956225291276215 0 0 0
448 1 11.002679559225179 17.379374739766522 14.11429511149775 0 0 0
452 1 16.210586127566653 16.014547967355867 12.474725294161587 0 0 0
450 1 12.941338611476013 16.192325184365043 15.760517278790644 0 0 0
456 1 17.687732816401255 17.467163241504576 14.159798032620602 0 0 0
461 1 1.7816227098618904 20.422999606818944 14.20027924932272 0 0 0
469 1 7.865826924027912 20.444619024971338 14.518342632913425 0 0 0
477 1 14.36912960961588 20.534327381214254 14.23534273223941 0 0 0
475 1 16.024968917942275 19.006167598855207 15.828314425530413 0 0 0
460 1 3.2350410951125537 21.944118150756825 12.984206526570485 0 0 0
812 1 16.101830767441182 9.28961606653163 25.111504757664154 0 0 0
466 1 6.402761604899089 22.370501193821003 15.950744728461814 0 0 0
472 1 11.248361614627159 23.547223914230486 14.25736655192347 0 0 0
474 1 12.77073668071592 21.985542321371046 15.806881625667145 0 0 0
480 1 17.583655045809756 24.13548420444534 14.03900419890046 0 0 0
485 1 1.4978661076443975 27.410254112094922 14.39463325960413 0 0 0
464 1 5.155203618268546 23.935247308812773 14.118151509665879 0 0 0
483 1 3.368671246441949 25.50837397058392 15.55771994549753 0 0 0
489 1 6.688697136151916 25.318772603839133 12.671958494743546 0 0 0
491 1 9.33448678526185 25.501009229952604 15.69355346037163 0 0 0
501 1 14.048046890389651 26.726271781832274 14.07027598614072 0 0 0
499 1 15.783834664704628 25.45720435934391 15.880081285990533 0 0 0
743 1 17.44508230055291 39.90006924612909 23.793914478107812 0 0 0
553 1 0.1076382510167751 44.64931483502019 13.134734830429023 0 0 0
484 1 3.0888350481180638 28.95243273498861 12.903577309113345 0 0 0
493 1 8.060543170552359 27.306788846478252 14.124948725960113 0 0 0
492 1 9.571630311154088 29.095667884944465 12.699839434245186 0 0 0
498 1 12.648301686425494 28.4319843431962 15.926033642639815 0 0 0
504 1 17.186595175590444 30.174740317190867 14.146228100035145 0 0 0
488 1 4.881825081558089 30.611222685845725 14.412965751199936 0 0 0
496 1 11.501240077552593 30.31885905567498 14.45169555237209 0 0 0
521 1 12.795482868624758 32.02911567526917 12.836506827226199 0 0 0
509 1 1.3692247668549284 33.73107000811518 14.564715608979888 0 0 0