LAMMPS data file via write_data, version 29 Oct 2020, timestep = 100000

8543 atoms
1 atom types

-0.19804581933264132 104.58586147818414 xlo xhi
-0.24482132188410688 51.31505963414084 ylo yhi
-0.24482132188410688 51.31505963414084 zlo zhi

Masses

1 18.015

Atoms # atomic

1487 1 2.702108416483956 1.019581487299694 2.0127892973788546 0 0 0
2100 1 4.024771487696834 50.8328540660076 0.6393150149203217 0 -1 1
2102 1 10.724717960126288 51.13505672533371 0.6078391259676932 0 -1 1
2104 1 17.315465440297718 50.97485797342755 0.4010449471955305 0 -1 1
761 1 15.903621983386621 1.3200779600140289 2.479471601934028 0 0 0
2767 1 21.958365019357917 0.9026228565181835 1.7580868604933784 0 0 0
2725 1 23.81912112180002 51.016831613043706 0.40525557041524096 0 -1 1
2731 1 26.856582498196246 2.1488105276316576 0.09334482550137824 0 0 1
2239 1 28.570708090073357 0.7350879880188501 1.8136993987582306 0 0 0
2727 1 30.132590656707965 50.85727593080952 0.06798791078379568 0 -1 1
2106 1 1.3197860027178125 2.615301970415092 0.44358758875177473 0 0 1
2109 1 7.593624342484845 2.2718922942565416 0.5776194230783308 0 0 1
1944 1 6.397629262194644 4.237909327072242 1.8685235296195533 0 0 0
2111 1 14.180635442838124 2.620355073213535 0.5850718068167734 0 0 1
2728 1 20.37324635243725 2.7909222270913285 0.3365895665048644 0 0 1
797 1 19.073974898035615 4.202056892661716 2.6411469166499355 0 0 0
2176 1 25.476458537841385 3.8531944989255305 1.79124200525631 0 0 0
2221 1 31.790421260269977 3.7509815175670043 1.9706672042089428 0 0 0
2732 1 33.65126566440999 2.678148708281648 0.19878108431327396 0 0 1
2092 1 2.882423340889415 7.559702471657233 1.8812931043090697 0 0 0
2112 1 4.274610365561976 5.822613529698197 0.5172515466053319 0 0 1
2113 1 10.785208932273951 5.776326340878916 0.6926865471569207 0 0 1
2150 1 15.710637382051711 7.059115344045051 1.7531946938572622 0 0 0
2115 1 17.688487077000737 5.590978891023007 0.3919416670925615 0 0 1
2219 1 22.123478584256592 7.184788546883049 1.9703915442135873 0 0 0
2734 1 23.65653092711307 5.968865374079808 0.26823097500224635 0 0 1
2735 1 30.47423705843969 5.750480005569667 0.30334104264476613 0 0 1
2768 1 28.683740483697086 7.488075843807883 1.536869027786874 0 0 0
2116 1 1.1128254179480184 8.780434528761964 0.27880470549721514 0 0 1
2120 1 7.400193766730396 8.83416988575569 0.47302449416687775 0 0 1
763 1 6.147172931496289 10.54103425180006 2.442638734575315 0 0 0
2125 1 12.574236949001502 10.371322172766012 1.799070984627129 0 0 0
2122 1 14.03704002297681 8.79867692562715 0.21345493072629973 0 0 1
1423 1 18.722102215760096 10.669280624573878 1.8708727445028352 0 0 0
2738 1 20.393369756577393 9.051609183229258 0.6041406810328668 0 0 1
2763 1 25.680453189894042 10.394419223672985 1.6055532860455979 0 0 0
2739 1 27.252999378095986 9.227865706332876 0.0028167226420965363 0 0 1
2740 1 33.649257499002495 9.343393291761155 0.3564782186917437 0 0 1
831 1 31.91540540072397 10.426163807323077 2.4653995966012574 0 0 0
1720 1 2.5036190182544806 13.569852278690943 1.7497690033081637 0 0 0
2126 1 4.356823141993184 12.180181004382732 0.3437541265375139 0 0 1
2127 1 10.9125509973371 11.977443221681868 0.36853268015354046 0 0 1
1478 1 9.372680184942505 13.645332239610319 1.7008695303637216 0 0 0
2017 1 17.134176735509385 12.047168845086343 0.39722386736747894 0 0 1
760 1 15.697216456731102 13.48146983985404 2.4260868267449154 0 0 0
2741 1 23.96337307716913 11.914388068311595 0.2509849326639773 0 0 1
2770 1 22.488313313910734 13.743261458264906 1.7630653362865605 0 0 0
2742 1 30.29610419050645 12.33343178863062 0.7193150942439841 0 0 1
1386 1 28.464419172903952 13.681042644146737 2.4997428038866847 0 0 0
2130 1 0.9226654926849196 15.49808156364248 0.35896354813051146 0 0 1
1719 1 5.722181988047675 16.8238390993721 1.953468658596952 0 0 0
2132 1 7.527793476282611 15.101337046876735 0.3114149325766792 0 0 1
2117 1 14.420023726309992 15.288607424839379 0.41495684762021456 0 0 1
2144 1 12.651925902098592 16.868099312469848 1.8356697951569694 0 0 0
2744 1 20.76907596684691 15.306193936511406 0.36153572673404155 0 0 1
1685 1 18.91765605508535 16.827294872373432 1.7719281755493497 0 0 0
2179 1 25.07408038284854 17.14235583570504 1.9995136386020782 0 0 0
2745 1 27.094251855845922 15.600605906296476 0.5779880129075872 0 0 1
2750 1 33.488406684521514 15.449073374869755 0.41272374556402647 0 0 1
2242 1 32.03329633909851 17.22285862141778 1.772439507612754 0 0 0
25 1 2.804009736556047 19.86552151723185 2.5154201119513497 0 0 0
2066 1 4.417378240958546 18.045923251063233 0.34100344485851797 0 0 1
1860 1 11.221875820203007 18.591204388442574 0.04231189785818351 0 0 1
612 1 9.34025944256759 19.63664777791308 2.5080137071027675 0 0 0
1767 1 17.065054273056017 18.869070435173114 0.18572472010266716 0 0 1
256 1 15.927472234527993 20.153424755155065 2.593716628406985 0 0 0
2545 1 21.779443860641173 19.959026656541074 1.797323314500944 0 0 0
2753 1 23.506856956854435 18.34527541773773 0.01985730213683945 0 0 1
2749 1 30.19797537072034 18.608637478929978 0.36359558750232146 0 0 1
1394 1 28.671280590214298 20.05796182606885 2.4838989912531018 0 0 0
2128 1 1.2660094570763953 21.337805698810328 0.7893940491059395 0 0 1
2133 1 7.826226843421029 21.708986103327582 0.6269493699202778 0 0 1
1734 1 6.097312715267609 23.22684971111474 1.925442978992209 0 0 0
1891 1 14.603397695383581 22.023509488025894 0.6225406809035917 0 0 1
2164 1 12.47860453127419 23.296319324632236 1.7088084388815592 0 0 0
2755 1 20.25075786409595 21.592833450129287 0.450572259327194 0 0 1
2758 1 27.018934458146013 21.607790726190622 0.541423788539819 0 0 1
2426 1 25.15913876336535 23.327546936729757 2.002277372680038 0 0 0
2760 1 33.80249236259517 21.648531408945598 0.49745083464039863 0 0 1
2526 1 31.84612033182264 23.239553393371004 1.9106005510979802 0 0 0
2008 1 4.408134578726242 24.810976555889745 0.4994173895320796 0 0 1
1972 1 10.966673243644488 25.082037370728827 -0.06494216577563797 0 0 1
1873 1 17.31109044085349 25.033086657617332 0.10646453659726807 0 0 1
765 1 18.888717703901317 23.63453954071154 2.572188637111736 0 0 0
2757 1 23.714225344306723 24.881212494523663 0.14830713058921358 0 0 1
2774 1 22.229605926943723 26.33328315099824 1.8045772653866248 0 0 0
2746 1 30.12810447641381 24.76768200766686 0.39712933871394396 0 0 1
2073 1 1.175428844583766 28.089995482391874 0.7083742862964505 0 0 1
762 1 2.9504314183219322 26.613829240515333 2.58374283373004 0 0 0
2055 1 7.4751570175737845 27.901850136160206 0.45833500544928163 0 0 1
1579 1 9.381005417524031 26.555884573690268 1.6543108615426008 0 0 0
2031 1 14.354097130608423 28.238730570537854 0.14203349070831262 0 0 1
2733 1 20.51501280117217 28.230656373935453 0.4512405792526283 0 0 1
2716 1 26.980403236519845 28.15846743641621 0.4613101372991997 0 0 1
1387 1 28.622979399369175 26.517986410165935 2.458507080400083 0 0 0
2737 1 33.118168341362484 27.87372237227971 0.1439884399976089 0 0 1
1384 1 31.930491827333626 29.247014738175316 2.6350624233149142 0 0 0
1938 1 4.425717919127533 31.578765086542806 0.5381220667826009 0 0 1
756 1 6.287719282734184 30.28003915283132 2.4286682593052484 0 0 0
1911 1 11.253023000571712 31.325276971711666 0.09876726692075688 0 0 1
1816 1 12.755828485469351 29.761211146336674 1.5466751222760664 0 0 0
1839 1 17.440191638247377 31.235857812375684 0.4827895694253449 0 0 1
1245 1 18.96971236891418 29.608138503699106 2.407057303564711 0 0 0
2729 1 23.437972670863104 31.108162341670464 0.10421363280866464 0 0 1
2170 1 24.974732919647227 29.535476312417565 1.5459072496940847 0 0 0
2706 1 30.1225572604541 30.743219009236835 0.5918069167186445 0 0 1
1799 1 1.5505841191020453 34.88414311815312 0.5893223486550864 0 0 1
447 1 2.9829040757036513 33.05721705164102 2.5909973531364487 0 0 0
1768 1 7.4776968970046624 34.50288494175231 0.4398235237786271 0 0 1
1964 1 9.29207788983868 32.75708480800688 1.7125022501270153 0 0 0
1733 1 14.249237458146869 34.84179897404553 0.1210462823435226 0 0 1
2136 1 15.667384805422902 33.21140108777128 1.759611873269599 0 0 0
2684 1 20.80817749644139 34.832805508776175 0.5636747692466937 0 0 1
2772 1 22.244982502318408 32.89493707072471 1.649395944911175 0 0 0
2773 1 28.227878234675078 32.601868874151265 1.9624624512380948 0 0 0
2573 1 26.852522389636526 34.50719897604168 0.397625781534248 0 0 1
2551 1 33.498071547041896 34.797159389951034 0.48528342357847987 0 0 1
1272 1 28.500461937509733 49.32787132059444 24.632909191722426 0 -1 0
1623 1 4.57203722117752 37.68658811403661 0.5975092884662377 0 0 1
754 1 6.234248660322648 36.09799607707481 2.5288649411074 0 0 0
1586 1 10.916990945808314 37.69917198532313 0.6255989996052117 0 0 1
1472 1 12.585783571098505 36.01060731098656 1.9687058468920338 0 0 0
1548 1 17.3271306953297 38.071450680710925 0.46238092930335917 0 0 1
2167 1 18.810884062891017 35.981199887996 1.9261478981722147 0 0 0
2408 1 24.0652582254615 37.63319579355304 0.19417425534770538 0 0 1
2776 1 25.183094575455172 35.87067019088096 1.9780267862985315 0 0 0
2407 1 30.161355996793166 37.54274149586111 0.637064251881214 0 0 1
813 1 31.808283052173692 36.17586259531886 2.5809463053039803 0 0 0
2157 1 2.8655049316853507 39.646794135094765 1.927676608522408 0 0 0
1510 1 1.3874076218600193 41.26619893465937 0.49488367391163013 0 0 1
1493 1 7.441355289407024 41.04636991487871 0.48488744269679784 0 0 1
764 1 9.158557059947055 39.43010906027841 2.4938313506607677 0 0 0
1431 1 13.994844968900136 40.87249001227946 0.5985827920812344 0 0 1
743 1 15.6922572370521 39.51423222014921 2.5992247358457794 0 0 0
2298 1 20.67903603630705 41.19483239491797 0.24178852015835856 0 0 1
2476 1 22.072924771923923 39.37295531274957 1.6905542487137413 0 0 0
2288 1 27.108390011350533 40.910067884591214 0.0816149575207587 0 0 1
1396 1 28.497293984878414 39.09021002295859 2.4139277927667178 0 0 0
2198 1 33.117850368760266 40.8099334145932 0.8778210110427471 0 0 1
61 1 -0.18886718436545316 16.869046759917335 9.103593684355774 0 0 0
2091 1 4.422550905293834 44.4715046983693 0.31958003438339166 0 -1 1
1441 1 6.214408399082321 43.18901840105028 1.9918505854535815 0 -1 0
2093 1 11.235658274700096 44.50850466449971 0.681060999927534 0 -1 1
747 1 12.769285836040906 43.0344076484363 2.5397873467709386 0 -1 0
2094 1 17.539729260768723 44.38883485591654 0.2614874428530465 0 -1 1
1391 1 19.205305969012418 43.061371511695924 2.4243224248390667 0 -1 0
829 1 25.50443481413593 42.490830530194344 2.541235320222769 0 -1 0
2718 1 30.284945850588336 44.4242192035678 0.6984909925039172 0 -1 1
2096 1 1.3573669399589683 47.48510563603365 0.43392702012325235 0 -1 1
1903 1 3.1732635442148034 46.02460225118321 1.8740386822651405 0 -1 0
2097 1 8.043719257116248 47.499332895518265 0.5845444738636357 0 -1 1
701 1 9.770992601663448 45.91408374553211 2.6895573329912654 0 -1 0
2089 1 16.020683506561017 45.962597995073935 1.8772254745427617 0 -1 0
2717 1 23.982302145356893 44.683126175986246 0.6246244516874709 0 -1 1
1385 1 22.122297582027706 46.18934624607367 2.5436615403878275 0 -1 0
844 1 28.463799644073468 45.85301355836138 2.6065586269605183 0 -1 0
2723 1 33.36784370237051 47.37067630754879 0.28376362489394624 0 -1 1
1475 1 6.162079840490326 49.19766371221097 1.968838157998591 0 -1 0
2098 1 14.37244852557056 47.79177182040944 0.6961170527711399 0 -1 1
2158 1 12.733104804965754 49.649141607919105 1.8088919290243477 0 -1 0
2719 1 20.55184003557079 48.02867858442161 0.3447371268764955 0 -1 1
755 1 18.88560134364454 49.46089494818649 2.4072894964718716 0 -1 0
2721 1 27.02705628539007 47.80883060836349 0.5225446525924721 0 -1 1
842 1 25.548815955684496 49.20426106822691 2.598843163096106 0 -1 0
2764 1 31.639409773278132 49.13475210734978 1.6072733957404608 0 -1 0
13 1 1.0697087243168462 51.20887826094517 4.065868799331451 0 -1 0
112 1 5.706151744789433 1.2165024743596684 5.7467109332561055 0 0 0
117 1 9.104748735503824 0.8096731608608254 2.7989383660390406 0 0 0
14 1 7.249713943656893 50.911917815476016 4.234570821876351 0 -1 0
114 1 12.355644143373013 0.978749132337946 5.6358079778177395 0 0 0
15 1 14.263929770949499 51.046549803085014 4.009574106986205 0 -1 0
786 1 20.596772688237916 50.86825785922058 3.863534530289498 0 -1 0
908 1 18.956651678763485 1.09090687481283 5.791970041894739 0 0 0
788 1 26.93838833886557 50.979633748369 4.1207040459741835 0 -1 0
793 1 25.274992716521982 1.0902381927373448 5.658200876517856 0 0 0
884 1 31.488995039405246 0.9116258993226649 5.573306270036396 0 0 0
790 1 32.91752497477194 51.00314570147067 3.831866080482455 0 -1 0
24 1 2.7589956323484826 4.343850635467547 5.887590402484792 0 0 0
640 1 12.648177697053967 26.393234745246524 25.30518301701391 0 0 0
18 1 4.443201867181013 2.9265502167072364 4.056474471221651 0 0 0
120 1 9.06444950783496 4.18729027560579 5.754688756480706 0 0 0
17 1 12.375009141420794 3.964047988374178 2.828698517540661 0 0 0
19 1 10.621367975413957 2.6740898692805968 4.2601082692720915 0 0 0
21 1 17.44042463208309 2.6387561234770076 4.273988378721188 0 0 0
122 1 15.798966699317605 4.398493073590682 5.88972501257904 0 0 0
798 1 21.904175436162454 3.931544802022902 5.609070435791753 0 0 0
792 1 23.676686460987202 2.5767914913178047 3.8588022711741807 0 0 0
800 1 28.332563158553747 4.093719136103122 5.599435080010104 0 0 0
794 1 29.93135263827903 2.4218964533730087 3.959222911350354 0 0 0
891 1 34.28694074571707 4.071668060947442 5.571215143727235 0 0 0
23 1 1.5533247656952562 5.832057786450813 3.794478544645856 0 0 0
166 1 -0.09437651948633644 7.317405882634186 5.380649256699954 0 0 0
127 1 5.934898427395284 7.32447276983376 5.69912104187385 0 0 0
26 1 7.802896483485327 5.836798257064594 4.1180490126296005 0 0 0
20 1 9.505732015736914 7.591500487082931 2.7295093876598058 0 0 0
28 1 14.017205202956134 5.731805161878342 4.198432892933704 0 0 0
32 1 12.632561524035241 7.3654049991826565 5.829972982244687 0 0 0
746 1 18.724891286339307 7.417295012038666 5.3363488053721 0 0 0
796 1 20.4968127077157 5.651988720622976 4.127374138790816 0 0 0
799 1 27.059462592740427 5.7506140521666005 3.7227557545947008 0 0 0
804 1 25.53658054019331 7.167477486341382 5.6210507223803825 0 0 0
801 1 33.10487191020223 5.950266189890501 3.722604932687151 0 0 0
806 1 31.896748835137075 7.354443653241587 5.614450590856299 0 0 0
66 1 -0.18562130248955142 13.51094205450421 12.220410218898815 0 0 0
36 1 2.928524079402373 10.73164362288402 5.4063530732621246 0 0 0
30 1 4.387750157615401 8.897023413309046 3.8536186113629816 0 0 0
31 1 11.158525787177084 9.042878118463655 3.9554030050176987 0 0 0
135 1 9.405510575446648 10.571409290142416 5.463624491049609 0 0 0
33 1 16.897371020342273 9.268843676980284 3.868856928649347 0 0 0
39 1 15.856184175945039 10.871909529905817 5.559695312186492 0 0 0
803 1 24.066525183460747 8.794526467888451 3.6975958172709493 0 0 0
897 1 22.18453975596107 10.933298926459361 5.2957269528339515 0 0 0
805 1 30.42478371300676 8.799727520630718 3.9260130383288177 0 0 0
811 1 28.66306215060683 10.150269392634321 5.5816780970322375 0 0 0
35 1 1.113251150755632 12.076951777905922 3.7496508752607833 0 0 0
91 1 -0.1073781181308311 13.637002795868538 5.702210806151597 0 0 0
43 1 5.918312168440235 13.39422346857512 5.439780966912089 0 0 0
37 1 7.653749747557005 11.915597314846643 3.7002942796111022 0 0 0
38 1 14.142727835910739 12.095576824976305 3.8354982477170507 0 0 0
139 1 12.840800739506687 14.260893162881626 4.974198448154641 0 0 0
808 1 20.56411628487846 12.345566078716413 3.4414328201886177 0 0 0
836 1 18.975482094068198 13.87146113909685 5.398340445482961 0 0 0
810 1 27.028964111594977 11.992079151310303 4.121380482798643 0 0 0
814 1 25.59153433143886 13.948024999951581 5.465266523225315 0 0 0
816 1 31.4119077883256 13.545338317177494 5.5218208888650215 0 0 0
812 1 33.3245058029879 12.087382900856547 4.1691053254098085 0 0 0
42 1 3.9687965155158427 15.241074003584046 4.268857362669974 0 0 0
144 1 8.941076783057996 16.51352507180077 5.454286935338734 0 0 0
44 1 10.762794622916418 15.50571317535965 3.7070329118942107 0 0 0
50 1 17.156237082462066 15.109845023774584 3.8755647115668745 0 0 0
145 1 15.946065660935659 16.925380876941553 5.570226598670928 0 0 0
819 1 21.95853185147513 16.815352187040688 5.644274074208482 0 0 0
820 1 23.689297994081222 15.182349522920687 4.088165745350789 0 0 0
815 1 30.198417328482538 15.47193470514869 3.7826145850051205 0 0 0
821 1 28.82265643724431 17.089189804114145 5.4127323968027445 0 0 0
46 1 1.2552942539138396 18.5915356296245 4.74158132413385 0 0 0
48 1 7.2547566089949855 18.450742945206372 4.110559595520554 0 0 0
148 1 12.16798500453727 20.023643532148704 5.726216099332206 0 0 0
55 1 14.511971794900997 18.502285472507424 4.144513011470107 0 0 0
823 1 20.26851820954512 18.213163981851324 3.7993594990782196 0 0 0
818 1 18.987415512494724 19.894970636985537 5.491007081256526 0 0 0
912 1 25.053392324993894 19.70183202209558 5.520489617105434 0 0 0
825 1 26.997123261946342 18.243984197046682 3.6924389298077145 0 0 0
827 1 33.52691703417498 18.631476794723586 3.7527016246805123 0 0 0
914 1 32.12974495771119 20.217860078274068 5.423273933533036 0 0 0
40 1 -0.12104483260501304 23.11073731861714 2.8496146746758457 0 0 0
150 1 2.828765141599347 23.061624631266202 5.79902341576444 0 0 0
57 1 4.375620988221359 21.514380823289294 4.088435050903248 0 0 0
60 1 10.880563554635929 21.811821325041596 3.855317770645062 0 0 0
62 1 17.626886487284903 21.72660487536924 3.9983710786690185 0 0 0
154 1 15.744271999431751 23.25189112483577 5.733198545836603 0 0 0
830 1 23.502389310637565 21.537500018080152 3.753832309381755 0 0 0
917 1 22.17907371554509 23.139036893724132 5.440751405792641 0 0 0
833 1 28.169779087670687 23.21078861294214 5.5969505337287995 0 0 0
832 1 30.236509137072574 21.6536066319223 4.299115223658703 0 0 0
63 1 1.4182547225322066 24.911290046152715 4.290923147973348 0 0 0
157 1 5.984496804909451 26.355767568843632 4.910452890004031 0 0 0
64 1 7.963552382737566 24.903468098597983 3.6219119151186576 0 0 0
59 1 9.05446836394667 23.479448947237376 5.683101280785344 0 0 0
160 1 12.060862475983775 26.31208440573939 5.751792642552782 0 0 0
65 1 13.949796433532349 24.97929171505277 3.799276946372248 0 0 0
835 1 20.47423090590951 25.05313253793042 4.225250186233897 0 0 0
837 1 26.551018045102207 24.961487834214847 4.092754157600965 0 0 0
922 1 31.43299954142514 26.39073352430326 5.5319646987508335 0 0 0
838 1 33.36107618872535 25.157869907527562 3.750160439794092 0 0 0
68 1 4.5803692215379 28.37597321847721 3.664400578994786 0 0 0
70 1 11.02401745256307 28.40828654214862 3.5465386865962105 0 0 0
264 1 15.646220630659966 26.67452622290514 2.7590774679199352 0 0 0
73 1 17.27021167038669 28.20653923490928 4.203247377783481 0 0 0
999 1 19.32542367581277 26.87689326389787 5.758013385766994 0 0 0
841 1 23.714190658494672 28.048864997705333 3.9534499565467227 0 0 0
920 1 25.112887111789043 26.603876478043738 5.783066469906378 0 0 0
925 1 22.184838412009086 29.37950069516934 5.6581365975322715 0 0 0
843 1 29.97439958456464 28.010176346586462 4.109297459474538 0 0 0
194 1 0.05916026535852542 29.8305969755052 2.8092379087212658 0 0 0
74 1 1.8368138617875172 31.56889585933036 4.263748478779654 0 0 0
67 1 3.458438635113874 29.843442281159852 5.761143436680795 0 0 0
76 1 7.760848577760668 31.746462944052038 3.8374437335664133 0 0 0
163 1 9.164671549527357 29.83752424969474 5.286681653662997 0 0 0
78 1 12.406459055524426 32.49972034941638 5.325041305388445 0 0 0
79 1 14.150394051704858 31.189797936856344 3.7078374289453198 0 0 0
72 1 15.311501351785113 29.696111701732665 5.879175464175797 0 0 0
845 1 20.622178230406742 31.208337387879983 3.9413218709223274 0 0 0
848 1 26.64054039577111 30.982256163910797 3.8561647917105937 0 0 0
926 1 28.632196149089108 29.815032489644313 5.6300912215014405 0 0 0
850 1 33.27874716862769 31.458492333133208 3.90877038899683 0 0 0
58 1 -0.08763202976514532 33.07585580414903 5.56405374548477 0 0 0
81 1 4.711153366893385 34.64563895412688 3.765066504904028 0 0 0
169 1 6.039466474860479 33.05400852457598 5.674432971635537 0 0 0
84 1 10.920531677803595 34.164829523157294 3.7660353947955043 0 0 0
85 1 17.265911660640473 34.454236183618335 3.947229935735086 0 0 0
1076 1 18.952659249808672 32.79226171623766 5.722276766886181 0 0 0
852 1 23.693356127272473 34.32257542881858 3.9328717667876756 0 0 0
846 1 24.95206117565731 32.58045355725832 5.383992067122785 0 0 0
854 1 30.195536451574597 34.328525823834866 4.05003229424241 0 0 0
933 1 31.874025694802867 32.990980187209175 5.5705883655812 0 0 0
174 1 2.9022871281146587 36.1789955818017 5.050853153529543 0 0 0
87 1 1.3455193735004698 38.0324564172699 3.6405046456285644 0 0 0
88 1 7.867208802923509 37.67409622075229 3.8696360171418354 0 0 0
83 1 9.591729486652596 36.09953717316584 5.163585796563868 0 0 0
90 1 14.383110341265802 37.64289367954956 3.8082846410126754 0 0 0
86 1 15.336250510670506 36.075016579043975 5.522346550113772 0 0 0
857 1 20.820411092270973 37.67990475671331 3.737779683010465 0 0 0
853 1 21.88294550329202 35.94595891940919 5.673256410822291 0 0 0
859 1 26.83689886091507 37.409028387500456 4.00029959595421 0 0 0
937 1 28.365087120604198 35.88949735841372 5.521745714280501 0 0 0
861 1 33.41631927884965 37.9663002814512 4.121519934065697 0 0 0
856 1 34.63947718037597 36.530064498018746 5.9055660176870175 0 0 0
752 1 -0.012670318979346312 39.8668538396649 5.473120004898405 0 0 0
92 1 4.506743638152741 41.115408375493786 4.046288659337303 0 0 0
89 1 6.1848832067562824 39.310937414913965 5.4445481123164035 0 0 0
94 1 10.833710159553883 41.07867372477591 3.9322689180584334 0 0 0
182 1 12.732957329648523 39.46647002580316 5.273984012555301 0 0 0
96 1 17.476445828851034 41.01582793264444 3.979091334230631 0 0 0
779 1 19.49128770808923 39.29644756720481 5.534189945939852 0 0 0
863 1 23.607603651464164 40.789424830340934 3.7402163659450753 0 0 0
858 1 25.489345398638324 39.19175859810123 5.505497009093194 0 0 0
864 1 30.380273199090585 40.59518525685148 4.178230054955063 0 0 0
93 1 2.891300050042411 43.00715334244575 5.492907588083662 0 -1 0
1 1 1.5794606934486433 44.588699485981934 3.940943887424055 0 -1 0
3 1 8.989029039843873 43.04288476689125 5.502015650230711 0 -1 0
5 1 14.4701909047422 44.63606600843501 3.928455270700004 0 -1 0
95 1 15.83416136017355 42.53945009846251 5.656251478083031 0 -1 0
862 1 22.040382017472258 42.49185349032811 5.420641865466617 0 -1 0
780 1 27.09070980071882 44.26740660146561 4.2119452501957015 0 -1 0
947 1 28.561437213362854 42.140425897182666 5.910013152943424 0 -1 0
851 1 31.88009844052462 42.55896097410846 2.940427937650804 0 -1 0
679 1 -0.11203229945547956 46.18436947124782 5.6475489522434605 0 -1 0
7 1 4.614301760772228 47.510225914651016 4.079633421913923 0 -1 0
2 1 7.512027786619887 44.8548249792654 4.108308594523399 0 -1 0
104 1 12.7260225778355 46.067931933144976 5.441847132145033 0 -1 0
778 1 20.531605259096338 44.670307637841205 4.047734738295598 0 -1 0
1012 1 19.00489667865437 46.17989021090551 5.4017897757760345 0 -1 0
869 1 25.283712561746125 46.091797342701526 5.556063248457854 0 -1 0
871 1 31.39251291068688 46.28118315664503 5.518986440036159 0 -1 0
781 1 33.50040241877935 44.71276666144112 4.129061073544871 0 -1 0
8 1 2.5432768496164933 49.30491134982931 5.383708267900422 0 -1 0
593 1 15.924347297048751 49.1679048157654 24.917455542457898 0 -1 0
9 1 9.061436782582268 49.345439163640066 5.599541101967122 0 -1 0
11 1 11.218741962784447 47.97130743812062 3.7141573705658004 0 -1 0
109 1 15.481241384098405 49.12064571920375 5.582547427365184 0 -1 0
12 1 17.17108957120735 47.806480148631834 3.960097128563471 0 -1 0
782 1 23.859703536351166 47.96952573769539 3.995460509417331 0 -1 0
875 1 22.12127502571261 49.326356262741385 5.643858214675539 0 -1 0
784 1 29.868108888083544 47.748540134939475 4.0051122174299 0 -1 0
877 1 28.39115800823545 49.345410663643676 5.690295486997811 0 -1 0
879 1 34.53650976437622 49.60035856172175 5.722183501346355 0 -1 0
208 1 2.931421556235198 1.2630419605972605 8.766017045508912 0 0 0
106 1 4.197939499994721 50.845100734780345 7.168840559788729 0 -1 0
108 1 10.904338805354815 50.77346667247788 7.040256095886593 0 -1 0
210 1 9.745710918365017 1.036186328708675 8.6999435171729 0 0 0
110 1 17.155286485529054 50.937622614382036 7.239566187213124 0 -1 0
116 1 15.873777219984174 1.0853510402025321 8.561964624166102 0 0 0
882 1 22.019746916607414 0.9021768962336154 8.75186949155933 0 0 0
876 1 23.67407379587022 50.96722403422966 7.391488203879231 0 -1 0
878 1 29.845114798878914 51.07576619350138 7.392858265352896 0 -1 0
968 1 34.51255462984348 0.9206391681172197 8.824958404397947 0 0 0
111 1 0.9315402874728338 2.877407303523395 7.283039325026848 0 0 0
113 1 7.6495711873297445 2.4472273138897984 7.445030715402 0 0 0
119 1 6.264330195872262 4.159665483297683 9.075972439343234 0 0 0
215 1 12.050300621165414 4.157286327017213 8.766161913353798 0 0 0
115 1 14.089815729522828 2.7481825428328275 7.130128875656628 0 0 0
881 1 20.393979072967195 2.7371917805402344 7.492259510544735 0 0 0
888 1 25.130903242274936 4.075773301056017 8.366890830800108 0 0 0
883 1 27.100829061337606 2.4134673492697907 7.32118120460606 0 0 0
885 1 33.04516236635009 2.426494769063814 7.345629368289371 0 0 0
890 1 31.697250816212843 4.093094102449765 8.782016755302614 0 0 0
126 1 2.8824890150292153 7.7311411421730885 8.987354464684838 0 0 0
118 1 4.666319053968762 5.720518560729099 7.513087681884414 0 0 0
121 1 10.794121294769647 5.923937795641141 7.113519637255851 0 0 0
129 1 9.544487960687551 7.33767752728413 8.72297777087238 0 0 0
131 1 15.619404570326967 7.322441285025747 8.674446597381605 0 0 0
123 1 17.53033662345579 5.928737405455702 7.319081441619191 0 0 0
887 1 23.556737987051196 5.6806471663026095 6.957214448282913 0 0 0
893 1 22.195802971970917 7.429753091467649 8.554701817807429 0 0 0
889 1 30.286099207636113 5.7723345996977535 6.9786101965672325 0 0 0
125 1 1.397244309343319 9.003549822095358 6.8964827265843045 0 0 0
6381 1 0.0575448296746528 28.986611195707148 16.40263602280447 0 1 0
128 1 7.6879958921736415 8.911816867104452 7.29470933237285 0 0 0
134 1 6.297237811716578 11.161296086973131 8.541109793046619 0 0 0
227 1 12.308302198020852 10.56072643031424 8.70938806267739 0 0 0
130 1 14.232316349120595 9.120630209376763 7.081668996506834 0 0 0
892 1 20.560374999564978 9.057899288286634 6.702993702953208 0 0 0
1144 1 19.100541008665044 10.070487653065243 8.901898764187292 0 0 0
894 1 27.13347583580857 8.677558286259202 7.301535319986491 0 0 0
899 1 25.59551765989499 10.60263511507829 8.520881147900642 0 0 0
896 1 33.49544299986233 8.898355560747659 7.04164436965686 0 0 0
901 1 31.656578143277617 10.732231863302914 8.619995252594414 0 0 0
138 1 2.5627124023623704 13.66072290226111 9.08126027769936 0 0 0
133 1 4.241637376234716 12.17214699107381 7.200554149442872 0 0 0
136 1 11.440903154510448 12.35892494984189 6.730303990570328 0 0 0
233 1 9.457527972610157 13.533939270695942 8.426348608711255 0 0 0
137 1 17.881238819428376 11.95859595749779 7.184375033759265 0 0 0
236 1 16.006479592633127 13.755962958012159 8.542897980934095 0 0 0
898 1 24.083531952176084 12.263539436742702 6.929291811021568 0 0 0
904 1 22.248724110392523 13.654356190390496 8.566234360519521 0 0 0
900 1 29.752481902817255 12.01669328037133 7.121549478778437 0 0 0
982 1 28.493948779969845 13.928336350972312 8.709795367858353 0 0 0
907 1 34.468257443619194 13.93454261132056 8.643384039557356 0 0 0
141 1 1.1340941472933215 15.44260906118062 7.466599419060764 0 0 0
142 1 2.8387976518024596 16.97519753273752 6.237225490104186 0 0 0
7045 1 0.3964413312354732 12.556214698613918 0.7035991524298904 1 1 1
143 1 7.734346837127511 14.682081700011661 6.812818831005418 0 0 0
241 1 6.401642593669511 16.4697641594244 8.969834721372685 0 0 0
243 1 12.254707084938822 16.626824797468295 8.60168444005894 0 0 0
140 1 14.401324563468048 15.442981242218533 7.081916615444541 0 0 0
903 1 20.474084443274414 15.308840913939267 7.409297065538633 0 0 0
807 1 19.15538148540628 16.96983020812004 8.740817985077712 0 0 0
905 1 27.223970737983738 15.273887630319402 6.837690714434437 0 0 0
987 1 25.56478340791276 16.808656469167516 8.930393197103477 0 0 0
989 1 31.478021898625357 16.789765366004303 8.659938534983894 0 0 0
906 1 33.062017486889594 15.292999297458136 6.967371325968329 0 0 0
146 1 4.6965772145768065 18.270634922828908 7.751919539354088 0 0 0
54 1 5.99455199666109 20.176332526053177 6.0692174225909135 0 0 0
246 1 3.137980768014633 20.133304220414136 9.088852111901753 0 0 0
247 1 9.169402421230082 20.357017311701732 8.761405002516618 0 0 0
147 1 10.263845637322422 18.318673344106376 7.080745196561264 0 0 0
249 1 15.551923638515422 19.917933952252007 8.799772068634647 0 0 0
149 1 17.414866923735875 18.59942777042626 7.241553949090334 0 0 0
992 1 21.968245725790503 20.15370461299137 8.647584705341838 0 0 0
909 1 23.691277348015173 18.24921093415198 7.517557003889876 0 0 0
910 1 30.435938602828017 18.726802605979767 7.113009611020462 0 0 0
913 1 28.37860601515861 20.205978586864866 8.674085329140132 0 0 0
152 1 1.2077125296997169 21.78449890196384 7.492749684645111 0 0 0
153 1 7.569018604271907 22.055998233236398 7.405652766390363 0 0 0
254 1 12.41386146116315 23.06105232081318 8.931717731584776 0 0 0
155 1 13.976158333234252 21.4540764009178 7.036899541252952 0 0 0
916 1 20.498403073327694 21.59366682079929 6.925302779160741 0 0 0
997 1 25.008870556087604 23.39447491295426 8.80792840232154 0 0 0
918 1 26.638275335890484 21.708205756725945 7.3831834943044425 0 0 0
998 1 31.43935156505265 23.371349860308026 8.927649782299447 0 0 0
919 1 33.33933178871666 21.996504468588874 7.415408741696957 0 0 0
723 1 15.954892163267711 17.325216768664763 25.30168632454157 0 0 0
156 1 4.1307823074008745 25.399366572122638 7.0042285708631 0 0 0
252 1 5.910850819406389 23.6545565735304 8.679735845086984 0 0 0
158 1 10.614380505772889 25.03794857316511 7.522408259540897 0 0 0
161 1 17.331152964524406 25.317055934972366 6.966070500746375 0 0 0
737 1 18.826863445969046 23.57119987690038 8.140547647261076 0 0 0