LAMMPS data file via write_data, version 29 Oct 2020, timestep = 200000

4608 atoms
1 atom types

-0.0908905533650568 53.490890553366974 xlo xhi
-0.2740786400535171 51.18119864005433 ylo yhi
-0.2740786400535171 51.18119864005433 zlo zhi

Masses

1 18.015

Atoms # atomic

2516 1 3.443238625659767 1.5445099169070853 4.319637393223875 1 1 0
2850 1 2.962664509982021 32.872639905495454 8.32123461374431 1 -1 1
4432 1 16.333607892246338 38.52079193152214 0.023516418657087534 1 -1 1
4039 1 5.346713608239395 0.3631907767834386 2.4801963753645238 1 0 1
3244 1 8.588186534542764 49.72077654984466 5.016429056000401 0 0 0
679 1 8.720017428397231 3.1476651402442566 0.23917628513651723 0 -1 1
4506 1 4.609301492214376 41.131967584837014 1.8435046406863593 0 0 1
2801 1 4.181131629519501 8.270027567771425 2.622321367313727 1 1 1
3971 1 10.10219159523379 27.420445690828064 24.7101140819498 2 0 0
242 1 2.4152583612261678 48.439812177689646 15.682856834922092 -1 0 0
4596 1 6.10785790192213 48.136104562582965 0.7236808138973561 1 0 1
1248 1 1.8228906994338496 7.748935889845205 4.104353035612766 0 -1 2
2212 1 1.0621157388294222 10.739343307584214 3.866537266518849 0 0 0
2629 1 1.8879358945418014 10.103138001195411 17.720079657668997 0 -1 2
2565 1 3.6475042965813658 35.94863655249426 18.17207900434666 0 0 0
1216 1 15.818139920197348 17.059331659688546 13.305540886798976 -1 0 0
765 1 5.858047977967904 10.6603707798121 2.430632373698672 -1 1 -1
3870 1 10.780577970286988 13.565640435110362 1.1071582101173316 1 -1 1
3883 1 12.482825349095364 11.484599126973324 4.053605066132081 1 0 1
1348 1 0.37124749921060674 48.809335835961754 0.011935975752760453 1 -1 0
71 1 1.761953189815634 14.611262605754897 6.637616679265303 0 0 0
1681 1 0.3025353350056524 12.002159401330553 6.326847692124998 0 1 1
730 1 4.76038198448723 13.509972362026662 2.8518956983019077 0 0 0
572 1 3.7137619533722095 16.672074868872862 2.5172376652991897 0 0 1
3402 1 12.254431729483509 30.059011478013247 24.91350949325356 0 1 -2
3880 1 0.8216300169488692 35.784300614636905 4.773778317122002 1 1 1
2371 1 12.103936127772666 22.43579440689006 0.3511932482363206 0 0 0
421 1 12.875959670911476 18.255393382778642 5.021629824271224 -1 0 0
2568 1 17.011723700185385 23.025648409557814 25.359310899905598 1 -1 -1
1250 1 0.24303692988015868 17.442230206612418 2.57187859064186 0 2 2
1496 1 10.105478861040256 18.372049284253816 5.567206492933497 0 1 1
2749 1 0.18045108769528917 4.534031319172985 12.838737828185625 1 0 1
1595 1 13.551045155195235 20.863645762150625 5.54249842604897 1 -1 0
2724 1 4.8589008993002825 20.254226811150193 1.119103566892738 1 0 0
2975 1 0.07799385992484473 26.756543276698373 17.770559844669137 1 -1 0
938 1 10.29003331852207 18.922645727225554 2.761673009687036 -1 0 1
1977 1 12.563167311599193 25.59002755424456 1.2205826963275062 0 0 0
789 1 1.1633785117900342 0.8514860326117422 3.023926244386051 -1 1 0
3555 1 1.048167258247091 8.295990249685214 8.781939045206745 1 1 1
453 1 4.000286822143905 24.768115282681297 2.7265364708446764 1 0 1
2524 1 0.26582022939792177 17.423990916100376 22.727792831218217 0 -1 0
1328 1 0.6659427964185035 43.91949068422973 19.688992426037444 0 0 0
4224 1 8.036063714926863 22.59590919361643 2.1221431019565973 1 0 1
685 1 6.36407546306223 25.41940202614126 18.20655598859308 0 0 0
1840 1 7.4429478454992495 40.32338765174029 1.8398203897168193 0 -1 -1
3581 1 1.2967675367434393 24.5926150527355 1.7647966255011713 0 1 0
2971 1 0.722398487113386 17.72253901186876 15.819956713082568 1 0 0
2361 1 2.0221828389570904 18.266070714679014 18.723629111393493 0 1 -1
3482 1 3.066612476300952 22.95554136751341 18.28760081028217 1 0 1
3675 1 1.508812113117867 6.721832574407381 19.779663273163553 2 0 0
2523 1 4.343446114975831 27.894392921502245 2.5634931098609623 1 0 1
3973 1 16.253926594531038 17.567188774015147 6.8089671674001915 1 -1 1
1375 1 7.162580366160543 33.07365597983582 1.0072728487856881 0 -1 1
2844 1 10.802139004229907 27.600789089296242 2.7971095352875195 0 0 1
2290 1 1.2474365439187998 19.46809136085953 10.061745022946843 0 -1 1
2056 1 5.224600857938264 17.921355204878946 -0.18897942861789557 0 1 1
2901 1 10.44789541386796 20.34607235894296 24.64453743666755 1 1 0
4263 1 16.858749024333527 37.391564630398825 13.795881004185226 0 0 0
1150 1 4.6984844210925205 35.57963913555991 3.074813885377339 0 0 1
2426 1 10.773818214050555 30.136786840130075 1.1845070883371904 1 -1 2
2810 1 3.0540971739319835 8.279170156057086 0.10415762811041929 1 1 2
957 1 13.229561577126407 30.236157568671942 2.6714586180192375 0 -1 0
171 1 3.4766697389906307 34.82293639165159 0.5723669040263959 0 0 0
3830 1 0.3929873262396559 21.477618965452926 18.847773476932748 1 0 -1
974 1 14.851981014450857 5.04246770512133 15.422187904680097 1 0 1
2788 1 1.24131791035408 2.7978173156350685 23.120657447073853 0 1 -1
3486 1 0.6439429251096963 30.279593014901767 20.947474879429755 1 0 0
2858 1 11.707042442841717 33.1682171541869 1.826626168698143 -1 0 1
1099 1 2.597114343679789 44.06857210337662 21.800536099644223 0 -2 0
2948 1 6.453676260154306 41.6810433721434 6.126292453031008 1 -1 1
839 1 2.0209925832721853 36.862119517845315 25.02600614443892 0 0 1
1116 1 14.495960642699684 36.213130091642995 0.9988529670456168 0 -1 0
1404 1 5.028809903015528 26.27714311163698 23.39508936447907 0 0 -1
3528 1 12.526616617322013 49.01614613835487 -0.15359817809615275 1 -1 1
2732 1 11.061885050794883 39.768046785818235 25.214750204532702 0 0 1
3681 1 3.7256036186558013 39.710034377138214 4.161046586005466 1 0 0
3256 1 6.0124876344467735 2.500028718138789 0.6786373413517482 0 0 0
2016 1 0.8204916809239714 9.757006413366865 11.169980327628066 1 -1 0
4478 1 15.256437374002505 41.9674334807659 2.911156875467181 1 0 2
1040 1 0.21321088770309543 45.349502764010786 23.209741137266008 0 1 0
4453 1 5.840901215832724 45.318973201671895 1.7699100423980458 1 -1 1
1447 1 2.850600528800962 28.543268831278873 6.531014288414773 0 -1 0
963 1 10.080130603512549 36.505779879841995 1.1500119108370108 -1 -1 0
1891 1 9.820367443761441 41.22480407811687 2.432968357742841 -1 0 0
4519 1 7.782997711184432 44.99620512728237 3.8045195369421396 1 0 1
3110 1 1.5932970249265388 14.661303153368744 3.4911856699559105 1 0 1
3417 1 9.063261618166198 43.705507369792876 0.9266971748780657 0 -1 0
2044 1 0.2520249986702733 5.0182127581378175 21.75635384752832 0 1 0
456 1 13.407789313731609 42.940566279673284 -0.007548617367406918 0 -2 2
2686 1 17.069536158044844 40.52565396479825 4.90705394646238 1 -1 2
4061 1 4.278306260231534 49.27256690110723 2.477431808365723 1 -1 1
2137 1 10.219146984503139 46.286443968362256 4.151172403892772 0 1 -1
1874 1 15.4371150035956 49.31445415514828 4.48048976876076 0 -1 0
1193 1 12.76147590271784 47.02991925454447 23.67891026291098 0 0 0
1130 1 17.191435317568992 9.19301119382061 19.873010316265432 0 -1 1
2026 1 2.1019820979187407 50.57646830069435 1.0106211627770192 0 -1 1
2382 1 7.996832764168506 47.81088092304018 7.040759656344804 0 1 0
91 1 11.919485041663306 51.06932966981471 1.9968998728220484 0 -2 1
3801 1 0.9096621627875854 7.504072067025076 14.453893988217276 0 0 -1
3231 1 2.3579938846197 3.819270819591914 2.2895366980905245 1 1 0
4093 1 4.265348306715926 0.5989307985314027 6.774385637590851 1 1 0
3054 1 7.661942793250138 0.8476330336279012 3.8710147676160904 0 0 0
1941 1 12.57055047952212 3.4250555942070573 2.9495161241306 -1 0 1
355 1 15.33671688626336 4.0382539284098735 3.427198434375245 0 0 0
2938 1 2.407680486718122 5.182281320954654 4.767494536521577 1 0 1
2656 1 6.043231627183885 6.262962705684365 3.408212694553216 0 1 1
2184 1 7.937880687132592 6.166141182897647 1.1075576730325525 0 -1 0
3109 1 10.996126777740447 7.641453563279872 6.865237285467522 0 0 0
1793 1 0.9459175248972995 46.147634122078614 15.27512207391354 1 -2 -1
4254 1 12.056367419724486 9.69992932205196 1.8407755338626037 0 0 1
4424 1 3.353387690855119 9.744473369267551 5.971086536615749 1 0 1
1417 1 1.3225937759946038 40.139684500134166 3.1281914429454845 0 -1 1
3964 1 8.962045733606075 11.722509387946154 1.6994342508752147 1 0 2
3179 1 10.32867049266325 7.1909349542132475 3.610628297805701 0 0 0
3919 1 0.35693276043945293 32.738422594460125 8.613431542132323 2 0 0
1384 1 14.876799477416395 9.990778665466225 0.3586358544415461 0 0 0
557 1 16.062316963085514 47.646861697139535 9.615376688380742 -1 0 1
2503 1 8.925486115459899 20.360278487586346 -0.04004855924185524 0 1 1
199 1 6.023196473083675 9.937948068780345 5.339962596251843 0 0 -1
3730 1 0.7956240340735926 22.083995168824128 11.834411000665828 2 -1 0
1723 1 7.292955321584372 14.145473512462543 4.36326773486326 0 1 0
352 1 12.391680310101236 14.315821318156074 3.3301724060923026 0 -1 0
3011 1 9.860943526511065 15.818228791293869 4.31274960461177 0 0 3
2438 1 13.529637748795366 40.04525904614732 -0.23069211333391856 0 0 0
3907 1 5.0952117873630165 47.898429567276 24.444475653245902 1 0 1
1396 1 2.0490159039798064 43.9696285112764 0.12397601565638705 0 0 1
1460 1 6.22749966914901 19.982616547038482 4.542352116650119 0 0 1
174 1 6.483857525085558 17.333701986798175 3.4549586180342278 0 -1 0
848 1 13.775042186833232 15.151485195020609 5.974311548192197 0 -1 1
2937 1 15.756813437979059 15.267457923166905 0.3800346108500815 1 -1 -1
149 1 2.643977304465174 19.44860549095631 2.8590119725393572 0 0 1
4449 1 11.591094245326232 23.23687779093845 5.026998578632696 1 -1 1
1890 1 12.98914439374823 25.59781708853685 4.071255696115782 -1 0 -1
825 1 15.018076347840264 21.641367641364706 2.9522222576808583 1 0 0
676 1 0.662781206453524 24.15419785407663 14.418517286363896 0 1 0
2714 1 4.596345668373186 24.770463726068055 5.328951292187008 0 0 0
146 1 5.194323918345491 22.052907210632778 3.138869232698921 0 -1 1
1516 1 15.532537830147106 25.57011065199964 0.9144307149260462 0 0 1
231 1 13.92562056484994 27.35956602445863 6.367205875587483 -1 0 0
2512 1 16.670170773961104 20.277031295246328 24.292324084699818 0 -1 0
1107 1 15.368253303295813 24.280990374869823 4.482891792304467 0 1 1
1327 1 1.8182314040791385 23.820591603049657 5.918344688651633 1 1 2
281 1 8.480674561081617 26.25737358779537 3.2967380897498013 0 0 0
2790 1 10.625027006514317 21.87822176736797 2.85051860438738 0 0 1
163 1 16.546629008743214 25.281528999026094 6.924868973274773 1 0 0
3422 1 1.627489561456612 32.195453570844606 3.466498963447829 0 1 0
4446 1 6.498774578641724 30.14906490894543 3.5917568268999944 0 0 1
1209 1 10.945723226314795 29.643718729014857 4.730591391194015 -1 0 1
1075 1 1.3193041693958611 1.2584450977686061 14.080009587276704 0 0 0
1871 1 14.230972897927245 28.368702564797267 0.6119732388298078 2 0 0
2854 1 3.754140611655872 50.23197390786259 12.380306469519194 0 0 0
2182 1 7.609667242303991 30.326933710742814 0.8535038589783484 1 0 1
3874 1 8.699126979872785 30.906925444509312 5.4694084604632645 0 0 -1
1029 1 8.000671978117381 33.88891718587777 5.556785203044763 1 -1 -1
2501 1 11.058241577557872 33.640935633993884 4.49678225724712 0 0 0
2388 1 5.733834661934663 5.702135245471265 24.881978234782274 0 1 0
4532 1 2.974463517827827 35.95619857218455 7.392573024315524 1 0 1
4459 1 5.692475843810704 32.92390304702181 3.6173367918749535 1 0 0
1820 1 6.628331405110231 37.810480895406684 3.36896383158807 -1 0 1
1989 1 8.998997041296992 36.273494125848444 3.7948246029676582 1 0 1
3587 1 12.473377571856886 38.68208461041214 4.8183046989674905 1 -1 1
2936 1 15.817436173053236 32.05994394429245 4.743603430410009 1 -2 1
3494 1 15.724020701180292 34.94206190632323 5.163871109545635 0 0 -1
3489 1 3.352214519176421 37.008118835088226 4.92944299051431 1 -1 0
2768 1 1.0785781587495031 38.17091186224493 8.875200276663538 0 -1 1
2261 1 6.883169019594136 42.25306378055138 8.87112487581512 0 0 0
3759 1 9.808066764937742 38.25101759410411 5.633372593453785 0 -2 0
1279 1 8.316632924354844 34.53127560991458 8.160152590337857 1 0 1
3261 1 13.224710646440531 40.546031484168424 6.810575961322419 1 0 1
1067 1 5.437749700475379 25.608803976839205 0.38166965155826693 1 -1 1
4545 1 0.6410573071572749 40.61881711938493 7.649747793696689 1 0 1
4515 1 3.686467171381059 41.57029057043915 6.170041274708615 0 -1 0
621 1 12.420025995411859 42.95520253250084 3.0060911872939844 0 1 0
3034 1 12.764620108894109 43.26186671847788 5.921610962790642 1 1 1
486 1 12.411510493871905 37.98782094302203 2.1179804279948846 0 0 -1
3432 1 15.934916128423467 43.47073504146014 6.947793485038524 1 1 0
228 1 1.1516597326768292 42.61421805568087 3.6499225455349134 0 0 1
2393 1 1.710282790921802 45.109720491239905 6.67008788001434 0 0 1
54 1 3.7141559294696544 44.30447376824189 5.213225014219379 0 -1 1
1361 1 10.1111177663629 43.74046779080801 6.100588944488607 -1 0 1
1857 1 12.856978822516677 46.041352566947786 2.6479388506101853 -1 0 0
3004 1 3.6855874235336334 43.54260925488614 2.458737598276946 1 0 0
3665 1 1.2899723777024643 48.211106769306724 4.238127488224491 1 0 0
39 1 3.978118818878376 47.998886901558535 5.05389801296211 0 -1 1
2479 1 5.9097389258979485 45.93560715028969 5.980426994932623 0 0 2
1983 1 3.2039441026397943 49.59875853181936 6.993630596811516 0 -1 0
2442 1 15.680055714917469 46.228155346621996 1.8843786044757218 1 -1 1
1591 1 9.959288406823179 45.89308281964086 8.086454885543578 1 0 0
845 1 14.051880104365743 16.896468101139934 15.77759719763134 -1 1 0
1666 1 7.166077725775255 0.2648976394478877 6.944980534645344 0 -1 0
4395 1 7.079596850157403 49.2712499709289 9.039189846161218 1 0 -1
3292 1 10.352731962386025 50.55102255124602 7.312652669608308 1 -2 0
1971 1 11.257440237535544 2.0154868136856376 7.351668404138215 0 1 1
392 1 12.755056500650332 48.79695942654125 3.948775727237291 0 1 1
462 1 15.568802912853151 -0.07812730322278494 6.768873238786466 0 1 -1
315 1 12.18697434224409 22.01655473279636 23.167080577868084 0 0 -2
110 1 2.3774993076073145 2.138955336173654 7.9564193847828335 1 1 -1
3659 1 4.826291697411971 4.096226534340164 5.41885717112216 1 1 -1
1297 1 7.741792829682321 3.820524743972493 4.539850040863639 0 1 1
1552 1 12.972459688474922 3.680080664644767 5.828318017436073 -1 0 0
3222 1 9.760419154122745 4.344750469952457 2.864911289710134 1 1 0
4291 1 1.9078106200015335 34.46399638572241 16.91873785746696 1 0 0
2508 1 4.952897928008341 0.5607082786038434 9.812535658055566 0 0 1
1981 1 9.584521635547326 4.621581249074364 9.0546328628592 0 1 0
4422 1 12.234051321090277 5.564008280616698 8.158115030124764 0 1 1
1123 1 2.195437164785152 23.76932031164831 21.28879155103341 0 1 1
3891 1 2.130740891473881 7.092059808780741 11.963224994099459 1 0 1
2443 1 3.6946976482657012 4.809754647651423 8.007803092562927 1 -1 1
1220 1 7.815164454352553 7.955975979500593 4.881303340127189 1 0 1
1560 1 5.519815073414754 7.855975145412463 9.35996884572116 1 -2 -1
1137 1 8.090790363428377 7.290224717837656 7.623202598791823 0 -1 1
536 1 14.374478438194592 9.963540423581318 6.326013528382124 0 0 0
1919 1 15.474163420647407 6.477550382954991 4.63957628629647 0 1 0
859 1 15.23879873077912 5.903809148633572 7.120357356156055 -1 0 2
3666 1 3.593130752542429 7.6048427712579825 7.632959450161362 1 1 -1
3642 1 9.982204339316707 11.084428880263692 8.225110890785116 1 1 0
3302 1 12.405712794452057 9.460170126022334 8.585821996029912 0 0 0
1464 1 12.386997499781236 12.479924824459209 6.728758287171188 0 0 0
4541 1 15.86939126119077 -0.13903702446928606 24.696479852362348 1 1 1
3993 1 3.3585470038436727 12.266440717632856 7.445114216637416 0 1 0
3015 1 8.088608724545178 11.83170853189168 5.7326821886405135 0 1 1
715 1 5.991407312295559 15.224367239587874 9.241057702130925 0 1 -1
483 1 9.814652266818705 10.327363343368683 4.051059178267922 0 1 -1
2839 1 10.231758880147213 14.582883916578838 6.999850248365547 0 1 0
362 1 16.291737829332103 11.912041723880135 7.1431672342980965 0 0 0
1693 1 9.544674205021213 32.551915042584525 24.759531155278218 0 -1 0
1179 1 5.568421834784164 13.870233463024855 6.813148790257334 1 0 1
350 1 4.169005795068871 15.946222675585464 5.482776770662716 1 -1 0
445 1 10.910071456273922 17.675147309892377 8.106822203792383 1 -1 1
3403 1 13.960897050198733 15.749178748244162 10.447167580892526 0 0 0
4356 1 14.889507236631825 14.189014877657746 8.350713003155121 -1 0 0
1908 1 15.49935902234897 15.25041414393849 3.3212780907583217 0 -1 0
2655 1 1.6344700060871247 20.979994771760147 5.160044690292401 0 1 1
1589 1 2.7535076340882543 20.969636892320615 7.738560108833667 0 0 0
3945 1 6.953163723297085 20.824169779768116 7.41948061280431 1 0 1
4465 1 13.619161509813061 17.351770995014586 7.767313628380355 0 -1 1
3307 1 16.438971607050284 20.78922143484642 6.377809251606641 1 0 1
754 1 12.07475613079857 13.983582422637266 22.001228576592904 0 1 -1
1181 1 5.074092190567448 22.066696215535956 9.481638354357257 0 0 2
2115 1 6.968601878255843 24.057174031496803 8.896029654321874 1 -1 1
721 1 7.023319573001285 23.422288195808022 6.1028534066933044 0 0 0
1161 1 9.05237954755189 21.092001331779944 5.175996878070947 0 1 0
3983 1 10.75229353290614 24.793176938803764 8.001072128135773 1 -1 1
3802 1 16.494719020505787 22.850547503096283 8.274896899041924 1 0 1
3793 1 13.611206213173448 1.6153848479273933 1.121208287348731 1 0 0
53 1 6.975791637662356 26.80042653508842 7.58154341142097 0 -1 1
3018 1 14.931531636519646 25.79406706435715 9.264242919973984 1 0 1
2918 1 14.561491372833768 29.001324608487195 9.649968557336628 0 1 0
3460 1 0.17422694626713803 19.758018672172373 0.9820600791425953 1 -1 1
4089 1 1.7518122031262637 29.441485042822496 3.9908620006210818 1 0 0
3968 1 8.140984180455678 24.97471760393444 1.0509951499244732 1 0 0
2783 1 5.141857979163013 27.62522269566453 5.270532720224829 2 0 0
2220 1 7.980088316317097 30.05975808153033 7.939563835432885 1 0 0
1779 1 9.02891023399032 25.14854689103326 5.620910375725384 0 0 1
4337 1 11.385059193954932 32.039001738904325 6.727054988187487 0 2 1
1804 1 11.956159555394482 32.99272498323891 9.489894789572501 0 0 -1
4084 1 17.14915513867649 27.833635509917308 10.62248797960348 0 -1 0
1695 1 3.5286788537031897 30.025727683780236 9.049938155277026 1 0 1
2338 1 9.065964667997006 32.18713110914674 9.510222269845489 1 -1 1
3238 1 16.513446401316937 28.45421714407513 7.093904430488774 0 0 0
592 1 12.254453301813863 35.53352245628585 7.920123940335449 -1 0 0
930 1 1.9093461295284588 15.72870429279066 20.052801617920686 -1 1 -1
2693 1 10.016089683826458 15.370291560991067 23.838891079624965 0 0 1
2135 1 3.455059947652504 33.49681655429852 5.364686292295476 0 0 0
4011 1 6.176272450453746 35.833545226821585 9.328897671788683 0 -1 0
995 1 9.854255685802567 36.89050393513385 8.029254674050112 0 1 1
783 1 13.000451151043537 35.721267940114416 5.2285802197188485 0 1 1
817 1 -0.02053552118958632 3.9501296252943945 5.262693291325423 1 1 2
153 1 7.020015995746678 38.9121929323993 5.818888291156849 -1 -1 1
4236 1 16.038635364656596 35.27208749582931 8.066769552078611 1 0 1
1898 1 2.8292000455052984 42.36029900648098 9.011163185308014 1 0 2
4080 1 5.1567317544915525 42.9047564086513 11.624765887481683 1 0 1
4404 1 8.26767001802819 40.59994007178004 10.769609404510494 1 0 1
4473 1 8.082520095410514 42.44855458628569 4.4896744331274885 1 0 1
647 1 15.866225709954614 40.56283426325034 7.360760968908042 0 0 0
1642 1 15.58108930461752 38.4445641963695 9.480815890392615 -1 0 0
895 1 1.7473897823162297 44.8403670681341 9.438651369371877 0 0 0
1879 1 5.490904941353839 45.57676479085961 12.40037518908949 0 -1 -1
1829 1 9.919571494451606 42.411281159091295 8.787679932598662 1 0 0
1407 1 11.545617604711994 42.11040077828856 13.583211075110688 0 -1 1
4153 1 13.056794538578048 44.95982184999761 8.410725860741323 1 0 0
2534 1 -0.07435804905924215 49.61405744710412 14.403803414638949 0 1 0
395 1 4.483269674674423 46.15031964375961 9.779563645759026 -1 0 0
2533 1 7.243125342030594 45.0358473767083 9.03290328011782 1 -1 0
4026 1 9.964287729740844 44.292874619674954 11.138795241709213 1 -1 0
2822 1 11.98743173391581 47.766656017276304 6.611113865175252 0 0 1
1899 1 14.362483407959452 45.94362552484333 5.394195098722724 1 1 0
3273 1 0.9280288807869785 50.60997675741073 5.734236058267911 1 -2 -1
851 1 4.3821401338787345 48.93848088349603 9.524135731928409 0 0 1
2314 1 7.028236495017601 -0.23630539860915403 11.905696875138847 0 1 1
2966 1 9.7281495650082 50.381363069740914 9.902189067109184 0 -2 1
3218 1 8.70679672265942 2.8564175975187744 7.043687184117381 0 0 0
527 1 11.577562155193121 2.543870476819874 10.128782411336728 1 0 1
1408 1 13.017783718429634 50.73686526150715 8.111864614529846 0 0 0
2444 1 4.791836745729672 2.134431779658552 15.65498158981933 0 1 2
886 1 6.020009362631373 49.92766715335455 14.617554745468922 1 0 1
2745 1 6.585169327960623 2.7925377957585336 9.2401518636214 0 0 2
3567 1 8.883332708723758 1.853620309327754 10.621449809532933 2 0 0
505 1 15.432923621612487 25.17815452082554 25.08108095877091 0 0 0
3328 1 6.764317817858581 2.3635913373719313 13.492114108159292 0 0 1
2924 1 1.7740243762173835 1.572671083710255 11.218035398705169 0 -1 1
4163 1 5.975798635468408 5.377940951565909 10.367193465564398 2 1 0
1625 1 14.41993754143787 7.494377251084125 9.665602492453013 -1 -1 0
3932 1 13.121877006757808 8.093974440155547 4.30731211391242 1 -1 0
908 1 1.9288426010330517 14.806647124649277 9.464441432331975 0 0 1
1441 1 -0.02794506168624622 45.749167171788685 -0.005003151331440248 0 0 1
521 1 2.3650783951410017 3.661017520153946 14.543704720678436 0 1 0
3406 1 8.403075012828191 5.4458142743097495 11.5016501799133 1 0 0
602 1 8.423476306014908 7.781004420296757 13.331266488745618 1 2 0
1063 1 12.025010444287934 9.368251254777984 11.815021066318682 0 0 1
2081 1 4.141474573800707 9.132873178687785 11.856251791621313 0 0 0
3702 1 8.627495432714893 9.259453280049595 10.10325319197295 1 1 1
2480 1 2.9429615856670925 11.67407391299141 10.409958809555443 1 0 1
329 1 10.734600981341437 7.303024124365889 10.548466626948938 0 -1 0
446 1 16.184698835901507 24.185681424389607 20.91136386381729 -1 -1 0
1176 1 1.9965483719691552 13.73652295160326 12.91373265790969 0 1 2
528 1 9.57957731561859 12.994317211069005 10.266410197992439 1 0 0
494 1 6.836517796333079 10.520618679570296 12.09515232505891 0 0 0
1400 1 12.233316442597635 13.516681224591995 9.606317520633908 0 0 0
1202 1 16.327662473555808 14.685237305226561 11.8293405468121 0 1 0
3136 1 2.598600895724643 13.422130907862543 24.11055368591586 1 0 -1
2802 1 3.8346249373139782 15.886751563341527 11.559290292198563 1 0 0
404 1 4.975671907660223 17.796487886556513 9.608544648679677 1 0 0
2504 1 8.905190588036236 17.232013784608853 11.973793672781635 1 -1 1
1081 1 9.49814888186028 14.110446838010718 13.083476351986302 0 1 0
2086 1 9.232906895877386 0.07156391075187057 1.2609737297672001 1 0 0
1141 1 16.314308319463944 17.915263796777165 3.966451222457307 0 -1 1
1198 1 4.472197290433527 18.873379422618925 6.75345582513924 0 1 2
1377 1 9.194306972752218 19.870053770773083 9.026440735161088 0 1 -1
661 1 12.35376717442943 20.30356745986909 8.435210634955071 0 0 0
3497 1 8.724975181152734 15.599212547456814 9.510734212667582 1 0 0
1803 1 13.696194143257799 22.099336583842295 10.24089606745857 0 0 1
1372 1 12.41927067929727 24.958757595934845 10.305837577365791 0 0 0
3836 1 14.804216287070563 22.35158896538716 12.97005983351396 0 -1 0
693 1 14.84218128346664 22.53194547633211 0.35479529299882995 0 0 -1
2079 1 9.468856975130265 22.98995478396945 9.704393729084732 0 1 0
1762 1 16.15898382942254 24.654229691912462 11.584762336777423 -1 0 0
369 1 13.998794949278054 18.608855466134546 11.62034148777609 0 2 0
2203 1 2.5741884314663617 23.674675024576473 9.855916346535707 0 0 0
1603 1 13.532485253621198 30.210776168314233 22.62016993243757 0 0 -1
4399 1 9.52321532063024 27.79494102802954 8.600106453285655 2 0 0
927 1 9.716651111341243 27.61213391087234 11.221424162399423 0 1 1
664 1 -0.06459950093516362 29.030730738156585 7.874219069660365 1 -1 1
4504 1 17.656902699737824 0.6557820936681586 2.5023714991473422 0 1 0
217 1 6.7823367328897115 28.557578152010176 14.788276112546528 0 0 0
2063 1 5.1408136204110315 27.418451340029872 9.806360487988535 -1 -1 0
4402 1 13.870941362050463 30.55083274103036 6.047040775584261 0 0 0
3980 1 14.381234193605348 31.655566561161766 8.849797783892969 1 1 1
3038 1 1.281631100135755 48.592638602589034 11.629658458648402 0 1 0
1510 1 17.093807557661336 32.34305800609231 11.498871584405888 1 -1 0
4361 1 4.960706091506983 18.551835817761756 25.307922818396985 0 -1 0
3648 1 6.150718026803112 30.581541755183316 9.93855848776361 1 0 0
3281 1 2.356750826649381 29.394817286980764 13.775718641188007 1 0 1
3320 1 9.710064548911625 35.88547991074825 12.795999153081283 0 0 -1
2232 1 11.927365507515193 34.19102198786881 12.05214057177941 0 0 1
3473 1 16.854285500604 37.53384296954954 4.322619079466738 -1 -1 0
1223 1 2.181170778776896 34.63775243861852 14.147764334938556 -1 -1 1
2300 1 6.3797261479989675 33.39625591935338 10.891485006042116 1 0 -1
3786 1 9.986464269554066 36.05768342168164 15.544228831765107 1 1 -1
816 1 10.789823358053994 40.036067031134934 8.175932449431613 0 0 1
4133 1 16.835670682393516 32.779336315966354 8.316205030416132 -1 0 1
3623 1 3.58682333490409 33.48121815254642 11.615655351565012 2 0 0
1853 1 3.5108648610648197 36.48479188394108 10.354689986567257 1 1 1
4403 1 11.377444048644492 38.602969319749285 10.703598612061027 1 -1 0
3435 1 13.445356870547805 40.52585305539203 9.983418993264916 0 0 1
1315 1 13.504098367330522 36.73128179621487 10.025167510720618 -1 0 2
2105 1 7.152447447645631 13.70926413092257 0.9826911134503138 0 0 0
451 1 8.542422780237278 37.46826336232753 10.607787684469134 0 0 2
4284 1 8.088212188298597 43.10860352362337 12.632886803193317 1 0 0
247 1 11.115495090360035 39.40241538627423 13.434871613944525 0 0 0
1895 1 14.366392052200563 42.35124179039675 13.515451366714792 0 0 0
3674 1 3.741087099073358 39.14618835266783 11.577052928920738 -1 -2 1
3692 1 2.146626921090705 41.98216113351258 11.715006926797027 0 0 -1
3553 1 12.613465679825975 43.07255146708805 10.821448136721317 1 0 0
838 1 15.52931673089237 44.624279880905455 12.69408732121254 1 -1 1
874 1 0.49531346237998175 17.183561103615318 8.582050088029908 0 2 2
1227 1 3.755608660799691 42.45574261444943 14.455649919415814 0 1 1
1001 1 10.324368715302375 44.90309476915806 14.143339308173404 0 0 1
3525 1 7.524658609514316 43.8309034659941 15.887795240233359 1 -1 0
1020 1 13.324398965635076 48.0682783609222 9.202143444569701 0 -1 1
1757 1 16.47249438304172 45.498960404695424 15.328809758942509 0 0 0
156 1 10.80211130574394 47.549499794061894 10.493474614314295 0 -1 -1
4599 1 7.587003165355619 46.33282513980687 14.125984709604856 1 1 1
2558 1 8.75889070292577 49.00008921539389 13.391389714833124 0 -1 1
2835 1 7.700120129918534 47.323628070956815 10.966042493529427 0 0 1
1655 1 11.505327073236304 47.49037007055506 13.129023812026938 0 0 1
540 1 12.89185945783593 0.13391801022557026 10.80703330294455 0 1 0
3017 1 3.392336346584184 51.02556778370057 15.10580510903589 0 0 0
2389 1 5.856038232595671 48.802788897988286 18.47010059787302 0 -1 1
2045 1 6.588185681142915 4.4322581290915934 16.71670976596695 0 0 0
15 1 9.296554725220691 3.304549597324154 13.350216906076051 0 0 -1
756 1 12.898855071645055 2.6889448902909536 15.92922919495689 -1 1 0
3818 1 4.599991567937322 4.214379737813813 12.661683327868415 1 0 -1
3863 1 9.528374995788555 7.01593981106161 15.81434933293166 1 1 1
660 1 6.175340680542662 51.132411055392666 17.159874911939987 0 0 0
52 1 12.003213603119441 4.365199536343212 13.522371288020361 0 0 0
1774 1 13.034102014889168 4.96594897135433 10.903305367350264 -1 0 2
1325 1 15.381964474795474 3.894256037564599 12.847358671708873 -1 1 1
4141 1 17.259475383523665 44.963223588837955 22.48196751964027 1 0 0
1419 1 16.858914648563374 12.68800905953465 4.373127801888179 0 1 1
1974 1 4.83215389642553 8.11167295357988 16.34078521469354 0 1 0
1788 1 5.323753745269202 6.944260704725712 13.47137943501827 1 0 1
2708 1 9.579833108387648 10.794325019798954 12.698623996303152 0 0 1
4256 1 13.756058219308818 7.1813481264379675 12.825122648408486 0 0 1
160 1 17.372975112629923 3.012625774754178 4.823804310439539 0 0 0
613 1 16.996581989854004 9.204166885010805 10.431786832314081 0 -1 1
1667 1 6.555170358820366 9.99393669801231 14.587579014254214 0 1 0
2528 1 10.670347762655947 12.27930118518592 15.023651879683184 0 0 3
1428 1 13.147843284636242 10.405431513840684 15.27245411691848 -1 1 1
2074 1 12.948490605864867 8.843300907545588 17.491795485366673 0 1 0
4345 1 14.920786089576445 12.621342721137019 13.425451439198113 0 -1 1
2099 1 8.469976633185807 18.307545946451828 24.540112644545623 0 1 -1
2305 1 5.47881792535719 13.037929676036967 11.445527461643735 1 0 0
3088 1 13.242479399186573 13.448969176518538 15.562892925174717 2 1 0
2590 1 17.06696157747366 49.3160211154646 21.285923424775405 0 0 1
538 1 3.0975305468333447 12.315941115925366 15.013973196604052 1 -1 -1
4149 1 6.700602635656506 15.01564806119917 13.2836837765308 0 1 0
2911 1 8.237531561150895 17.556032297904732 14.897635779034253 0 -1 1
3917 1 12.004975890127696 15.18251573821816 12.450535405416574 1 0 0
1992 1 8.683965442651516 3.281758053884876 24.535734204047355 0 1 -1
3379 1 1.5694924312704563 20.529076250205705 16.415044298629926 1 1 0
4563 1 2.333080389345164 19.698761470460692 13.124385442327105 1 0 -1
840 1 16.863412681569653 41.256125971334434 0.5735856833431656 -1 0 1
4294 1 7.153320300649892 19.00271039580281 10.813084725253445 1 1 1
4448 1 13.302756697041744 19.860760105053 15.677130960168983 1 -1 0
2586 1 11.124832644155816 18.90498913411818 11.86525317611746 0 1 1
880 1 16.170774938639397 20.0813351951378 13.84267841264027 -1 1 0
3591 1 15.212966153557595 22.679926111957176 16.6335343597422 1 0 0
601 1 17.030124255390056 29.91883847330014 20.361705360421055 0 0 -1
4171 1 9.833556144101298 35.43534644163055 23.859200349860334 0 0 0
3499 1 5.203001487593513 21.04532623942484 12.1156336039523 1 -1 0
1799 1 11.078626619973262 21.688142159252397 11.592469836263959 0 0 0
3680 1 11.844567570386436 23.955380864338164 12.822869617195717 -1 0 0