
# Create simulation box of size 50 x 50 x 50 Angstrom
#
lattice	            sc 1
Lattice spacing in x,y,z = 1.0000000 1.0000000 1.0000000
region 	            all block 0 ${X} ${YZ_LO} ${YZ_HI} ${YZ_LO} ${YZ_HI} units box
region 	            all block 0 53.4 ${YZ_LO} ${YZ_HI} ${YZ_LO} ${YZ_HI} units box
region 	            all block 0 53.4 -0.08155915612855225.0 ${YZ_HI} ${YZ_LO} ${YZ_HI} units box
region 	            all block 0 53.4 -0.08155915612855225.0 50.988679156128924.0 ${YZ_LO} ${YZ_HI} units box
region 	            all block 0 53.4 -0.08155915612855225.0 50.988679156128924.0 -0.08155915612855225.0 ${YZ_HI} units box
region 	            all block 0 53.4 -0.08155915612855225.0 50.988679156128924.0 -0.08155915612855225.0 50.988679156128924.0 units box
create_box          1 all
Created orthogonal box = (0.0000000 -0.081559156 -0.081559156) to (53.400000 50.988679 50.988679)
  3 by 1 by 2 MPI processor grid

# fill box with 4175 randomly distributed atoms
#
create_atoms        1 random 4608 63782 all
Created 4608 atoms
  create_atoms CPU = 0.001 seconds
mass                1 18.015

# Define potential
#
pair_style          sw
pair_coeff          * * /data/emrosky-sim/Freezing_Simulations/Melting/MLmW_fancy/ML_mW.sw mW
Reading sw potential file /data/emrosky-sim/Freezing_Simulations/Melting/MLmW_fancy/ML_mW.sw with DATE: 2019-02-27

# Run minimization
#
minimize            1.0e-8 1.0e-8 10000 1000
WARNING: Using 'neigh_modify every 1 delay 0 check yes' setting during minimization (../min.cpp:187)
Neighbor list info ...
  update every 1 steps, delay 0 steps, check yes
  max neighbors/atom: 2000, page size: 100000
  master list distance cutoff = 6.0032907
  ghost atom cutoff = 6.0032907
  binsize = 3.0016454, bins = 18 18 18
  1 neighbor lists, perpetual/occasional/extra = 1 0 0
  (1) pair sw, perpetual
      attributes: full, newton on
      pair build: full/bin/atomonly
      stencil: full/bin/3d
      bin: standard
Per MPI rank memory allocation (min/avg/max) = 4.236 | 4.249 | 4.255 Mbytes
Step Temp E_pair E_mol TotEng Press 
       0            0    7204283.1            0    7204283.1    4916379.9 
     663            0   -49884.011            0   -49884.011   -460.19874 
Loop time of 1.25398 on 6 procs for 663 steps with 4608 atoms

98.7% CPU use with 6 MPI tasks x no OpenMP threads

Minimization stats:
  Stopping criterion = max force evaluations
  Energy initial, next-to-last, final = 
      7204283.07682363  -49882.9563864214  -49884.0109372318
  Force two-norm initial, final = 1.6545325e+08 8.6568781
  Force max component initial, final = 88075303.0 1.8148032
  Final line search alpha, max atom move = 0.041270226 0.07489734
  Iterations, force evaluations = 663 1001

MPI task timing breakdown:
Section |  min time  |  avg time  |  max time  |%varavg| %total
---------------------------------------------------------------
Pair    | 0.96648    | 1.0587     | 1.138      |   5.0 | 84.43
Neigh   | 0.025423   | 0.026332   | 0.027354   |   0.4 |  2.10
Comm    | 0.067704   | 0.14734    | 0.24006    |  13.5 | 11.75
Output  | 0          | 0          | 0          |   0.0 |  0.00
Modify  | 0          | 0          | 0          |   0.0 |  0.00
Other   |            | 0.02157    |            |       |  1.72

Nlocal:        768.000 ave         789 max         749 min
Histogram: 1 1 0 0 1 1 0 1 0 1
Nghost:        1574.33 ave        1594 max        1554 min
Histogram: 1 1 0 0 1 0 1 0 1 1
Neighs:        0.00000 ave           0 max           0 min
Histogram: 6 0 0 0 0 0 0 0 0 0
FullNghs:      21818.3 ave       22876 max       20978 min
Histogram: 1 1 0 1 1 0 1 0 0 1

Total # of neighbors = 130910
Ave neighs/atom = 28.409288
Neighbor list builds = 26
Dangerous builds = 0

# Add velocity/set timestep
#
velocity            all create ${TEMP} 120598 rot yes dist gaussian
velocity            all create 295 120598 rot yes dist gaussian
timestep            5.0

# Define output
#
compute	            1 all msd
thermo	            100
thermo_style        custom step temp press vol etotal ke pe c_1[4] density

# Neighbor lists
#
neigh_modify        delay 0 every 1 check yes

# Set fixes
#
fix                 1 all momentum 10 linear 1 1 1 rescale
fix                 2 all nve
fix                 3 all temp/csvr ${TEMP} ${TEMP} 500.0 928347
fix                 3 all temp/csvr 295 ${TEMP} 500.0 928347
fix                 3 all temp/csvr 295 295 500.0 928347
fix                 4 all press/berendsen iso ${PRES} ${PRES} 1000.0 modulus 20000
fix                 4 all press/berendsen iso -1000 ${PRES} 1000.0 modulus 20000
fix                 4 all press/berendsen iso -1000 -1000 1000.0 modulus 20000

# Run 0.5 ns equilibration
#
dump                1 all custom 1000 eq.${NAME}.dump id type x y z vx vy vz
dump                1 all custom 1000 eq.liq_295K_-1000atm_ML.dump id type x y z vx vy vz
run                 100000
Per MPI rank memory allocation (min/avg/max) = 3.486 | 3.501 | 3.505 Mbytes
Step Temp Press Volume TotEng KinEng PotEng c_1[4] Density 
     663          295    869.42989    139276.24   -45832.896    4051.1146   -49884.011 2.0230623e-33   0.98973464 
     700    152.05158    -868.3995    140547.86    -45101.72    2088.0623   -47189.782   0.22018553   0.98077987 
     800    215.66856     -779.746    141081.82   -43738.249    2961.6883   -46699.938   0.74207627   0.97706787 
     900    241.91181   -817.89158    141699.32    -42932.11    3322.0762   -46254.186    1.3605813   0.97281003 
    1000    257.96128   -900.62929    142341.62   -42320.082    3542.4769   -45862.559    2.0341134    0.9684203 
    1100    272.23486   -757.76551    142630.57   -41853.234    3738.4903   -45591.724    2.7789288   0.96645843 
    1200    282.41902   -970.08936    142715.04   -41549.161    3878.3452   -45427.507    3.5996456   0.96588642 
    1300    287.99972   -973.49605    142703.85    -41290.01    3954.9826   -45244.992    4.4000941   0.96596215 
    1400    283.16938   -685.48351    142728.94   -41240.238    3888.6496   -45128.888     5.249176   0.96579231 
    1500    293.81095   -953.12894    142909.53   -41091.821    4034.7859   -45126.607    6.1916214   0.96457189 
    1600    291.28119   -899.51485    143250.27   -41055.705    4000.0457    -45055.75    7.3197514   0.96227756 
    1700     293.2574   -918.61685    143383.12   -41030.865    4027.1842   -45058.049    8.5313646   0.96138597 
    1800    296.03048   -1188.8684    143270.58   -41010.632    4065.2658   -45075.898    9.7330827   0.96214114 
    1900    289.28167   -1354.6305    142984.08   -40926.912    3972.5871     -44899.5    10.955207   0.96406902 
    2000    298.11955   -1008.7459    142570.59   -40855.408    4093.9541   -44949.362    12.371522   0.96686504 
    2100    293.82861   -836.24209    142802.16   -40959.908    4035.0284   -44994.937    13.661151   0.96529712 
    2200    294.55802   -1109.8201    142822.31   -40938.445    4045.0451    -44983.49    14.928963   0.96516096 
    2300    295.76053   -1044.4098    142702.21   -40895.903    4061.5587   -44957.462    15.820369   0.96597328 
    2400    295.37306   -1005.7475    142291.04    -40953.85    4056.2376   -45010.087     16.94766   0.96876456 
    2500    299.43936   -953.10392    142100.16   -40950.326    4112.0786   -45062.405    18.024994   0.97006589 
    2600    298.58019   -789.10195    142535.55    -40821.54    4100.2799    -44921.82    19.311147   0.96710274 
    2700    292.87217    -1126.546    142465.32   -40872.587     4021.894   -44894.481    20.617188   0.96757946 
    2800    299.64121   -836.43141    142374.36   -40892.692    4114.8505   -45007.543    21.737742   0.96819764 
    2900    293.59874   -837.65671    142738.13    -40868.23    4031.8717   -44900.102    22.721488   0.96573017 
    3000    296.89265   -1030.7472    142481.47   -40847.507    4077.1055   -44924.613    23.643376   0.96746979 
    3100    292.69336   -829.57867    142464.64   -40823.103    4019.4385   -44842.541    24.903882   0.96758406 
    3200    293.77284   -1193.1283    142593.67   -40825.109    4034.2625   -44859.371    25.963896   0.96670854 
    3300    300.36817   -801.59221    142700.62   -40825.439    4124.8335   -44950.272     26.84523   0.96598404 
    3400    295.23759   -1059.8603    142823.59   -40820.334    4054.3774   -44874.712    28.184095   0.96515231 
    3500    297.16056   -1072.0596    142974.36   -40690.699    4080.7846   -44771.483    29.347485   0.96413455 
    3600    297.84764   -1001.3596    143088.17   -40757.141    4090.2201   -44847.361    30.368412   0.96336769 
    3700    295.67467   -917.33224    143255.88   -40765.686    4060.3796   -44826.065    31.553436   0.96223983 
    3800    292.59731   -1251.3877    142946.98   -40768.589    4018.1194   -44786.709     32.52545   0.96431916 
    3900    296.66598   -1256.1212    142665.13   -40922.632    4073.9928   -44996.625    33.438858    0.9662243 
    4000    289.29462   -895.14696    142607.27   -40904.211     3972.765   -44876.976    34.687126   0.96661635 
    4100    292.70324   -1073.4295    142403.93    -40813.16    4019.5742   -44832.734    35.992406   0.96799655 
    4200    292.69305   -1010.6961     142437.7   -40827.761    4019.4342   -44847.195    37.316564   0.96776708 
    4300    300.18171   -937.07321    142847.81   -40773.345     4122.273   -44895.618    38.347089   0.96498863 
    4400     292.6421   -1058.6187    142900.16   -40763.711    4018.7346   -44782.445    39.605962   0.96463514 
    4500    292.72372   -1158.6723    142510.75   -40765.053    4019.8554   -44784.908    40.840716   0.96727101 
    4600    294.33988   -958.11192    142038.12   -40808.513    4042.0495   -44850.563    41.986804    0.9704896 
    4700    296.77844   -1189.8616    142218.95   -40831.781    4075.5372   -44907.318    43.232952   0.96925559 
    4800    299.76635   -957.37699    142283.56   -40774.837     4116.569   -44891.406    44.761839   0.96881547 
    4900    297.18775   -1084.9777    142303.27   -40809.144    4081.1581   -44890.302    46.042888    0.9686813 
    5000    296.35913   -947.10994    142384.87   -40834.959     4069.779   -44904.738      46.9474   0.96812617 
    5100    289.46928   -1041.1336     142228.2   -40871.487    3975.1635   -44846.651    48.015329   0.96919256 
    5200    293.45313   -887.39489    142560.77   -40915.165    4029.8721   -44945.038    49.183015   0.96693162 
    5300    292.32859   -1246.3366    142629.93   -40895.888    4014.4292   -44910.317    50.247093   0.96646274 
    5400    292.96387   -961.71908    142221.18    -40794.64    4023.1532   -44817.793    51.354973    0.9692404 
    5500    296.65822   -950.00852       142327   -40757.207    4073.8863   -44831.093    52.417973   0.96851979 
    5600     301.5697    -1260.293    142691.88   -40672.079    4141.3336   -44813.413    53.618101   0.96604321 
    5700    290.87772   -831.83227    142444.44   -40748.677     3994.505   -44743.182    54.529732   0.96772131 
    5800     301.2975   -1162.3082    142437.02   -40693.046    4137.5956   -44830.642    56.000742   0.96777172 
    5900    288.73951   -1050.4945    142367.91   -40904.139    3965.1418   -44869.281    57.380472   0.96824148 
    6000    286.58004   -1102.8093    142175.04   -40922.233    3935.4867    -44857.72    58.901103   0.96955499 
    6100    289.29808   -1032.0092    141853.71   -40858.453    3972.8125   -44831.266    59.543757   0.97175125 
    6200    289.25618   -1159.7661    141913.51   -40887.564    3972.2371   -44859.801    60.766122   0.97134178 
    6300    294.60133   -764.24178    142049.14   -40856.303    4045.6398   -44901.943    61.580973   0.97041432 
    6400    298.73583   -900.42649    142029.22   -40899.828    4102.4172   -45002.245     62.51407   0.97055043 
    6500     292.0229   -852.26974    142336.22   -40894.829    4010.2313   -44905.061    63.251992   0.96845708 
    6600    292.20962   -1019.7476    142560.86   -40976.891    4012.7955   -44989.686    63.991503   0.96693104 
    6700    293.89678   -875.86597    142585.87   -40957.512    4035.9645   -44993.477    64.966975   0.96676142 
    6800    289.73676   -1188.4695    142662.84   -41036.705    3978.8367   -45015.541     65.82006   0.96623984 
    6900    293.88969   -722.15142    142979.66   -40931.797    4035.8672   -44967.664    67.002485   0.96409879 
    7000    294.84901   -1039.0632    142807.14   -40811.731    4049.0411   -44860.772    68.137059   0.96526348 
    7100    297.13115   -724.19481    142509.86   -40965.446    4080.3809   -45045.826     69.19979   0.96727705 
    7200    293.21986   -682.10353    143037.96   -41000.955    4026.6686   -45027.624    70.638058   0.96370585 
    7300    290.74292   -1035.6995    143051.72   -41017.981    3992.6539   -45010.635    71.914189   0.96361313 
    7400    284.44209    -1108.462     143077.2    -41055.47    3906.1271   -44961.597    73.001591   0.96344153 
    7500    296.91572   -856.66661    143301.88   -40936.715    4077.4224   -45014.137    73.889538   0.96193096 
    7600    292.97688    -862.8147    143198.13   -40949.219    4023.3319   -44972.551    74.797205   0.96262789 
    7700    298.33809   -995.18523     143142.6   -40893.744    4096.9552   -44990.699    76.038223   0.96300133 
    7800    292.23108   -1030.4897    143508.13   -40927.379    4013.0902    -44940.47    77.200039   0.96054849 
    7900    290.71532   -858.72554    143494.09   -41059.197    3992.2748   -45051.472     77.90489    0.9606425 
    8000    294.80182   -987.82118    143566.01   -41065.825    4048.3931   -45114.218    79.132214   0.96016122 
    8100    292.41372   -774.70517    143774.46   -40982.384    4015.5983   -44997.982    80.169106   0.95876917 
    8200    296.64463   -1222.0468    143944.98   -40992.175    4073.6996   -45065.874    81.438756   0.95763339 
    8300     288.7508   -739.12519    143524.75   -40943.148    3965.2969   -44908.445    82.110889   0.96043722 
    8400    291.00723   -1111.0107    143392.69   -41013.098    3996.2835   -45009.382    83.199183   0.96132177 
    8500    287.78702   -833.86336    143377.38   -41020.493    3952.0617   -44972.555    84.200655   0.96142441 
    8600    290.83204   -1277.0798    143131.71    -40968.41    3993.8778   -44962.288    85.281481   0.96307463 
    8700    291.83247   -1121.2731    142757.72   -40887.428    4007.6163   -44895.044    86.031813   0.96559765 
    8800    295.23271   -1074.8052    142724.98   -40847.456    4054.3103   -44901.766    87.210673   0.96581915 
    8900    292.97944   -687.18979    142685.46   -40866.259    4023.3671   -44889.626    88.013934   0.96608667 
    9000     296.3497   -1052.8392    142999.99   -40708.029    4069.6495   -44777.679    89.297642   0.96396175 
    9100    298.02881   -941.43136     142937.7   -40768.494     4092.708   -44861.202    91.003778   0.96438181 
    9200    289.54456   -1003.3216    143068.45   -40794.019    3976.1972   -44770.216    92.315531   0.96350043 
    9300    297.80023   -1107.1314    143239.98   -40760.139     4089.569   -44849.708    93.583145   0.96234667 
    9400    293.98781   -881.43449    143103.19   -40839.713    4037.2147   -44876.928     94.64833   0.96326658 
    9500    289.00835   -1057.3195    143102.99   -40864.101    3968.8338   -44832.935    95.892175    0.9632679 
    9600    290.58463    -1189.482    142836.95   -40884.583    3990.4802   -44875.063    96.918918   0.96506201 
    9700    292.56941   -1227.0721    142695.25   -40843.329    4017.7364   -44861.065    97.845659   0.96602037 
    9800    294.43828   -1105.6039       142203   -40837.322    4043.4007   -44880.723    98.492158    0.9693643 
    9900    295.37277   -916.91786    142393.87   -40810.044    4056.2337   -44866.278    99.352762     0.968065 
   10000    292.83885   -1014.0945     142189.8   -40946.427    4021.4364   -44967.864    100.14894    0.9694543 
   10100    292.51638   -996.04738    142227.46    -40884.33     4017.008   -44901.338    101.02473   0.96919763 
   10200    296.79749   -657.51407    142287.19   -40936.117    4075.7988   -45011.916      102.497   0.96879076 
   10300    294.98778   -1013.7764    142666.24    -40873.27    4050.9468   -44924.217     103.8345   0.96621678 
   10400    294.81495   -1164.8669    142705.77   -40814.693    4048.5733   -44863.266    105.17846   0.96594917 
   10500    297.59847   -858.27741    142653.42   -40809.661    4086.7984    -44896.46      106.277   0.96630359 
   10600    297.83561   -1218.2386    143002.39   -40803.976    4090.0549   -44894.031    107.62809   0.96394558 
   10700    298.40348   -1001.9161    142780.74   -40868.919    4097.8533   -44966.773    108.96232   0.96544198 
   10800    295.19579   -805.41572    143135.55   -40842.879    4053.8033   -44896.682    110.58481   0.96304879 
   10900    297.69908   -939.32568    143257.45   -40754.308      4088.18   -44842.488    111.87244   0.96222934 
   11000    296.36005   -1155.0019    142949.16   -40786.078    4069.7917   -44855.869    112.92303   0.96430452 
   11100     299.7891   -1089.3786    142984.83   -40816.183    4116.8813   -44933.064    113.71902   0.96406392 
   11200     296.2156   -849.51568    143121.86   -40854.937     4067.808   -44922.745    114.82277   0.96314091 
   11300    293.05018   -910.20782    142931.72   -40892.598    4024.3386   -44916.936    115.32456   0.96442212 
   11400    290.77702   -982.79637    142596.55   -40924.912    3993.1221   -44918.034     115.9381     0.966689 
   11500    288.67912   -883.60406    142773.12   -40992.004    3964.3125   -44956.317    116.86687   0.96549348 
   11600    291.21068   -922.55971    142902.43   -41037.385    3999.0775   -45036.463    117.82936   0.96461985 
   11700    296.80819   -1001.1863    142777.85   -40870.674    4075.9458   -44946.619    118.40003   0.96546148 
   11800    292.48296   -1184.2336    142245.32   -40915.215    4016.5492   -44931.764    118.88826   0.96907594 
   11900    293.27289   -1257.7367    142511.28   -40974.593    4027.3969    -45001.99    120.23762   0.96726741 
   12000    297.70978   -958.30033    142656.45    -40963.72    4088.3269   -45052.047    121.63603   0.96628307 
   12100    290.32244   -821.37743     143143.3    -40917.88    3986.8796    -44904.76    123.03043   0.96299663 
   12200     298.9183   -1313.0992    142905.28       -40769     4104.923   -44873.923    124.08188    0.9646006 
   12300    301.93172   -1029.6955    142500.24   -40813.067    4146.3051   -44959.372    124.67646   0.96734238 
   12400    299.22305   -1059.0207    142710.25   -40726.068    4109.1081   -44835.176    126.09207   0.96591881 
   12500    297.64351   -1165.9036     142611.1   -40768.196    4087.4169   -44855.613    127.17089   0.96659037 
   12600    300.58275   -860.54642    142413.19   -40792.459    4127.7802    -44920.24    128.02567   0.96793366 
   12700    301.59067   -1237.3383    142332.89   -40783.639    4141.6216   -44925.261    129.22835   0.96847971 
   12800    296.03592   -1022.6896    142633.21   -40818.741    4065.3405   -44884.081    130.31121   0.96644053 
   12900    293.26621   -923.18108    142493.35   -40835.295    4027.3052     -44862.6    131.63548   0.96738911 
   13000    289.40812   -867.03299    142659.68   -40885.779    3974.3236   -44860.102    132.69172   0.96626124 
   13100     295.7054    -965.3529    142564.79   -40809.478    4060.8016   -44870.279    133.41396   0.96690434 
   13200    305.37019   -1187.2589    142620.06   -40736.585    4193.5242    -44930.11    134.37015   0.96652966 
   13300    300.23073   -1129.8592     142758.8    -40772.59    4122.9461   -44895.536    135.76572   0.96559034 
   13400    293.67701   -1003.1646    142957.05   -40835.578    4032.9466   -44868.524    136.46379   0.96425126 
   13500    293.64161   -828.49086    143204.49   -40828.008    4032.4605   -44860.468    137.57864   0.96258519 
   13600    293.89878   -903.82805    143292.84   -40808.627     4035.992   -44844.619    138.40115   0.96199168 
   13700    293.59212   -903.75784    143590.89   -40841.875    4031.7808   -44873.656    139.45175   0.95999486 
   13800    294.89338   -829.37581    143596.83   -40887.304    4049.6505   -44936.954    140.15932   0.95995515 
   13900    297.73044   -1035.9518    143016.96   -40914.615    4088.6107   -45003.226    140.64795   0.96384737 
   14000    291.92206   -791.46387    143286.12   -41000.598    4008.8466   -45009.445    141.76092    0.9620368 
   14100    289.82985   -1055.0721    143110.18   -40974.698     3980.115   -44954.813    142.73022   0.96321949 
   14200    294.93927   -944.96753    143054.04   -40918.073    4050.2806   -44968.353    144.00081   0.96359751 
   14300    294.59477   -923.42352    143054.44   -40954.655    4045.5498   -45000.204    144.65561   0.96359478 
   14400    296.72423   -1175.6542    142750.96   -40913.322    4074.7928   -44988.115    145.45229   0.96564335 
   14500     290.3683   -889.38731    142453.73    -40950.47    3987.5093   -44937.979    146.65794    0.9676582 
   14600    295.11634   -911.91836    142424.78   -40796.711    4052.7123   -44849.423    147.64734   0.96785484 
   14700    292.09994   -1006.0036    142464.16   -40777.982    4011.2893   -44789.272    148.87055   0.96758734 
   14800    295.70227   -1020.0994    142472.79   -40825.388    4060.7586   -44886.146    149.57712   0.96752869 
   14900    297.35371   -824.72016    142561.04   -40793.217    4083.4371   -44876.654    150.11956   0.96692979 
   15000    293.89637   -1004.5097    142712.52   -40892.657     4035.959   -44928.615    150.97988   0.96590344 
   15100     292.3182   -1046.9975    142661.29   -40880.495    4014.2866   -44894.782    151.81383   0.96625035 
   15200    293.05611   -1190.8589    142553.17   -40954.516      4024.42   -44978.936    152.78132   0.96698317 
   15300    295.56969   -764.35868    142881.03     -40914.7    4058.9379   -44973.638    154.24497   0.96476428 
   15400    301.13163   -938.48389    142881.87   -40835.807    4135.3178   -44971.124    155.98984   0.96475862 
   15500    288.11066   -1114.1321    143082.88   -40854.026    3956.5062   -44810.532    156.91605   0.96340326 
   15600    294.11064   -1015.7647     142926.8   -40890.514    4038.9014   -44929.415     158.2033   0.96445534 
   15700    296.29922   -897.11619    142956.53   -40906.203    4068.9563   -44975.159    159.29962   0.96425478 
   15800    295.72104   -1063.0022    142666.75   -40895.353    4061.0163   -44956.369    160.02939   0.96621334 
   15900     295.1298   -1005.4405    142889.19   -40859.295    4052.8972   -44912.192     161.9429   0.96470919 
   16000    291.47481   -885.92678     143000.3   -40882.171    4002.7046   -44884.875     163.6847   0.96395962 
   16100    288.73259    -1182.926    143072.22   -40885.159    3965.0469   -44850.206     164.9051   0.96347505 
   16200    295.47821    -1125.434    142748.34   -40745.305    4057.6816   -44802.986    165.42096   0.96566111 
   16300    303.50074   -1039.3994    142723.15   -40724.166    4167.8518   -44892.017    166.48105   0.96583154 
   16400    297.89711   -1012.1581    142879.08   -40705.157    4090.8994   -44796.057    168.01165   0.96477744 
   16500    299.84052   -1011.0418    142883.18   -40702.669    4117.5874   -44820.257    169.77847   0.96474978 
   16600     299.5526   -949.70748    142843.15    -40721.11    4113.6336   -44834.744    170.85641   0.96502016 
   16700    297.02117   -1191.2352     142868.6   -40852.311    4078.8704   -44931.181    172.13243    0.9648482 
   16800    293.24816   -1288.9901    142501.76   -40838.541    4027.0574   -44865.598    173.51321   0.96733205 
   16900    297.65308   -954.22383    142476.61   -40823.072    4087.5483   -44910.621    174.84544   0.96750276 
   17000     296.6364   -920.06756     142408.5   -40846.277    4073.5867   -44919.864    176.03572    0.9679655 
   17100    294.86674    -1036.411    142262.83       -40852    4049.2847   -44901.285    177.32681   0.96895664 
   17200     297.5511   -750.66369     142598.1   -40779.236    4086.1478   -44865.384     178.8052   0.96667851 
   17300    299.96293   -1076.1124    142502.55   -40817.291    4119.2685    -44936.56    179.70317   0.96732667 
   17400    297.43456   -1230.2525    142534.63   -40829.893    4084.5475   -44914.441    181.31848   0.96710892 
   17500    295.19156   -866.34436    142718.82   -40842.174    4053.7453    -44895.92    182.42146    0.9658608 
   17600    290.24233   -1204.9022     142570.9   -40902.938    3985.7794   -44888.717    183.43275   0.96686291 
   17700    292.33783    -845.7109    142626.34   -40804.391    4014.5561   -44818.947      184.329    0.9664871 
   17800    297.52764   -1123.1048    142446.29   -40893.548    4085.8256   -44979.373    185.21856   0.96770872 
   17900    294.54372   -886.42352    142846.97   -40932.569    4044.8487   -44977.418    186.66666   0.96499434 
   18000    298.16582   -668.35682    142738.39    -40993.45    4094.5896    -45088.04    188.03398    0.9657284 
   18100    297.86055    -962.5272    142779.55   -40987.661    4090.3974   -45078.059    189.28464   0.96545001 
   18200    289.88819   -1327.9408    142509.56   -40948.766    3980.9162   -44929.682    190.54602   0.96727906 
   18300    293.83309   -771.27633    142499.09   -40974.869    4035.0898   -45009.959    192.00861   0.96735017 
   18400    292.20731   -1079.1197    142494.79   -41027.043    4012.7638   -45039.807    192.95059   0.96737936 
   18500    296.65341    -1208.837    142607.37   -40945.651    4073.8202   -45019.471    194.35637   0.96661565 
   18600    290.15441   -887.65431    142506.53   -40961.459    3984.5721   -44946.031    194.80249   0.96729964 
   18700    291.74042   -994.36722    142188.41   -40823.581    4006.3522   -44829.933     195.5659   0.96946382 
   18800    291.73677    -1033.222    142166.38   -40868.565     4006.302   -44874.867    196.81443   0.96961406 
   18900    290.38139   -916.77539    142315.19   -40889.236    3987.6892   -44876.925    198.06593   0.96860014 
   19000    295.43473   -633.28205    142389.64   -40878.662    4057.0846   -44935.747     199.7539   0.96809371 
   19100    293.32665   -936.57216    142564.02   -40908.334    4028.1352    -44936.47    201.52351   0.96690957 
   19200     301.3341   -1220.5533    142516.97   -40861.973    4138.0982   -45000.071    202.85124   0.96722878 
   19300    294.94518   -1144.6227    142669.31   -40859.901    4050.3618   -44910.263    204.21354   0.96619598 
   19400    292.18136   -964.53841    142639.95   -40899.804    4012.4074   -44912.211    205.35697   0.96639485 
   19500    292.61926   -1081.7773    142659.73   -40851.616    4018.4209   -44870.037    205.77127   0.96626086 
   19600    299.42227   -965.04908    142712.45   -40806.555    4111.8439   -44918.399    207.03053   0.96590393 
   19700    296.68843   -1172.5185    142748.29   -40828.389    4074.3012    -44902.69    208.09253   0.96566142 
   19800    288.20471    -1026.179    143013.72   -40831.884    3957.7977   -44789.681     209.8682    0.9638692 
   19900    297.98806   -961.51066    143257.45    -40757.78    4092.1484   -44849.928    210.84864   0.96222928 
   20000    296.86771   -1233.6255     143352.2   -40735.728    4076.7631   -44812.491    212.07931   0.96159334 
   20100    300.55639   -803.89508    143110.13   -40777.663    4127.4182   -44905.082    212.27024   0.96321987 
   20200    297.57695   -1016.8152    143119.95   -40732.131    4086.5028   -44818.633    213.41288   0.96315375 
   20300    298.07412   -1059.5222    142908.06   -40685.786    4093.3303   -44779.117    214.35587   0.96458182 
   20400    302.18843   -963.98388    142284.83   -40727.115    4149.8304   -44876.946    215.02117   0.96880685 
   20500    303.62362   -830.46282    142357.69   -40683.748    4169.5393   -44853.287    216.07281   0.96831097 
   20600    293.26659   -848.93437    142509.55   -40793.281    4027.3105   -44820.592    217.74698   0.96727912 
   20700    294.10738   -1101.8242    142974.41   -40845.522    4038.8566   -44884.379    219.59694   0.96413422 
   20800    289.06858   -1031.4563    142905.67   -40882.732    3969.6608   -44852.393    221.23066   0.96459794 
   20900     294.3725   -853.23124    142928.29   -40870.813    4042.4974    -44913.31    222.49968   0.96444532 
   21000    292.68929    -1160.479    142896.71   -40776.122    4019.3825   -44795.504    224.18423   0.96465845 
   21100    298.12674   -749.99518     142971.8   -40855.849    4094.0528   -44949.902    225.07569   0.96415176 
   21200    291.03906   -940.92841    142632.48   -40921.385    3996.7206   -44918.106    226.24146   0.96644552 
   21300    293.51935   -1044.4229    142674.72   -40905.085    4030.7815   -44935.867    228.01486   0.96615934 
   21400    297.83383   -1017.6138     142388.2   -40845.978    4090.0304   -44936.009    228.98923   0.96810353 
   21500    292.91735   -836.38929    142955.67   -40786.262    4022.5144   -44808.777    231.73717   0.96426058 
   21600    294.26619   -1146.4456    142608.66   -40852.114    4041.0375   -44893.151    232.37941    0.9666069 
   21700    291.77161   -1019.3543    142323.76   -40761.827    4006.7804   -44768.608    233.57685   0.96854184 
   21800    301.07849   -1175.9073    142410.24   -40756.112     4134.588     -44890.7    234.85774   0.96795368 
   21900    299.29285   -765.65481    142247.62   -40683.028    4110.0665   -44793.094    236.37217   0.96906024 
   22000    294.75532   -1050.0372    142472.84   -40737.531    4047.7545   -44785.285    237.92607   0.96752837 
   22100    297.43697   -1164.6125     142600.9   -40681.403    4084.5805   -44765.984    238.87842   0.96665951 
   22200    297.36487   -955.00006    142710.41   -40689.506    4083.5904   -44773.096    240.01699   0.96591772 
   22300    292.76535   -1114.1316    142762.77   -40720.398    4020.4271   -44740.825    241.21548   0.96556349 
   22400    298.29612   -766.43154    142923.96   -40779.498    4096.3789   -44875.876    242.54386   0.96447453 
   22500    295.81718   -1088.5736    142773.24   -40816.331    4062.3366   -44878.668    243.27643    0.9654927 
   22600     297.3804   -1106.0491    142565.17   -40847.567    4083.8036   -44931.371    244.58652   0.96690177 
   22700    298.81888   -1027.3715    142778.64    -40821.17    4103.5577   -44924.727    245.91651   0.96545613 
   22800    291.30924   -966.80359    142759.59   -40967.295    4000.4309   -44967.726    247.44231     0.965585 
   22900    286.55957   -833.87241    142875.09   -40938.399    3935.2057   -44873.605    248.69793   0.96480442 
   23000    297.37312   -894.94027    143045.59   -40822.935    4083.7036   -44906.639    249.56784   0.96365444 
   23100     294.5759   -1079.7062    143066.52   -40856.788    4045.2907   -44902.079    251.49118   0.96351346 
   23200    294.32612   -1192.5967    142933.37   -40870.111    4041.8605   -44911.972    252.51371   0.96441101 
   23300    291.63257   -930.07189    142727.35   -40993.194     4004.871   -44998.065    253.23504   0.96580309 
   23400    293.39152   -955.36628    142819.43   -40943.449     4029.026   -44972.475    254.74547   0.96518041 
   23500    289.41776   -1023.1523    143047.31   -40925.984    3974.4559    -44900.44    256.12194   0.96364285 
   23600     293.4142   -1234.1759    142848.94   -40974.105    4029.3375   -45003.443    257.03332   0.96498104 
   23700    290.64339   -931.08377    142880.33   -41020.102    3991.2871   -45011.389    257.53553     0.964769 
   23800    294.63231   -1288.3103    142605.67   -40958.228    4046.0653   -45004.293    257.80157   0.96662721 
   23900    295.61232   -816.73039    142833.92   -40839.159    4059.5233   -44898.682    259.05492   0.96508252 
   24000     293.6199   -1186.6487    142773.04   -40837.135    4032.1623   -44869.297     259.9577   0.96549404 
   24100     291.8686   -874.41818    142514.78   -40847.818    4008.1124   -44855.931    261.81401   0.96724367 
   24200    294.77134   -867.76879    142609.88   -40755.121    4047.9746   -44803.096    262.55179   0.96659867 
   24300    294.05854   -876.74411    142636.59   -40777.925    4038.1859   -44816.111    263.98734   0.96641765 
   24400    299.10346   -1068.0751    142940.69   -40737.885    4107.4657   -44845.351     265.9759   0.96436163 
   24500    298.66582   -770.11577    143099.89   -40763.473    4101.4558   -44864.929    266.83189   0.96328876 
   24600    297.74591   -938.33334    142924.62   -40825.295     4088.823   -44914.118    267.04526   0.96447004 
   24700    296.27205   -985.04704    142655.48   -40786.188    4068.5831   -44854.771    266.83067   0.96628966 
   24800     293.7679   -766.00074    142536.67   -40797.532    4034.1946   -44831.727    267.99443   0.96709513 
   24900    293.21804    -998.9733    142397.18   -40854.119    4026.6436   -44880.763     269.3881   0.96804246 
   25000    292.31646   -869.15394    142308.04   -40866.268    4014.2626    -44880.53    271.13016   0.96864881 
   25100    295.33168   -956.39533    142455.26   -40877.493    4055.6695   -44933.162     271.9486   0.96764778 
   25200     292.8033   -970.81621    142485.56   -40890.426    4020.9482   -44911.374    273.16331   0.96744201 
   25300    293.43081   -859.69897    142687.21   -40944.412    4029.5656   -44973.977    274.96315   0.96607477 
   25400    292.74806   -986.59217     142797.7   -40847.215    4020.1896   -44867.405    276.48023    0.9653273 
   25500    291.04368   -898.30366    142560.53    -40864.91    3996.7841   -44861.694    276.84837   0.96693326 
   25600      295.081   -1085.9951    142468.22   -40943.173    4052.2269     -44995.4    277.71529   0.96755975 
   25700    297.55223   -1097.7983    142676.97   -40949.562    4086.1634   -45035.725    278.89435   0.96614414 
   25800    288.89375   -1174.1318     142776.2   -40995.364    3967.2599   -44962.624     279.9914   0.96547264 
   25900    288.36788   -1308.1874    142381.48   -41072.281    3960.0384    -45032.32    279.67934   0.96814919 
   26000    297.37879   -1029.7275    142250.81    -40944.14    4083.7815   -45027.922    280.60168   0.96903854 
   26100     291.7058    -889.0423    142609.32   -40941.537    4005.8766   -44947.414    282.33331   0.96660247 
   26200    296.65523   -814.66169    142888.52   -40843.502    4073.8452   -44917.347    282.90132   0.96471373 
   26300    293.81385   -1041.3272    142973.35   -40840.664    4034.8257   -44875.489    284.07634   0.96414133 
   26400     294.4271   -1127.7976    143024.72   -40883.586    4043.2472   -44926.833    285.69254   0.96379507 
   26500    297.41721   -1160.0179    143102.43   -40684.703    4084.3091   -44769.012    287.04739   0.96327165 
   26600    295.00797   -990.47142    142465.12   -40808.888    4051.2241   -44860.112    287.33002    0.9675808 
   26700    300.31449   -781.39317    142662.67   -40722.388    4124.0963   -44846.484     288.6924   0.96624099 
   26800    297.26219   -1086.6204    142720.43   -40768.749    4082.1803    -44850.93    290.59095   0.96584993 
   26900    291.07802   -646.87052    142807.62   -40892.789    3997.2557   -44890.045    291.50902   0.96526025 
   27000    292.82222   -966.23641     142470.9   -40937.544     4021.208   -44958.752    292.27526   0.96754155 
   27100      291.678    -1087.216    142586.55   -40858.871     4005.495   -44864.366    293.57422   0.96675681 
   27200    301.66583   -1001.8984    142539.51    -40822.81    4142.6537   -44965.464     294.3559   0.96707585 
   27300    299.80419   -1021.4893    142652.91   -40756.548    4117.0886   -44873.636    295.23305   0.96630708 
   27400    300.39803     -805.147    142576.57   -40751.283    4125.2436   -44876.526    296.72382   0.96682447 
   27500    296.99832   -1043.5333    142762.43   -40825.331    4078.5567   -44903.887    298.28763   0.96556574 
   27600    294.20056   -1167.9001    142622.37   -40781.096    4040.1363   -44821.232    299.40811   0.96651397 
   27700    295.61689   -920.26723    142613.47   -40759.572    4059.5862   -44819.158    300.32456   0.96657432 
   27800    302.84616   -1006.7767    142753.94   -40711.585    4158.8628   -44870.447    301.31788   0.96562318 
   27900    299.32402   -858.36376    142552.08   -40732.907    4110.4946   -44843.402    301.90994   0.96699054 
   28000    300.59031   -903.24037    142636.39   -40636.468    4127.8841   -44764.352    302.92503   0.96641901 
   28100    300.50763   -1172.5085     142596.7   -40729.605    4126.7486   -44856.354    304.10927   0.96668799 
   28200    293.48734    -1170.389    142605.11   -40894.217    4030.3418   -44924.559    304.91068   0.96663099 
   28300     294.7334    -1092.292    142410.71   -40879.302    4047.4535   -44926.755    305.79581   0.96795048 
   28400    298.59461   -1088.1759    142114.18   -40750.276     4100.478   -44850.754    306.10558   0.96997018 
   28500    293.47758   -953.98421    142016.55    -40853.02    4030.2079   -44883.228    307.13031   0.97063699 
   28600    301.74242   -965.12474    141917.31   -40898.103    4143.7055   -45041.808    308.18442   0.97131576 
   28700    282.32181   -1016.6766    142115.77    -40979.72    3877.0101    -44856.73     308.8919   0.96995932 
   28800    291.65149   -797.58549    142122.95   -40917.053    4005.1309   -44922.183    310.54068   0.96991033 
   28900    292.60528   -1014.4671    142588.54   -40889.741    4018.2289    -44907.97    312.10964   0.96674332 
   29000     288.9671   -920.21605    142598.55   -40877.193    3968.2673    -44845.46      313.101   0.96667542 
   29100    292.99712   -1097.6691    142629.69   -40823.677    4023.6099   -44847.287    314.47107   0.96646438 
   29200    296.79978   -984.57587    142845.39   -40827.915    4075.8303   -44903.745    316.04765   0.96500503 
   29300    294.67149   -750.72473    142897.61    -40815.63    4046.6033   -44862.234    316.88341   0.96465236 
   29400    289.74964   -858.89329    143228.91   -40837.059    3979.0136   -44816.073      318.528   0.96242101 
   29500    296.41155   -1071.6725    143505.12   -40810.792    4070.4989   -44881.291    320.03042   0.96056864 
   29600    295.13351   -1145.2217    143410.72   -40789.616     4052.948   -44842.564    320.81618   0.96120092 
   29700    295.70545   -999.64372     143492.3   -40769.459    4060.8023   -44830.261    321.28466   0.96065448 
   29800     302.5504   -710.63594    143853.85   -40681.925    4154.8012   -44836.726    323.26871   0.95824002 
   29900    304.36382   -1056.6272     143504.6   -40735.954    4179.7041   -44915.658    323.70935   0.96057212 
   30000    296.82294   -1137.8538    143311.93   -40718.781    4076.1482   -44794.929    324.92868    0.9618635 
   30100    296.86062   -977.49873     143196.3   -40717.506    4076.6657   -44794.172    326.10484   0.96264022 
   30200    297.98894   -1205.2733    142989.83   -40735.851    4092.1604   -44828.011    327.45672   0.96403019 
   30300    295.75649   -1073.0203    142523.42   -40721.969    4061.5031   -44783.472    328.11923   0.96718501 
   30400    295.26637   -972.33152    142403.29   -40904.012    4054.7726   -44958.784    329.64285   0.96800096 
   30500    288.33895    -1107.637    142532.46   -40913.344    3959.6411   -44872.985    330.20924   0.96712371 
   30600    291.37446   -1001.4641    142503.02    -40935.74    4001.3266   -44937.066    331.76747   0.96732345 
   30700    292.14998   -1208.2925    142183.04   -40917.588    4011.9765   -44929.565    332.27044    0.9695004 
   30800    294.59983   -1005.2617    142295.48   -40849.605    4045.6192   -44895.224    333.85497   0.96873431 
   30900    294.60263   -1050.0447    142406.21    -40872.11    4045.6576   -44917.768    335.28931   0.96798107 
   31000    295.34043   -1113.0971    142448.72   -40836.464    4055.7896   -44892.254    336.31992   0.96769222 
   31100    286.73698   -953.81372    142391.85   -41040.484    3937.6419   -44978.126    338.08026   0.96807867 
   31200    292.66361   -911.69239    142213.41   -41029.083      4019.03   -45048.113    339.02381   0.96929336 
   31300    293.24739   -1441.6066     142223.1   -40957.053    4027.0467     -44984.1    340.21852   0.96922736 
   31400    295.52982   -845.94748    142332.98   -40965.176    4058.3904   -45023.566    341.45973   0.96847912 
   31500     297.2224   -853.80371    142788.14   -40860.057    4081.6339   -44941.691    343.63903   0.96539192 
   31600    294.13374   -995.34247    142524.43   -40838.003    4039.2186   -44877.221    344.05116   0.96717817 
   31700    292.59082   -1415.8551    142343.47   -40870.396    4018.0303   -44888.426    344.38731   0.96840774 
   31800    293.50484   -1016.4556    142257.61   -40871.648    4030.5823    -44902.23    345.38618   0.96899223 
   31900    296.87286   -945.59328    142479.94   -40823.877    4076.8339    -44900.71    346.17633   0.96748016 
   32000      296.743   -908.06599    142542.89   -40774.361    4075.0505   -44849.411    347.62889   0.96705291 
   32100    291.18487   -1064.3941    142811.76   -40866.892     3998.723   -44865.615     349.4464   0.96523223 
   32200    293.82121   -964.90269    142726.87   -40871.566    4034.9268   -44906.493    350.56251   0.96580631 
   32300    296.72339   -989.51237    142613.27   -40854.781    4074.7812   -44929.562    350.79147   0.96657564 
   32400    296.17559   -738.92024    142915.94   -40773.603    4067.2586   -44840.862    352.57106   0.96452866 
   32500    291.88967   -1234.7275     142881.6   -40875.541    4008.4018   -44883.943    354.04067   0.96476047 
   32600    295.95947    -1003.434    142552.89   -40885.412    4064.2907   -44949.703    354.60321   0.96698508 
   32700    297.11708   -1060.2901    142693.09    -40879.75    4080.1876   -44959.937    355.99984     0.966035 
   32800    294.02795   -1278.6444    142342.56   -40947.183    4037.7659   -44984.949    356.06036    0.9684139 
   32900    293.65791   -884.34292    142426.58   -41002.899    4032.6843   -45035.584    357.59329    0.9678426 
   33000    290.39124    -988.8813    142441.03   -40986.615    3987.8243    -44974.44    358.07052   0.96774448 
   33100    287.85154   -900.28799    142406.19   -40918.933    3952.9477   -44871.881     359.1633   0.96798124 
   33200    290.34359   -733.64385    142447.99   -40865.358    3987.1701   -44852.528    359.97868    0.9676972 
   33300     300.1365    -893.5796    142414.15   -40805.153    4121.6521   -44926.805    361.04357   0.96792713 
   33400    295.21918   -1106.6381    142102.05   -40881.774    4054.1245   -44935.898    361.31965   0.97005297 
   33500     295.8953   -1286.0382    142172.53    -40789.12    4063.4095    -44852.53    362.46404   0.96957205 
   33600    302.12923   -1194.6926    142106.36   -40826.972    4149.0174   -44975.989    362.87024   0.97002356 
   33700    296.94339   -862.85785    142229.17   -40853.903    4077.8023   -44931.706    364.38128   0.96918599 
   33800    295.77499   -965.25337    142033.82   -40839.162    4061.7572   -44900.919    365.47058   0.97051894 
   33900     298.0935   -1279.0374    141839.07    -40829.81    4093.5964   -44923.407    366.80187   0.97185154 
   34000    295.86871   -931.89184       142370   -40809.496    4063.0443    -44872.54    369.20627   0.96822725 
   34100    292.33592   -941.69283    142338.89   -40917.983    4014.5299   -44932.513    370.43423   0.96843886 
   34200    294.22982   -1085.3743    142432.89   -40886.236     4040.538   -44926.774    372.05948   0.96779975 
   34300    292.66873   -1027.5698    142931.47   -40803.197    4019.1002   -44822.298    374.74099   0.96442381 
   34400    294.73538   -802.83514    143344.16   -40687.214    4047.4807   -44734.695    376.77319   0.96164725 
   34500    296.40083   -1233.2921    143365.35   -40648.408    4070.3517    -44718.76    377.75542   0.96150511 
   34600    295.41664   -964.33229    143321.19   -40725.403    4056.8361   -44782.239    378.39467   0.96180135 
   34700    295.63526   -1010.9496    143071.31   -40795.674    4059.8384   -44855.513    378.76534    0.9634812 
   34800    299.93597    -1037.684    143146.01   -40834.931    4118.8983   -44953.829    379.79036   0.96297839 
   34900    293.31601   -1294.4824    143006.21   -40821.639     4027.989   -44849.628    381.11515   0.96391978 
   35000    295.56224   -972.19015    142853.19   -40884.218    4058.8357   -44943.054    382.09546   0.96495234 
   35100    302.20684    -1255.908    142552.22   -40840.703    4150.0832   -44990.786    381.83524   0.96698964 
   35200      304.088   -777.29359    142703.43   -40676.126    4175.9163   -44852.043    383.28623   0.96596496 
   35300    293.28057   -1135.2046    142597.88   -40808.284    4027.5024   -44835.787    383.98974   0.96667997 
   35400    289.76686     -892.423    142607.22   -40920.565      3979.25   -44899.815    385.80494   0.96661669 
   35500    296.87674   -1004.1056       142747   -40852.688    4076.8871   -44929.575    386.81934   0.96567015 
   35600    295.90859   -873.85179    143095.76   -40827.369    4063.5919   -44890.961     388.9496   0.96331659 
   35700    298.14666   -1062.0816    142999.34   -40771.119    4094.3265   -44865.446    389.09321    0.9639661 
   35800     289.7032   -932.20368    143009.26    -40780.53    3978.3758   -44758.906    389.99393   0.96389925 
   35900    300.69744   -892.29262    142696.81   -40757.668    4129.3552   -44887.024    389.96518    0.9660098 
   36000    297.90488   -776.57351    142924.13   -40819.474    4091.0062    -44910.48    391.34742   0.96447339 
   36100    297.22459   -996.27538    143015.26   -40825.839    4081.6641   -44907.504    392.49318   0.96385878 
   36200    293.99516    -1001.379    143088.75    -40818.62    4037.3155   -44855.936    393.39325   0.96336376 
   36300    291.22381   -839.21141    143162.77   -40843.687    3999.2577   -44842.944     394.5214   0.96286567 
   36400    298.72435   -818.51747    142654.06   -40797.322    4102.2596   -44899.581    395.37486   0.96629928 
   36500    298.35214    -1041.342    142969.53   -40712.475    4097.1482   -44809.624    396.98704   0.96416707 
   36600    296.40571   -1291.8046    143072.57   -40822.791    4070.4187    -44893.21    398.57386   0.96347272 
   36700    288.13665   -900.72054    143121.72   -40865.223     3956.863   -44822.086    399.47062   0.96314182 
   36800    289.77194   -959.70064     143270.9   -40874.434    3979.3197   -44853.754    400.28234     0.962139 
   36900    291.29292   -1043.7344    142953.13   -40970.747    4000.2068   -44970.954    400.35898   0.96427769 
   37000    291.60728    -1020.813    143034.61   -40931.835    4004.5238   -44936.359    400.99952    0.9637284 
   37100    292.37966   -918.20278    143234.57   -40928.116    4015.1306   -44943.246    401.88578   0.96238299 
   37200    301.03013   -1089.3201    142887.77   -40905.296    4133.9239    -45039.22    401.92144   0.96471877 
   37300     294.7531   -1209.0637    142679.57   -40892.333    4047.7241   -44940.057    402.98916   0.96612649 
   37400    291.27368   -999.70736    142828.06   -40971.494    3999.9425   -44971.436    404.60198   0.96512212 
   37500    294.28034   -949.43786    143063.18   -40943.791    4041.2318   -44985.022    405.94709   0.96353595 
   37600    292.80695   -1137.1354    143003.11   -40893.366    4020.9983   -44914.364    406.42843   0.96394071 
   37700    298.01466   -1222.4846    142792.51   -40957.051    4092.5137   -45049.564    407.44469   0.96536235 
   37800     291.0318   -1016.3151    142914.76   -40956.338     3996.621   -44952.959    408.89637   0.96453658 
   37900    291.22062   -1250.2985    142621.26   -40974.374     3999.214   -44973.588    409.89151   0.96652152 
   38000    292.77633   -1091.9693     142580.6    -40966.36    4020.5778   -44986.938    410.82115   0.96679717 
   38100    293.97744   -1060.0514    142591.44    -40995.75    4037.0722   -45032.822    411.86328   0.96672362 
   38200    288.87956   -802.86229    142567.92   -40989.336    3967.0651   -44956.401     412.7538   0.96688314 
   38300    288.60951   -908.35627    142940.71   -41063.165    3963.3567   -45026.522    414.76215   0.96436149 
   38400     289.3583   -954.75992    142849.87   -41123.554    3973.6395   -45097.193    415.29179   0.96497474 
   38500    289.06284   -974.11241    142780.28   -41115.557     3969.582   -45085.139    416.20187   0.96544507 
   38600    294.86986   -978.10515    142870.19   -40978.149    4049.3275   -45027.476    417.05828   0.96483749 
   38700    291.56673   -736.31341    142677.33   -40960.565    4003.9669   -44964.532     417.6373   0.96614169 
   38800    292.80441   -1066.3673    143062.92   -40890.821    4020.9635   -44911.784    419.65986   0.96353772 
   38900    299.78207   -1038.8418       142960   -40724.167    4116.7849   -44840.952     420.1912   0.96423139 
   39000     298.1813   -839.59202    142823.17   -40768.535    4094.8021   -44863.337     420.9432   0.96515516 
   39100    293.58805   -987.55915    143117.66    -40838.12    4031.7249   -44869.845    422.77557   0.96316913 
   39200    294.43891    -1031.638    143010.92    -40822.26    4043.4094    -44865.67    421.95182   0.96388802 
   39300     298.5942   -895.70552    142788.69   -40821.499    4100.4723   -44921.972    422.61559   0.96538822 
   39400    294.66392   -1210.9989    143016.29   -40824.306    4046.4994   -44870.806    423.82395   0.96385188 
   39500    290.40124   -809.43723    143150.62   -40742.794    3987.9618   -44730.756    425.70986   0.96294741 
   39600    298.65541   -1065.0249    142964.39   -40711.662    4101.3129   -44812.975    427.25524   0.96420177 
   39700    295.26465   -1059.4396    142850.06   -40819.209    4054.7489   -44873.957    429.39419   0.96497345 
   39800    296.11578   -829.67364    142648.28   -40812.537    4066.4372   -44878.974    429.83789   0.96633845 
   39900    292.98521   -1099.3618    142334.75   -41039.317    4023.4464   -45062.763     430.4213   0.96846704 
   40000    296.98324   -836.18051    142305.62    -40914.11    4078.3497    -44992.46    431.52881    0.9686653 
   40100    296.64218   -947.29582    142694.74    -40919.52     4073.666   -44993.186    432.91015    0.9660238 
   40200    292.63855   -907.88916    142557.86   -40787.788    4018.6857   -44806.474    433.52095   0.96695138 
   40300    303.22924    -974.0974    142853.37   -40859.401    4164.1234   -45023.524    435.05713    0.9649511 
   40400    290.32265   -658.26598    143143.81   -40898.784    3986.8825   -44885.666    436.95297   0.96299318 
   40500     290.2516   -1303.4036    142841.95   -40900.535    3985.9068   -44886.442    437.21095   0.96502827 
   40600    292.70228   -951.54522     143205.3   -40816.145     4019.561   -44835.706    438.69173   0.96257971 
   40700    294.78102   -1139.3991    143060.53   -40810.938    4048.1074   -44859.045     439.4015   0.96355377 
   40800    294.85622   -883.67532    142918.46   -40849.158    4049.1401   -44898.298    440.50317   0.96451161 
   40900    292.90852   -997.63458    142830.99   -40863.251    4022.3931   -44885.644    441.66198   0.96510231 
   41000    295.93583   -996.89352    143192.62   -40883.019     4063.966   -44946.985    443.75093   0.96266492 
   41100    293.23144   -1050.4155    143167.04   -40860.017    4026.8277   -44886.844    444.31478   0.96283698 
   41200     297.6012   -1086.0479    143073.78   -40775.633    4086.8359   -44862.469    445.74432   0.96346457 
   41300    294.71658   -989.76691    142820.48   -40905.724    4047.2225   -44952.946    446.47298    0.9651733 
   41400    297.13826   -834.08796    142847.76   -40883.874    4080.4784   -44964.352    448.11527     0.964989 
   41500    295.21996   -961.36409    143108.61   -40891.824    4054.1352   -44945.959    450.24426   0.96323006 
   41600    293.85238   -1319.5471    143215.86   -40832.629    4035.3548   -44867.984    451.52876   0.96250873 
   41700     291.7761   -1100.1254    143437.96   -40980.347    4006.8421    -44987.19    452.53845   0.96101838 
   41800    295.34928   -1088.6253    143335.92   -40865.755    4055.9111   -44921.666    454.22162   0.96170256 
   41900    291.72403   -1034.7871    143173.74   -40842.291    4006.1271   -44848.418    455.66514   0.96279191 
   42000     299.5169   -1063.1459    143315.92   -40844.292    4113.1434   -44957.435    456.44562   0.96183676 
   42100    299.46086   -846.13434    143166.94   -40868.669    4112.3737   -44981.043    456.98701   0.96283762 
   42200    296.96774    -918.0064    143205.18   -40834.878    4078.1368   -44913.015    458.35815   0.96258055 
   42300    294.08009   -1149.8417    143037.98   -40922.433    4038.4818   -44960.915    459.71636   0.96370568 
   42400    293.43891    -1124.879     142871.4   -40872.887    4029.6768   -44902.564    460.47924    0.9648293 
   42500     291.9957   -779.04576    142834.62   -40926.468    4009.8578   -44936.326    461.49996   0.96507779 
   42600    290.18829   -875.99843    142736.44   -40952.063    3985.0373   -44937.101    462.67355   0.96574156 
   42700    288.71976    -1026.125    142734.57   -40990.137    3964.8707   -44955.008    463.75186   0.96575424 
   42800    285.83776   -1036.1071    142858.17   -41022.285    3925.2932   -44947.579    465.00763   0.96491865 
   42900    299.14562   -1261.1668    142724.62   -40966.125    4108.0447    -45074.17    466.01877   0.96582159 
   43000    293.80266   -983.31195    142727.46   -40921.747     4034.672   -44956.419    467.45322   0.96580235 
   43100    293.94266   -1262.9606     142698.3   -40937.716    4036.5946   -44974.311      468.409   0.96599968 
   43200    290.31276   -742.62779    142457.87   -40959.228    3986.7466   -44945.975    468.83955   0.96763004 
   43300    290.27331   -828.97987    142320.34   -40978.614    3986.2049   -44964.819    469.68592   0.96856513 
   43400    293.14762   -1280.1856    142257.34   -40982.775    4025.6766   -45008.452     470.0897   0.96899406 
   43500     294.5589   -864.35767     142839.2   -40852.209    4045.0572   -44897.266    472.75557   0.96504685 
   43600    292.23111   -941.60254    143107.31    -40880.52    4013.0906   -44893.611    474.74668   0.96323885 
   43700    296.14829   -1110.7255     142874.1   -40858.957    4066.8835    -44925.84     475.2683   0.96481108 
   43800    296.73734   -989.55311    142866.08   -40810.135    4074.9728   -44885.108    476.77455   0.96486523 
   43900     293.3977   -936.25676    143207.96   -40953.339    4029.1109    -44982.45    479.22305    0.9625618 
   44000    296.26154   -970.04187    142990.32   -40875.778    4068.4388   -44944.216    479.35942   0.96402691 
   44100    299.44563   -995.27374    142877.66   -40786.811    4112.1646   -44898.976    479.80194   0.96478704 
   44200    294.22036    -820.0116    142929.76   -40886.295    4040.4082   -44926.704    480.81601    0.9644354 
   44300     287.8367   -1114.4737    142644.09    -41018.12    3952.7439   -44970.864    481.19043    0.9663668 
   44400    285.24645   -1246.4084    142707.13   -40994.477    3917.1731    -44911.65    482.02505   0.96593997 
   44500    294.23287   -1089.6205    142645.71   -41026.283    4040.5799   -45066.863    482.68649   0.96635583 
   44600    292.33852   -1003.6553     142700.1   -41014.624    4014.5656    -45029.19    484.51634   0.96598755 
   44700    290.83578   -1066.3884    142533.42   -41081.058     3993.929   -45074.987       484.18   0.96711716 
   44800    285.59389    -841.3497    142736.94   -41035.113    3921.9444   -44957.057    485.86207   0.96573823 
   44900    291.43662   -1071.0924     142787.2   -41039.235    4002.1802   -45041.415    487.43766   0.96539831 
   45000    292.34568   -1052.9763    142449.75   -41019.978    4014.6639   -45034.642    487.72473    0.9676852 
   45100    295.07744   -876.32189    142422.76   -40970.137     4052.178   -45022.315    488.63365    0.9678686 
   45200    294.31077    -1131.908    142346.88   -40937.473    4041.6496   -44979.123    488.54826   0.96838453 
   45300    291.33912    -1275.472    142306.76   -40987.186    4000.8412   -44988.027    490.48137   0.96865756 
   45400    289.65651   -1059.4085     142078.7   -41019.333    3977.7347   -44997.068    491.19209   0.97021237 
   45500    293.17895   -1023.8034    142095.53   -40931.582    4026.1068   -44957.689    492.08391   0.97009746 
   45600    293.76481   -1120.0045    142321.69   -40964.861    4034.1523   -44999.014    493.08564    0.9685559 
   45700    295.32259   -792.75519    142181.17   -40858.615    4055.5446   -44914.159     494.7971   0.96951314 
   45800    293.60058   -738.75972    142487.09   -40855.025    4031.8969   -44886.922    496.63897   0.96743164 
   45900    292.60385    -868.9887    143097.43   -40790.959    4018.2092   -44809.168    499.19185   0.96330531 
   46000    293.28522   -1071.2425    142922.24   -40890.364    4027.5662    -44917.93    499.83541   0.96448611 
   46100    297.28815    -914.5009    142631.03   -40867.387    4082.5368   -44949.924    500.03272   0.96645528 
   46200    290.76866   -818.36714    142837.83   -40891.283    3993.0073    -44884.29    501.27238   0.96505605 
   46300    294.80017   -998.34076    143116.38   -40886.232    4048.3705   -44934.603    502.89819   0.96317779 
   46400    297.10791   -1219.1679    143254.15   -40864.925    4080.0616   -44944.986    504.80488   0.96225146 
   46500    292.27401   -846.49947    142839.75   -40798.404    4013.6797   -44812.084    504.89973   0.96504308 
   46600     305.1047   -1174.2888    142907.99   -40703.172    4189.8784   -44893.051    506.75999   0.96458231 
   46700    295.23412   -947.76358    142770.73   -40731.505    4054.3297   -44785.835    508.13093   0.96550966 
   46800    296.22081   -879.92425    142824.78   -40688.746    4067.8794   -44756.625    509.01478   0.96514428 
   46900    301.48248   -1162.0864    142797.34   -40696.688    4140.1359   -44836.824    510.71382   0.96532975 
   47000    294.36183   -992.66965    142935.87   -40728.303    4042.3509   -44770.654    512.09125   0.96439413 
   47100    296.17328   -935.83873    143099.83   -40707.823    4067.2268    -44775.05     514.3044   0.96328916 
   47200    293.44041   -1327.6455     142997.5   -40787.404    4029.6973   -44817.101    515.42437   0.96397849 
   47300    300.90012   -951.73214     142629.4   -40774.615    4132.1386   -44906.754     514.7732   0.96646633 
   47400    300.79831   -906.04682    142929.43   -40736.808    4130.7404   -44867.549    516.34488   0.96443761 
   47500    299.51091   -820.96026    143265.66   -40791.554    4113.0611   -44904.615    517.98009   0.96217418 
   47600    295.81332   -1093.1982     143185.7   -40755.723    4062.2836   -44818.006    518.97285   0.96271148 
   47700    295.27831   -998.69004    143027.17    -40874.69    4054.9365   -44929.627    519.97566   0.96377851 
   47800    295.03894   -852.62951    143278.75   -40891.999    4051.6494   -44943.649     521.7649   0.96208627 
   47900    295.84826   -1114.0656    143450.03   -40872.332    4062.7634   -44935.096    523.99357   0.96093755 
   48000    293.23876   -1155.8632    143343.74   -40937.746    4026.9282   -44964.675    525.27297   0.96165005 
   48100    295.23833   -1133.7957    143204.24   -40947.645    4054.3875   -45002.033    526.14786   0.96258681 
   48200    293.49638    -1052.989    143185.12   -40914.052     4030.466   -44944.518    527.85082   0.96271539 
   48300    294.96046   -882.70482    143172.98   -40895.377    4050.5716   -44945.948    529.08789     0.962797 
   48400    298.08478   -1121.4167    143343.02   -40832.243    4093.4766   -44925.719    530.49451   0.96165486 
   48500    289.60575   -1090.4593    143197.59   -40957.893    3977.0376    -44934.93    530.14685   0.96263152 
   48600    295.34254   -885.35725    143112.61    -40929.34    4055.8186   -44985.158    531.41219   0.96320316 
   48700    288.89378   -1034.7284    142959.59   -41036.134    3967.2604   -45003.394    530.85372   0.96423414 
   48800    291.90014   -988.83601    142781.42   -40967.114    4008.5455   -44975.659    532.26692   0.96543737 
   48900    291.20891   -1010.0566    142918.11   -40880.249    3999.0532   -44879.302    533.85927   0.96451398 
   49000    297.01075   -883.43667    142764.79   -40827.614    4078.7274   -44906.341     534.2368   0.96554983 
   49100    290.19287   -747.37221    143116.93    -40889.08    3985.1003    -44874.18    535.98738   0.96317409 
   49200     289.7475   -917.55505    142662.74   -40977.964    3978.9842   -44956.948    536.26653   0.96624051 
   49300    289.23835   -1127.4901     142940.3   -40944.394    3971.9923   -44916.386    538.08181   0.96436429 
   49400     295.8084   -1103.1947    142981.75   -40950.043     4062.216   -45012.259    540.25456   0.96408466 
   49500    286.83564   -955.97787    142771.58   -40920.401    3938.9967   -44859.398    542.11359   0.96550387 
   49600    290.98119   -1014.2943    142807.22   -40893.532     3995.926   -44889.458    543.70209   0.96526294 
   49700    293.67054   -1028.3573    142590.25   -40856.054    4032.8577   -44888.912    543.74003   0.96673168 
   49800    295.55721    -1098.818    142850.05    -40800.88    4058.7666   -44859.647    545.84212   0.96497351 
   49900     294.9361   -982.09591     142739.6   -40886.827     4050.237   -44937.064    547.26269   0.96572021 
   50000     288.7064   -984.82863    143005.63   -40924.758    3964.6871   -44889.445    548.66941   0.96392374 
   50100    291.78612   -1122.6115    142797.57   -40916.254    4006.9798   -44923.234    549.92896   0.96532814 
   50200    289.92547   -985.03349    142981.79   -40927.377    3981.4281   -44908.805     550.8025   0.96408442 
   50300    294.02465   -1130.1316    142967.76   -40868.543    4037.7205   -44906.264    551.78327     0.964179 
   50400    289.48689   -928.68503    143000.17    -40920.44    3975.4054   -44895.845    553.14946   0.96396052 
   50500    293.82382   -1191.0494    143259.71   -40906.224    4034.9626   -44941.187    556.00563   0.96221412 
   50600    294.07289   -1025.0392    143417.49   -40925.391     4038.383   -44963.774    557.03024   0.96115558 
   50700    297.07268    -988.1415    143088.41   -40805.581    4079.5778   -44885.159    556.92935   0.96336602 
   50800    290.43968   -1080.2338    143042.24   -40791.681    3988.4896   -44780.171    557.06813   0.96367702 
   50900    288.54631   -1237.7716    142940.21   -40814.446    3962.4888   -44776.935    557.66819   0.96436486 
   51000    292.03659   -887.85749    143015.08   -40866.928    4010.4193   -44877.348    558.97547   0.96385998 
   51100    292.17544   -1030.1292    142968.26   -40827.531     4012.326   -44839.857    558.27729   0.96417565 
   51200    302.04156   -963.72373    142907.92   -40728.021    4147.8134   -44875.834    559.41518   0.96458276 
   51300     294.0906   -951.67258    143142.01    -40723.44    4038.6261   -44762.067    560.93744    0.9630053 
   51400    290.87648   -778.62387    142819.78   -40908.002     3994.488    -44902.49    561.06613   0.96517802 
   51500    290.45456   -824.19527    142670.31   -40962.829    3988.6939   -44951.523     561.7716    0.9661892 
   51600    294.19247   -798.71701    142666.27   -40907.365    4040.0252    -44947.39    563.00728   0.96621658 
   51700    293.81136   -1063.0331    142335.54   -40878.661    4034.7915   -44913.452    563.59743   0.96846172 
   51800    291.90335   -1023.4227     142550.3   -40920.514    4008.5896   -44929.104    565.28733   0.96700263 
   51900    291.05822   -1043.0594    142254.05   -41000.353    3996.9838   -44997.337    565.96404   0.96901644 
   52000    293.17472   -1130.6063    142086.46   -40954.936    4026.0488   -44980.984    567.66587   0.97015942 
   52100    294.76614   -1104.9307    142061.39   -40947.452    4047.9031   -44995.355    569.55649   0.97033065 
   52200    289.64121   -930.36323    142186.29   -40969.027    3977.5245   -44946.552    569.93075   0.96947825 
   52300    297.50029   -1053.8058    142326.41   -40910.078    4085.4501   -44995.528    571.83716   0.96852383 
   52400    297.12177    -1187.608     142612.1   -40822.759    4080.2521   -44903.011    574.10259    0.9665836 
   52500    294.36376    -729.2335    142599.66   -40854.546    4042.3774   -44896.924    575.73925   0.96666791 
   52600    295.39402   -1145.1359    142943.68    -40988.38    4056.5255   -45044.905    577.91678   0.96434145 
   52700    291.07049   -719.48073    142951.49   -40985.711    3997.1522   -44982.863    579.66306   0.96428876 
   52800    289.99867   -1056.9855     142646.9   -41018.749    3982.4334   -45001.182    579.41375   0.96634777 
   52900     286.0508   -1108.4164    142478.03   -41089.028    3928.2189   -45017.246    579.63508   0.96749314 
   53000     286.0721   -1008.6378    142309.64   -41144.483    3928.5113   -45072.994      580.036   0.96863797 
   53100    288.40632   -914.69324    142159.86    -41173.08    3960.5663   -45133.647     581.1511   0.96965848 
   53200    290.79761   -721.99191    142362.14   -40986.578    3993.4048   -44979.982    583.30083    0.9682807 
   53300     293.1662   -928.69861    142906.43   -40987.161    4025.9317   -45013.092    585.37222   0.96459281 
   53400     298.7101   -809.62986    142895.45   -40875.825    4102.0639   -44977.888    586.44224   0.96466694 
   53500    294.28854   -1250.0325     142905.7   -40860.153    4041.3445   -44901.497    588.09187   0.96459773 
   53600    293.82457   -1004.0107    142937.22   -40854.742    4034.9729   -44889.715    589.06426   0.96438502 
   53700    289.50995   -917.27266    142694.36   -40880.359    3975.7221   -44856.081    589.63894   0.96602638 
   53800    287.64984   -803.50271    142719.29   -40911.572    3950.1779    -44861.75    590.64654   0.96585763 
   53900    293.97638   -999.42327    143008.42   -40892.642    4037.0576     -44929.7    592.66186   0.96390492 
   54000    293.73933   -967.43672    142899.85   -40889.955    4033.8024   -44923.757    593.26898   0.96463723 
   54100    292.61107   -947.31438    142671.89   -40860.191    4018.3084   -44878.499    593.77988    0.9661785 
   54200    294.18149   -1029.9652    142748.84    -40907.31    4039.8743   -44947.184    595.40837   0.96565769 
   54300    301.15404   -1042.0676    142713.16   -40820.495    4135.6255   -44956.121    594.65044   0.96589911 
   54400    291.96236   -1166.4628    142954.39    -40922.91    4009.3999   -44932.309    596.74707   0.96426924 
   54500    297.05128   -859.38652    143168.15   -40902.931     4079.284   -44982.215    598.41682   0.96282948 
   54600    292.10521   -1082.3643    143064.05   -40938.802    4011.3616   -44950.164    599.73927   0.96353006 
   54700    293.71178   -866.83977    143086.58   -40921.054     4033.424   -44954.478    599.62629   0.96337839 
   54800     294.3031   -1119.4032     143127.2   -40918.693    4041.5444   -44960.237    600.44905   0.96310494 
   54900    293.44908   -1010.7881    142995.46    -40846.08    4029.8165   -44875.896     601.1417   0.96399225 
   55000    300.11266   -803.63052    143200.63   -40793.404    4121.3247   -44914.728    603.15871   0.96261109 
   55100    297.13286   -1022.3827    143547.77   -40782.302    4080.4043   -44862.706    606.10929   0.96028321 
   55200    299.70328   -866.25691    143169.24   -40844.933    4115.7028   -44960.635    606.11474   0.96282215 
   55300    294.22409    -671.1326    143184.62   -40838.833    4040.4593   -44879.293    607.04906   0.96271873 
   55400    300.27241    -844.5271    143337.28   -40762.337    4123.5185   -44885.856    608.38583   0.96169342 
   55500    298.25123   -1150.4492    143556.17   -40789.205    4095.7625   -44884.968    609.15868   0.96022701 
   55600    297.25597   -1047.1776    143164.46   -40754.522    4082.0949   -44836.617    608.84157   0.96285429 
   55700    297.63767   -1089.3594    143046.55   -40765.439    4087.3366   -44852.775    609.85238   0.96364797 
   55800    291.78269   -1202.0517    142960.71   -40854.833    4006.9327   -44861.765    610.24832   0.96422661 
   55900    293.24078   -1041.5725     142814.1   -40978.404     4026.956    -45005.36    611.65566   0.96521645 
   56000    288.57861   -1162.3815     142516.1   -41043.733    3962.9323   -45006.666    612.48079   0.96723471 
   56100    293.89229   -1197.9239    142593.77   -40980.098    4035.9029   -45016.001    613.75059   0.96670782 
   56200    293.86234   -950.43195    142658.67    -40970.86    4035.4916   -45006.351    613.83871   0.96626804 
   56300       300.88   -848.85915    142573.72   -40863.366    4131.8622   -44995.228    615.68628   0.96684382 
   56400    300.20597    -1028.284    142812.42   -40764.796    4122.6061   -44887.402    617.66085    0.9652278 
   56500     296.7089   -1056.0268    142656.16   -40828.349    4074.5822   -44902.931     617.3351   0.96628509 
   56600    293.70838   -1113.7266    142730.67   -40764.429    4033.3773   -44797.807     619.1166   0.96578065 
   56700    301.58348   -830.96603    142265.07   -40805.114    4141.5229   -44946.637     618.5501   0.96894141 
   56800    297.21458   -885.07058    142558.77   -40773.169    4081.5265   -44854.695    621.04007   0.96694517 
   56900     294.4619   -829.45717    142523.88   -40818.771    4043.7251   -44862.496    621.88841   0.96718188 
   57000    295.29782   -1054.5947    142579.34   -40869.263    4055.2044   -44924.467    622.54519   0.96680566 
   57100    285.48224   -946.44805    142502.31   -40983.279    3920.4111    -44903.69    623.77475   0.96732827 
   57200    289.12654     -983.948    142531.86   -41038.713    3970.4568    -45009.17    624.82893   0.96712777 
   57300    294.85917     -1164.73    142671.34    -41004.75    4049.1806   -45053.931    626.42702   0.96618227 
   57400     286.6693   -1049.2779    142583.49   -41003.111    3936.7125   -44939.823    626.78086   0.96677754 
   57500    293.13413    -790.0143    142841.51   -40885.718    4025.4914    -44911.21    628.32116   0.96503123 
   57600    291.25291   -1032.2754    142813.21   -40977.698    3999.6574   -44977.356    628.33466   0.96522245 
   57700    289.08785   -1092.8515    142710.21   -40937.135    3969.9255    -44907.06    629.82511   0.96591908 
   57800    293.15196   -882.51035    142757.87   -40882.476    4025.7362   -44908.212    631.93961    0.9655966 
   57900    288.58452   -823.33468    142725.99   -40945.432    3963.0134   -44908.445    632.54141   0.96581227 
   58000    293.76694   -1007.5356    143141.99   -40954.404    4034.1815   -44988.586    634.58885   0.96300546 
   58100     296.1633   -859.91395     143347.7   -40864.482    4067.0897   -44931.572    635.18165    0.9616235 
   58200     289.6608   -869.20249    143768.41   -40913.857    3977.7935   -44891.651    637.82281   0.95880949 
   58300    292.91789   -963.43936    143483.77   -40950.976    4022.5219   -44973.498    637.72527   0.96071156 
   58400    292.16919   -866.17923    143426.73   -40918.011    4012.2402   -44930.251    639.37114   0.96109364 
   58500    299.24888   -925.76898    143432.52   -40799.793    4109.4628   -44909.256     639.3551   0.96105485 
   58600    291.38729   -809.23352    143556.28   -40890.037    4001.5028    -44891.54    641.69813    0.9602263 
   58700    294.35499   -922.78031    143635.28   -40860.117     4042.257   -44902.374    644.07307   0.95969816 
   58800    296.48132   -1096.4918     143573.3   -40857.131    4071.4569   -44928.588    644.86532    0.9601125 
   58900    296.84201   -739.49549    143183.55   -40835.372    4076.4102   -44911.783    645.22101   0.96272591 
   59000    297.41925   -1021.6012    143475.95   -40885.761    4084.3372   -44970.098    647.06239    0.9607639 
   59100    297.72322   -1148.6578    143433.07   -40876.059    4088.5115    -44964.57    647.35626   0.96105116 
   59200    291.41843   -794.82866    143155.89   -40937.356    4001.9303   -44939.287    648.48019   0.96291198 
   59300    296.94634   -1136.6147    143279.13   -40923.876    4077.8428   -45001.719    649.81232   0.96208371 
   59400    294.98549   -1143.8255    143138.54    -40873.09    4050.9153   -44924.005    651.03907   0.96302863 
   59500    294.77557   -1048.1778    142902.63   -40880.644    4048.0327   -44928.677    651.29541   0.96461848 
   59600     297.6258   -1210.1057    142566.43   -40813.899    4087.1736   -44901.073    650.84488   0.96689326 
   59700    297.90666    -887.2024    142653.49   -40864.313    4091.0306   -44955.344    653.27063   0.96630317 
   59800    292.71617   -1021.5185    142887.34   -40883.943    4019.7517   -44903.695    654.50187   0.96472168 
   59900    292.34631    -1143.011    142316.94   -40894.884    4014.6726   -44909.557    654.26999   0.96858829 
   60000    296.22424   -1018.0039    142079.45   -40883.541    4067.9266   -44951.468    655.49676   0.97020726 
   60100    293.44382   -925.64854    142451.37   -40889.801    4029.7443   -44919.545    658.18003   0.96767422 
   60200    284.20587   -776.46488    142438.52   -40977.739    3902.8832   -44880.622    658.62934    0.9677615 
   60300    297.21058   -1243.4208    142286.67   -40932.015    4081.4716   -45013.486    660.35476   0.96879431 
   60400    288.80235    -899.0513     142550.2   -40898.277    3966.0047   -44864.282    662.53907   0.96700331 
   60500    290.73371   -1012.8758    142398.03   -40979.734    3992.5274   -44972.261    663.08474   0.96803665 
   60600    296.44675   -764.22489    142611.65   -40876.202    4070.9822   -44947.184    664.99841   0.96658664 
   60700    290.88664    -1013.851    142606.06   -40914.377    3994.6276   -44909.004    667.16547   0.96662451 
   60800    298.47685   -1040.4385     142844.9   -40882.058    4098.8608   -44980.919    669.20764   0.96500834 
   60900    298.98571   -1043.5793    142866.25   -40795.047    4105.8488   -44900.896    670.47548   0.96486408 
   61000    302.06252   -1093.8349     143162.7   -40760.052    4148.1014   -44908.153    672.43957   0.96286611 
   61100    298.08927   -894.68198    143139.24    -40712.36    4093.5384   -44805.899    673.10239   0.96302397 
   61200    292.57927   -1219.8297    142829.55   -40783.095    4017.8717   -44800.967    673.66145     0.965112 
   61300    297.13894    -1058.039    142578.36   -40744.659    4080.4878   -44825.147    674.70243   0.96681233 
   61400     296.8027   -984.25923    142325.56   -40681.405    4075.8704   -44757.275     675.2878   0.96852957 
   61500      299.592   -1053.2307    142184.99   -40674.547    4114.1746   -44788.721     676.6073   0.96948712 
   61600    292.72991   -919.01897    142097.47   -40811.161    4019.9404   -44831.101    678.11568   0.97008422 
   61700    298.39742   -1040.9409    142250.85   -40803.363      4097.77   -44901.133    679.90177   0.96903828 
   61800    295.76245   -1128.2984    142354.26   -40824.488     4061.585   -44886.073    681.02644   0.96833436 
   61900    294.07231    -1073.985    142542.06   -40754.388     4038.375   -44792.763    682.50269   0.96705857 
   62000    294.41563   -876.50592    142397.48    -40837.64    4043.0897   -44880.729    683.58643   0.96804043 
   62100    298.10789   -860.42326    142612.66    -40824.16    4093.7939   -44917.954    685.72454   0.96657983 
   62200    298.44982   -1143.0288    142342.18   -40877.354    4098.4896   -44975.844     686.4021   0.96841649 
   62300    294.60466   -1018.6927     142212.2   -40891.386    4045.6855   -44937.071    687.77633   0.96930161 
   62400    292.38584   -981.17461    142150.77   -40962.311    4015.2154   -44977.527    689.20732   0.96972048 
   62500     294.1993    -1078.305    142430.24   -40900.268     4040.119   -44940.387    691.42736    0.9678178 
   62600    296.88506   -970.43366    142503.61   -40857.315    4077.0013   -44934.316    692.72186   0.96731946 
   62700    296.60207   -1183.5262    142418.61   -40894.584    4073.1152     -44967.7    694.03108    0.9678968 
   62800     294.1951   -1011.6361    142239.52   -40970.058    4040.0612   -45010.119    694.97913   0.96911548 
   62900    288.93463   -953.39871    142145.35   -40928.221    3967.8213   -44896.042    695.20621    0.9697575 
   63000    302.20922   -999.51146    142789.74    -40908.29    4150.1158   -45058.406    698.33825   0.96538108 
   63100    301.28799   -1234.0321    143315.24   -40957.352     4137.465   -45094.817    701.29728   0.96184127 
   63200    288.51019   -906.74912    143259.08    -40995.31    3961.9927   -44957.303    702.14115   0.96221838 
   63300     291.9918   -1061.4681    143618.09   -41052.649    4009.8042   -45062.453    704.29163   0.95981302 
   63400    283.84595   -781.22505     143488.6   -41101.589    3897.9405   -44999.529    704.88495   0.96067922 
   63500    296.78107   -1260.9582    143452.29   -40944.713    4075.5733   -45020.286     704.1298   0.96092238 
   63600    293.08989   -1130.9225    143325.33   -40964.077    4024.8839   -44988.961     703.8036   0.96177357 
   63700    291.92469    -1056.987    143199.28   -41040.802    4008.8826   -45049.684    703.16451   0.96262016 
   63800    287.38635   -883.39945    143107.31   -41052.813    3946.5595   -44999.372    704.09941   0.96323885 
   63900    291.79186   -902.62755    143155.43   -40990.341    4007.0585   -44997.399    705.12454   0.96291506 
   64000    286.61001   -1064.3476    142966.07   -41057.044    3935.8983   -44992.942    705.72976   0.96419042 
   64100      289.975   -1236.4235    142836.58   -40985.475    3982.1084   -44967.583    706.45019   0.96506451 
   64200     283.4917   -941.91463    142544.59   -41021.911    3893.0758   -44914.986    705.61803   0.96704136 
   64300    290.62158    -870.5646    142569.62   -41025.959    3990.9875   -45016.946    706.48828   0.96687157 
   64400    293.38275   -1205.0446     142353.5   -41061.044    4028.9056    -45089.95    707.03579   0.96833953 
   64500    288.26503   -1174.3862    142105.48   -41085.749     3958.626   -45044.375    707.64185   0.97002959 
   64600    292.74138   -861.64595    142245.33   -41018.423    4020.0979   -45038.521    709.11043   0.96907587 
   64700    293.78348   -1048.4003    142428.17   -40905.267    4034.4086   -44939.676    710.26254    0.9678318 
   64800    299.26134   -859.33689    142590.79    -40810.19    4109.6339   -44919.824    711.51142   0.96672808 
   64900    293.08178   -1048.3757    142757.61   -40825.584    4024.7725   -44850.357    714.01106   0.96559839 
   65000    295.83912   -966.13031    142414.51   -40868.969    4062.6379   -44931.607     714.0585   0.96792463 
   65100    294.23683   -1053.9087    142555.17   -41017.866    4040.6343     -45058.5    714.49879   0.96696962 
   65200    294.50296   -922.83258    142668.14   -40939.764     4044.289   -44984.053    715.77701   0.96620395 
   65300    294.12431   -942.81378    142612.34   -40999.027    4039.0892   -45038.116    715.68716   0.96658194 
   65400    288.15463   -945.31788    142619.97   -41095.834    3957.1099   -45052.944    718.43451   0.96653023 
   65500    290.17082   -925.22587    142828.84   -40968.604    3984.7974   -44953.401    720.08805   0.96511682 
   65600    296.04319   -919.37598     142807.6   -40867.417    4065.4403   -44932.857    720.72677    0.9652604 
   65700    295.24452   -1147.1867    142620.57   -40903.649    4054.4725   -44958.122    720.13042   0.96652622 
   65800    293.83769   -1006.8297    142630.34   -40929.499     4035.153   -44964.652    721.33863   0.96645998 
   65900    288.65913   -669.10121    142548.39   -40943.309     3964.038   -44907.347      721.401    0.9670156 
   66000    293.32737   -1019.8742    142874.62   -40920.982    4028.1451   -44949.128    724.32036   0.96480761 
   66100    295.19557   -994.06146    142467.74   -40890.881    4053.8004   -44944.681    723.56404   0.96756304 
   66200    300.49726   -1088.5936    142423.82   -40802.466    4126.6062   -44929.073    724.87469   0.96786137 
[...]
   84600    290.33719   -775.68518     142600.5   -40958.834    3987.0821   -44945.917    930.94142    0.9666622 
   84700    290.89771   -766.83398    142644.55   -41009.102    3994.7795   -45003.882     932.3722    0.9663637 
   84800    291.96405   -1068.1826    142423.82   -40913.421    4009.4231   -44922.844     933.1881   0.96786142 
   84900    296.72605   -968.52068    142367.47   -40917.799    4074.8178   -44992.616    933.30487    0.9682445 
   85000    298.44639   -876.28083    142796.83    -40915.71    4098.4425   -45014.152    935.84192   0.96533316 
   85100    294.31463   -833.49255    142678.14   -40944.746    4041.7027   -44986.449    935.94801   0.96613617 
   85200    290.48257   -965.63811    142757.34   -40917.101    3989.0785    -44906.18    936.69967   0.96560021 
   85300    295.78835   -789.18259     143115.3   -40891.911    4061.9407   -44953.852    939.09681   0.96318503 
   85400     294.7731    -1035.625    143253.69   -40904.501    4047.9987     -44952.5    941.68894   0.96225455 
   85500    297.19892   -1056.4398    142753.68   -40885.873    4081.3115   -44967.184    940.49641   0.96562498 
   85600    300.72351   -1209.1216    142709.37   -40907.293    4129.7133   -45037.007    941.35109   0.96592477 
   85700    290.92266   -1051.2845    142800.82   -40918.824    3995.1221   -44913.946    943.43812   0.96530622 
   85800    296.87093   -949.27472    142989.55   -40858.283    4076.8074   -44935.091    945.30136   0.96403213 
   85900    293.42218   -1091.5015    143167.54   -40891.623    4029.4471    -44921.07    948.41992   0.96283356 
   86000    289.63044   -1089.1194     143096.3   -40952.297    3977.3767   -44929.673    948.96329   0.96331297 
   86100    295.98485   -969.14313    142972.14   -40934.422    4064.6392   -44999.061    949.05914    0.9641495 
   86200    294.64521   -1032.7328    142744.61   -40935.347    4046.2424   -44981.589    949.12713   0.96568632 
   86300    290.84212   -1292.1921    142395.29    -40984.82    3994.0161   -44978.837    947.90551    0.9680553 
   86400    290.85493   -1167.1398    142436.96   -40981.736     3994.192   -44975.928    949.12803   0.96777209 
   86500    292.03474   -948.41099     142748.1   -40855.486    4010.3939    -44865.88    951.01322   0.96566269 
   86600    297.56062   -1052.6203    142647.08   -40929.617    4086.2786   -45015.896    952.99144   0.96634659 
   86700    294.51141   -887.36379    142283.33   -40943.394    4044.4051   -44987.799    952.00427   0.96881707 
   86800    296.12568   -1162.2369    142599.43   -40897.855    4066.5731   -44964.429    953.70295   0.96666947 
   86900    295.58702   -937.73004    142602.45   -40899.569    4059.1759   -44958.745    954.62003     0.966649 
   87000    294.98751   -1230.2043    142479.73   -40941.709    4050.9431   -44992.652    955.23821   0.96748159 
   87100    295.74252   -1157.3105    142537.66   -40951.728    4061.3114   -45013.039    956.64952   0.96708838 
   87200    290.32616   -931.00111    142516.23   -40949.585    3986.9306   -44936.516    958.28118   0.96723382 
   87300     299.8905   -1160.1596    142395.02    -40841.51    4118.2739   -44959.784    959.11068   0.96805717 
   87400    291.94017   -923.57033    142564.15   -40886.166    4009.0952   -44895.261    961.48142   0.96690867 
   87500    295.48342   -1085.7275    142070.22   -40956.484    4057.7532   -45014.237    960.04719    0.9702703 
   87600    295.47075   -1097.6531    142331.67   -40997.267    4057.5792   -45054.846    963.46843   0.96848803 
   87700    294.63314    -1154.595    142416.64   -40937.252    4046.0766   -44983.329    964.14997   0.96791019 
   87800    301.15712    -1029.992     142536.4   -40864.448    4135.6679   -45000.116    965.18028   0.96709695 
   87900     298.4525   -886.63011    142399.33   -40880.459    4098.5264   -44978.986    965.83907   0.96802785 
   88000    291.51581   -817.07541    142925.88   -40879.253    4003.2676    -44882.52    969.91199   0.96446157 
   88100    299.55304   -1080.6189    143157.44   -40849.967    4113.6397   -44963.606    972.19653   0.96290154 
   88200    296.83769   -849.38411    143220.79   -40774.522    4076.3509   -44850.873     973.8648   0.96247558 
   88300    298.73481   -965.82294    143187.36    -40808.49    4102.4032   -44910.893    973.57913   0.96270028 
   88400    294.58398   -760.16764    143587.46   -40844.869    4045.4016   -44890.271    977.91763   0.96001782 
   88500    299.79559   -1098.3804    143744.35    -40919.21    4116.9705    -45036.18    979.45321   0.95897001 
   88600     294.5468   -982.15505    143596.84     -40910.7    4044.8909   -44955.591    979.88736   0.95995508 
   88700    298.40693   -903.18512    143762.75   -40910.517    4097.9005   -45008.418    981.30978   0.95884726 
   88800    294.76933   -1112.1603     143871.1   -40914.878    4047.9469   -44962.825    982.08117   0.95812511 
   88900    289.32112   -1169.8514    143770.53   -40983.828    3973.1289   -44956.957    983.01688   0.95879532 
   89000    294.50123   -994.88414    143869.05    -40906.09    4044.2652   -44950.355    983.82503    0.9581388 
   89100    297.00735   -1121.6704     143714.5   -40844.384    4078.6807   -44923.065    984.84072   0.95916918 
   89200    287.17359   -1015.9918    143547.95    -40969.33    3943.6377   -44912.968     986.4237   0.96028205 
   89300    292.22027   -905.22923    143527.56   -40954.501    4012.9418   -44967.443    988.02614   0.96041844 
   89400    294.72143   -808.93383    143061.88   -40927.033    4047.2891   -44974.322    986.75273    0.9635447 
   89500    291.56499   -1130.8741    142949.32   -41023.796     4003.943   -45027.739    987.28468    0.9643034 
   89600    293.88502   -807.58248    143145.42   -40942.853     4035.803   -44978.656     988.9374   0.96298235 
   89700    298.14906   -763.85185    143164.98   -40924.514    4094.3593   -45018.873    990.34585   0.96285084 
   89800    294.78456   -1155.0453    142718.54   -40937.669    4048.1561   -44985.825    989.78279   0.96586269 
   89900    292.50753   -1097.1576    143055.17   -40967.198    4016.8865   -44984.085    992.69117   0.96358992 
   90000    291.03049   -1054.2115    142925.89   -40909.467     3996.603    -44906.07    993.00622   0.96446151 
   90100    298.01973   -1170.3778    142819.26   -40866.987    4092.5834    -44959.57     992.9734   0.96518159 
   90200    291.81339    -1239.146    142572.48   -41039.472    4007.3542   -45046.826    992.87579   0.96685223 
   90300    294.12668   -1213.4154    142379.23   -41016.502    4039.1216   -45055.623    993.96131    0.9681645 
   90400    294.93939   -983.83464    142238.88   -40952.013    4050.2822   -45002.295    994.58173   0.96911978 
   90500     293.8834   -1074.0103    142259.31   -40885.679    4035.7808    -44921.46    996.16189   0.96898066 
   90600    298.54088   -888.28072    142455.88   -40867.572      4099.74   -44967.312    999.06255   0.96764356 
   90700    295.06782    -837.6709    142579.21    -40858.51     4052.046   -44910.556    1001.6885   0.96680657 
   90800    292.33147   -988.15134    142647.08    -40864.06    4014.4688   -44878.529    1002.7154   0.96634657 
   90900     295.3102   -1014.7986    142702.88   -40955.164    4055.3745   -45010.538    1003.1119   0.96596873 
   91000    293.01114   -859.93052    142607.91   -40943.299    4023.8025   -44967.102    1003.3453   0.96661196 
   91100    296.73275   -868.88438    142398.63   -40883.821    4074.9098   -44958.731    1003.0783   0.96803262 
   91200    291.26572   -962.72255    142801.52   -40906.679    3999.8333   -44906.513    1006.6554   0.96530145 
   91300    292.08566    -976.9002    142939.86   -40931.615    4011.0932   -44942.709    1007.4715   0.96436723 
   91400    295.27474   -940.55361     143042.9   -40929.128    4054.8874   -44984.015     1008.535   0.96367253 
   91500    292.89589    -1223.898    143077.79   -40917.135    4022.2198   -44939.355    1009.8783   0.96343753 
   91600    290.56006   -1098.3693    143415.79   -40894.293    3990.1427   -44884.436    1014.1348   0.96116691 
   91700    287.35803   -955.97341    143495.45   -40987.437    3946.1705   -44933.607    1015.5774   0.96063333 
   91800    289.80686   -984.46156    143572.64   -41044.868    3979.7994   -45024.668    1016.4852    0.9601169 
   91900    290.50803    -962.1597    143282.04    -40987.98    3989.4282   -44977.408    1015.8675   0.96206417 
   92000    296.63371   -1319.5412    143064.18   -40909.917    4073.5496   -44983.466    1015.7338   0.96352921 
   92100    297.83516   -965.18424    142528.39   -40838.835    4090.0488   -44928.884    1014.9865   0.96715127 
   92200    290.77635   -669.15171    142739.21   -40791.359    3993.1129   -44784.472     1016.841   0.96572282 
   92300    296.06256    -776.9177    142992.02   -40813.713    4065.7063   -44879.419    1017.7796   0.96401544 
   92400    299.56067   -1214.2126    143346.75   -40792.775    4113.7444   -44906.519    1020.3777   0.96162988 
   92500    297.13622    -1040.475    143141.46   -40790.021    4080.4505   -44870.472    1019.8775     0.963009 
   92600    297.44462   -1048.2001    142893.92   -40756.875    4084.6856    -44841.56    1018.7796    0.9646773 
   92700    295.12185   -952.73584    142829.63   -40846.803    4052.7879   -44899.591    1020.1525   0.96511152 
   92800    295.49172   -765.06407    142758.93   -40893.341    4057.8672   -44951.208    1019.7345   0.96558948 
   92900    299.75925   -1056.7475    142662.27   -40866.054    4116.4715   -44982.525    1020.3086   0.96624368 
   93000    296.03732   -1216.1783    142857.38   -40854.362    4065.3596   -44919.721    1023.1412   0.96492403 
   93100    294.31291   -778.70732    142965.64    -40872.26    4041.6791    -44913.94    1024.0814   0.96419331 
   93200    294.06012   -1159.5275    142851.17       -40807    4038.2076   -44845.207    1025.2504   0.96496594 
   93300    297.08606   -1108.5513     142714.5   -40748.125    4079.7616   -44827.886     1026.906   0.96589004 
   93400    292.34039   -953.34699    142702.31   -40844.725    4014.5913   -44859.316    1027.6091   0.96597255 
   93500    291.32098   -850.23566    142850.81   -40835.496    4000.5921   -44836.088    1029.8225   0.96496836 
   93600    292.03284   -948.02507    142770.48   -40863.764    4010.3678   -44874.132    1031.5703   0.96551135 
   93700    291.13282   -951.92857    142715.36   -40864.201    3998.0082   -44862.209    1032.2891   0.96588425 
   93800    296.03257   -1021.5184    142711.18   -40732.369    4065.2945   -44797.663    1033.8572   0.96591253 
   93900    294.31989   -671.47227    142565.95   -40781.336    4041.7749   -44823.111    1034.2928   0.96689647 
   94000    291.54698   -832.45942    142863.45   -40865.302    4003.6956   -44868.997    1036.9292   0.96488304 
   94100    299.93557   -959.93961    143337.45   -40872.994    4118.8928   -44991.887    1039.6647   0.96169228 
   94200    291.13412   -1110.4738    143480.56   -40897.517     3998.026   -44895.543    1041.1431   0.96073305 
   94300     293.8267   -1279.6828    143203.68    -40872.44    4035.0022   -44907.442    1040.4567   0.96259063 
   94400    296.09728   -1082.5828    143140.16   -40884.726    4066.1831   -44950.909    1040.9452   0.96301776 
   94500    294.86841    -1125.496    143130.32   -40937.132    4049.3076    -44986.44    1042.2737   0.96308398 
   94600    288.55617   -922.57697    143149.13   -41031.386    3962.6241    -44994.01    1042.4286   0.96295743 
   94700    295.71369   -1119.8061    143509.49    -40893.83    4060.9154   -44954.745    1045.1907   0.96053939 
   94800    295.69996   -1186.2895    143035.91   -40888.369    4060.7269   -44949.096    1042.4815   0.96371967 
   94900    294.26047   -1018.6839    143054.81   -40870.769    4040.9589   -44911.728    1043.5478   0.96359229 
   95000    295.43855   -1107.7118    143121.84   -40837.245    4057.1371   -44894.382    1045.1749   0.96314106 
   95100    294.95928   -838.08847    142691.79    -40786.74    4050.5555   -44837.295    1044.1997    0.9660438 
   95200    296.94726   -1105.3161    142407.67   -40881.905    4077.8555   -44959.761    1044.8076   0.96797115 
   95300    294.97043   -1103.5437    142645.07   -40856.794    4050.7086   -44907.503    1046.6877   0.96636019 
   95400    290.79902   -840.54857    142687.96   -40845.767    3993.4243   -44839.191    1046.2126   0.96606975 
   95500    294.30912    -1115.368    142195.61   -40874.165    4041.6271   -44915.792    1044.6163   0.96941473 
   95600    294.34464    -1194.444    142290.59   -40966.236    4042.1148   -45008.351    1047.6224   0.96876761 
   95700    292.67934   -1215.3082    142129.67    -40911.58    4019.2459   -44930.826    1048.1291   0.96986446 
   95800    293.10386   -939.19197    142152.68   -40884.038    4025.0757   -44909.113    1049.6877   0.96970748 
   95900    290.24887   -930.83704    142098.75     -40882.8    3985.8693    -44868.67     1050.381   0.97007547 
   96000    298.74802   -1086.3258    142353.29   -40810.865    4102.5846    -44913.45    1054.5248   0.96834095 
   96100    300.52396   -996.10018    142341.74    -40775.63     4126.973   -44902.603    1054.3384   0.96841947 
   96200    295.33274   -1181.3858    142064.16   -40817.895    4055.6839   -44873.578    1054.5969   0.97031171 
   96300    294.34565   -997.78882    142262.13   -40788.394    4042.1287   -44830.522    1056.8455   0.96896141 
   96400    297.52899   -917.36923    142126.93   -40838.898    4085.8441   -44924.742     1057.894   0.96988318 
   96500    297.21992   -979.29195    142271.35   -40851.965    4081.5999   -44933.564     1058.594   0.96889862 
   96600    302.19902   -1026.8467    142543.47   -40762.301    4149.9758   -44912.277    1061.4005   0.96704899 
   96700    305.76084   -1232.9064    142905.86   -40710.611    4198.8888   -44909.499    1063.8646   0.96459667 
   96800    296.46943   -1061.9268     142590.7   -40677.762    4071.2937   -44749.055    1062.8145   0.96672869 
   96900    299.28572   -827.64405    142762.69   -40745.846    4109.9687   -44855.815    1065.4174   0.96556403 
   97000    295.89098   -933.36193    142671.91   -40784.078    4063.3501   -44847.428    1066.3492   0.96617838 
   97100    292.82504   -901.51538    142504.76   -40850.335    4021.2467   -44871.581    1066.4848   0.96731165 
   97200    289.26413   -1002.0148    142588.45   -40812.045    3972.3462   -44784.392    1068.2779    0.9667439 
   97300    292.48312   -980.39109    142600.97   -40827.436    4016.5513   -44843.987    1069.7751   0.96665902 
   97400    294.02855   -973.15791    142634.35   -40804.465    4037.7741   -44842.239    1070.4951   0.96643282 
   97500    294.01206   -1053.0634    142392.72   -40858.789    4037.5477   -44896.337    1070.8429   0.96807278 
   97600    293.60829   -931.93993    142487.15   -40844.745    4032.0028   -44876.747    1073.1203   0.96743124 
   97700    294.15856   -937.41778    142205.92   -40853.962    4039.5595   -44893.521    1073.7429   0.96934444 
   97800    296.69434   -788.45087    142394.48   -40874.954    4074.3823   -44949.336    1077.0719   0.96806083 
   97900    296.41682   -950.85735    142463.37   -40833.591    4070.5712   -44904.162    1079.6011   0.96759267 
   98000    301.43814   -1050.6082    142616.83   -40814.991    4139.5269   -44954.518    1080.6231   0.96655155 
   98100    293.11344   -1229.0678    142432.15   -40878.469    4025.2073   -44903.676    1080.8602   0.96780478 
   98200    294.74023   -920.67614    142578.45   -40790.564    4047.5473   -44838.112     1082.351   0.96681175 
   98300    297.23506   -1212.0159    142835.58   -40693.166    4081.8078   -44774.974    1085.3287   0.96507126 
   98400    295.88701   -855.72463    142960.07    -40731.47    4063.2956   -44794.765    1088.2934   0.96423088 
   98500    297.59642   -879.05599    142675.44   -40728.457    4086.7702   -44815.227    1088.2939   0.96615449 
   98600    300.25468   -787.68806    143010.66   -40807.378     4123.275   -44930.653    1091.1194   0.96388982 
   98700    298.93698   -967.65746    142645.82   -40837.848    4105.1795   -44943.028    1090.0945   0.96635513 
   98800    298.57194   -1255.0971    142559.78   -40873.848    4100.1666   -44974.015    1091.0902   0.96693831 
   98900    296.09422   -1016.0692     142167.6   -40875.994    4066.1411   -44942.135    1090.8089   0.96960573 
   99000    296.55475   -983.75401    142430.32   -40795.906    4072.4654   -44868.371    1093.9409   0.96781723 
   99100    290.75098   -763.57019    142829.19   -40840.664    3992.7645   -44833.428    1097.0263   0.96511443 
   99200    293.52556   -831.34917    142822.75   -40840.086    4030.8668   -44870.953    1097.1364     0.965158 
   99300    295.62517   -985.60937    142672.76   -40857.874    4059.6999   -44917.574    1097.6758   0.96617264 
   99400    296.64723   -1474.2501    142566.67   -40788.595    4073.7354    -44862.33    1097.8895   0.96689162 
   99500    296.48424   -816.39992    142379.35   -40813.377    4071.4971   -44884.874    1097.8349   0.96816371 
   99600    289.26337   -1170.9451    142535.57   -40926.043    3972.3359   -44898.379    1098.8375   0.96710258 
   99700     296.6988   -980.48788    142692.93   -40889.916    4074.4435    -44964.36    1100.2453   0.96603607 
   99800    297.07339   -688.38121    143141.48   -40877.528    4079.5876   -44957.116    1104.0577   0.96300889 
   99900    296.44213   -825.12955    142781.43   -40805.693    4070.9188   -44876.611    1102.0525   0.96543731 
  100000    296.45473   -975.65489    143023.09   -40824.294    4071.0918   -44895.386    1104.1379   0.96380601 
  100100    297.80061   -907.53411    142899.03   -40871.331    4089.5742   -44960.905    1103.7374   0.96464278 
  100200    295.60708   -940.88309    143011.69   -40823.096    4059.4514   -44882.548    1106.3278   0.96388289 
  100300    296.17704   -1073.4097    143420.07   -40830.557    4067.2784   -44897.836    1110.1459   0.96113823 
  100400    295.20456   -1110.8338    143135.84   -40845.007    4053.9237   -44898.931    1109.8416   0.96304684 
  100500    296.01524    -1065.124    142833.28   -40929.301    4065.0564   -44994.358    1109.6691   0.96508681 
  100600     295.7339    -1211.247    142667.05   -40944.462    4061.1929   -45005.655    1109.0342   0.96621133 
  100663    290.98173   -996.26982    142450.23   -40871.924    3995.9333   -44867.857    1107.9886   0.96768198 
Loop time of 112.02 on 6 procs for 100000 steps with 4608 atoms

Performance: 385.646 ns/day, 0.062 hours/ns, 892.699 timesteps/s
98.9% CPU use with 6 MPI tasks x no OpenMP threads

MPI task timing breakdown:
Section |  min time  |  avg time  |  max time  |%varavg| %total
---------------------------------------------------------------
Pair    | 92.692     | 93.942     | 96.109     |  12.6 | 83.86
Neigh   | 7.0746     | 7.1109     | 7.1655     |   1.1 |  6.35
Comm    | 6.074      | 8.2172     | 9.4751     |  42.2 |  7.34
Output  | 0.17377    | 0.17458    | 0.17827    |   0.4 |  0.16
Modify  | 1.843      | 1.9196     | 1.9894     |   3.6 |  1.71
Other   |            | 0.6558     |            |       |  0.59

Nlocal:        768.000 ave         781 max         755 min
Histogram: 1 0 0 2 0 0 2 0 0 1
Nghost:        1546.17 ave        1565 max        1529 min
Histogram: 1 0 2 0 0 0 2 0 0 1
Neighs:        0.00000 ave           0 max           0 min
Histogram: 6 0 0 0 0 0 0 0 0 0
FullNghs:      21590.7 ave       22151 max       21057 min
Histogram: 1 0 0 2 1 0 0 1 0 1

Total # of neighbors = 129544
Ave neighs/atom = 28.112847
Neighbor list builds = 7094
Dangerous builds = 0

undump              1
unfix               2
unfix               3
unfix               4


################################################
#######         Run Simulation         #########
################################################

reset_timestep      0
log                 log.run_${NAME}
log                 log.run_liq_295K_-1000atm_ML
