
# Set production fixes - Nose/Hoover
#
fix                 2 all nph iso ${PRES} ${PRES} ${PCOUPL}
fix                 2 all nph iso -1000 ${PRES} ${PCOUPL}
fix                 2 all nph iso -1000 -1000 ${PCOUPL}
fix                 2 all nph iso -1000 -1000 10000.0
fix                 3 all temp/csvr ${TEMP} ${TEMP} ${TCOUPL} 837492
fix                 3 all temp/csvr 295 ${TEMP} ${TCOUPL} 837492
fix                 3 all temp/csvr 295 295 ${TCOUPL} 837492
fix                 3 all temp/csvr 295 295 5000.0 837492

# Define Order parameter
#
compute             2 all orientorder/atom nnn NULL cutoff 3.5
thermo              200
thermo_style        custom step temp press vol etotal ke pe c_1[4]

# Run 1ns simulation
dump		    1 all custom 400 prod.${NAME}.dump id type x y z vx vy vz c_2[*]
dump		    1 all custom 400 prod.ice_295K_-1000atm_ML.dump id type x y z vx vy vz c_2[*]
run                 200000
Neighbor list info ...
  update every 1 steps, delay 0 steps, check yes
  max neighbors/atom: 2000, page size: 100000
  master list distance cutoff = 6.0032907
  ghost atom cutoff = 6.0032907
  binsize = 3.0016454, bins = 20 18 18
  2 neighbor lists, perpetual/occasional/extra = 1 1 0
  (1) pair sw, perpetual
      attributes: full, newton on
      pair build: full/bin/atomonly
      stencil: full/bin/3d
      bin: standard
  (2) compute orientorder/atom, occasional, copy from (1)
      attributes: full, newton on
      pair build: copy
      stencil: none
      bin: none
Per MPI rank memory allocation (min/avg/max) = 5.821 | 5.821 | 5.821 Mbytes
Step Temp Press Volume TotEng KinEng PotEng c_1[4] 
       0    297.58723   -1012.9881    149953.35   -47413.214     4086.644   -51499.858   0.15335534 
     200    295.60075   -979.17853    149955.86   -47402.535    4059.3644   -51461.899   0.15508879 
     400     295.7911   -1027.0924    149949.06   -47397.078    4061.9784   -51459.057   0.15914818 
     600    287.57593   -1021.0196    149916.03   -47434.374    3949.1629   -51383.537   0.15718234 
     800     293.3712   -996.89589    149872.98   -47451.133    4028.7469    -51479.88   0.15629841 
    1000    295.09052   -968.26301    149896.26   -47464.017    4052.3577   -51516.375   0.15531273 
    1200    294.70252   -1069.7288    149967.22   -47488.918    4047.0294   -51535.947   0.15429485 
    1400    293.79177   -966.48691    149934.46   -47479.341    4034.5225   -51513.864   0.14864523 
    1600    288.56532    -959.4985    149860.55   -47482.978    3962.7498   -51445.728   0.16046709 
    1800     294.0432   -968.65421     149916.7   -47489.114    4037.9752    -51527.09   0.15942822 
    2000    289.37761   -1051.0154    149999.21   -47440.704    3973.9046   -51414.609   0.15842517 
    2200    297.23176   -994.71376    149943.21   -47409.506    4081.7625   -51491.269   0.15379468 
    2400    290.69886   -929.70269    149831.71   -47429.291    3992.0489    -51421.34   0.15640862 
    2600     292.6328   -995.07855    149908.66   -47473.522    4018.6069   -51492.129   0.15845844 
    2800    293.68875   -1063.5197    150018.83   -47489.448    4033.1078   -51522.556   0.15995966 
    3000    293.13028   -1006.0423    149901.31   -47504.064    4025.4385   -51529.503   0.15853628 
    3200    292.57552    -915.6383    149775.17   -47451.163    4017.8203   -51468.983   0.15650544 
    3400    290.19872   -1031.8739    149977.63   -47488.279    3985.1805   -51473.459   0.15527821 
    3600    292.57883   -1130.5084    150108.34   -47515.193    4017.8656   -51533.059   0.15561027 
    3800    293.34174   -939.64168    149836.97   -47443.612    4028.3424   -51471.955   0.15509165 
    4000    290.81579   -866.72893    149716.98   -47439.529    3993.6546   -51433.184    0.1592537 
    4200    289.20756   -1094.1875    150029.36   -47451.282    3971.5695   -51422.851   0.16562626 
    4400    295.11175   -1127.8799    150109.34   -47436.216    4052.6492   -51488.865   0.15690633 
    4600    296.11695   -890.79406    149744.68   -47421.024    4066.4532   -51487.477   0.15524251 
    4800    292.91146   -857.25801     149722.9   -47411.501    4022.4336   -51433.934    0.1633166 
    5000    296.98028   -1169.7003    150156.77   -47384.863     4078.309   -51463.172   0.16972968 
    5200    299.66469    -1137.117     150119.5   -47386.242     4115.173   -51501.415   0.15858678 
    5400     301.4577   -772.82006    149682.96   -47352.392    4139.7955   -51492.187   0.15455222 
    5600    299.94483   -886.78822    149838.79   -47335.004      4119.02   -51454.024   0.15855948 
    5800    293.56655   -1214.7255    150280.39   -47317.004    4031.4296   -51348.433   0.16021693 
    6000    293.08604   -1113.8674     150098.7   -47305.205     4024.831   -51330.036   0.16205677 
    6200    294.07691   -766.28973    149631.88   -47305.423    4038.4382   -51343.861   0.16497148 
    6400    301.20226   -935.20869     149872.1   -47272.098    4136.2877   -51408.386   0.16644985 
    6600    296.92812   -1299.6907    150363.52   -47303.963    4077.5927   -51381.555   0.16123181 
    6800    290.11545   -1058.8361    150038.34   -47347.734     3984.037   -51331.771   0.16128906 
    7000    295.49558   -646.22762    149523.48    -47359.18    4057.9203     -51417.1    0.1600792 
    7200    296.60495    -929.3755    149885.57    -47302.24    4073.1548   -51375.395   0.16287527 
    7400    296.69827   -1344.7636    150392.64   -47277.639    4074.4363   -51352.075   0.17121274 
    7600    293.70488   -1035.2668    149979.31   -47317.833    4033.3292   -51351.162   0.16002351 
    7800    302.22882   -641.63176    149523.06   -47354.716    4150.3851   -51505.101   0.14573011 
    8000    298.62079   -987.98519    150011.42   -47314.831    4100.8374   -51415.669   0.15658648 
    8200    300.51741   -1335.4646    150420.19   -47344.919    4126.8829   -51471.802   0.17038342 
    8400    298.55422   -991.70283    149892.04   -47379.366    4099.9232   -51479.289   0.16631034 
    8600    296.11934   -683.54369    149526.96   -47341.534     4066.486    -51408.02   0.15760008 
    8800     298.8354   -1077.4153    150057.99    -47264.84    4103.7846   -51368.624   0.16614164 
    9000     298.1808   -1283.5901    150383.69   -47237.079    4094.7952   -51331.874   0.16635288 
    9200    302.51344   -893.34754    149890.95   -47229.581    4154.2937   -51383.874   0.16145999 
    9400    299.53181   -731.00737     149638.4   -47284.361     4113.348   -51397.709   0.16016608 
    9600    298.05543   -1106.7996    150095.05   -47267.762    4093.0737   -51360.835    0.1645349 
    9800    297.35754   -1234.0525    150270.68   -47281.517    4083.4897   -51365.007   0.16161156 
   10000    297.29472    -948.3814    149837.24   -47284.016    4082.6271   -51366.643   0.16140415 
   10200    298.48273   -820.96679    149747.92   -47278.227    4098.9416   -51377.169   0.16239495 
   10400    299.83074   -1081.6642    150141.23   -47259.845    4117.4531   -51377.298   0.16302969 
   10600    303.94492   -1150.4728    150206.66    -47241.08    4173.9516   -51415.032   0.16390018 
   10800    299.41091   -911.16119    149859.61   -47278.474    4111.6879   -51390.162   0.16436323 
   11000     299.1524   -873.67099    149814.96   -47322.719    4108.1378   -51430.857   0.15508329 
   11200    297.32878   -1074.4415    150095.81   -47335.459    4083.0948   -51418.553   0.15587555 
   11400    292.87661   -1111.3562    150072.51   -47361.733     4021.955   -51383.688   0.16029034 
   11600    300.14735   -897.66073    149822.29   -47337.212     4121.801   -51459.013   0.15510415 
   11800    297.83739   -914.37542     149877.2   -47411.288    4090.0793   -51501.367   0.14851216 
   12000    293.20326   -1108.1358    150069.43   -47407.789    4026.4407    -51434.23   0.15864938 
   12200    299.28601   -1024.9142    149975.56   -47386.605    4109.9726   -51496.577   0.15997281 
   12400    298.66557   -915.34667    149818.62   -47357.037    4101.4524   -51458.489   0.15303058 
   12600    294.46219   -968.97904    149940.13   -47365.911    4043.7291   -51409.641   0.15702584 
   12800    297.35401   -1123.7436    150069.96   -47375.058    4083.4413   -51458.499   0.16731342 
   13000    296.39218   -1027.6252    149944.35   -47356.545    4070.2329   -51426.778   0.16512839 
   13200    298.29257   -916.66526     149868.4   -47329.196    4096.3301   -51425.526   0.15083193 
   13400     296.4049   -1037.3088    150011.35   -47347.329    4070.4075   -51417.736   0.15755054 
   13600    302.68694   -1068.6064     150063.8   -47336.863    4156.6762    -51493.54   0.15881506 
   13800     296.9722   -981.90792    149890.25   -47333.245    4078.1981   -51411.443   0.16036285 
   14000    295.10888   -919.26689    149856.59   -47354.711    4052.6098   -51407.321   0.15659991 
   14200    293.79992    -1091.905    150065.39   -47379.188    4034.6344   -51413.822   0.16237492 
   14400    295.70956   -1068.8716    150060.36   -47403.537    4060.8587   -51464.396   0.15681046 
   14600    299.09865   -883.26637    149826.59   -47403.164    4107.3997   -51510.564   0.15210733 
   14800    297.97593    -948.8595    149856.79    -47385.55    4091.9819   -51477.532   0.15789465 
   15000    294.49452   -1129.4344     150081.4   -47434.261    4044.1731   -51478.434   0.15851458 
   15200    296.48667   -988.44291    149990.75   -47490.655    4071.5304   -51562.185   0.15052336 
   15400    294.91505   -921.44106    149781.17   -47510.308     4049.948   -51560.256   0.14717333 
   15600    287.77491   -944.35579    149848.27   -47545.113    3951.8954   -51497.008   0.14839159 
   15800    288.84006   -1079.1994    150027.37   -47493.608    3966.5227   -51460.131   0.15282635 
   16000    291.92186    -992.5767    149972.94   -47481.046    4008.8437   -51489.889   0.15192005 
   16200    286.61689   -941.71677    149874.65   -47428.602    3935.9928   -51364.595   0.15654308 
   16400    293.46093    -1037.919    149997.03   -47424.669    4029.9792   -51454.648   0.15548422 
   16600    299.19661   -1045.6105    150065.63   -47441.824     4108.745   -51550.569   0.15445882 
   16800    293.19659   -963.80866    149938.25   -47396.486    4026.3491   -51422.835   0.15669003 
   17000    294.21587   -986.79841    149925.14   -47421.505    4040.3464   -51461.851   0.15977554 
   17200    295.05448   -1042.6594    150018.28    -47401.81    4051.8627   -51453.672    0.1579144 
   17400    294.18381   -1042.9953    149987.79   -47448.458    4039.9063   -51488.364   0.15532838 
   17600    289.85882   -958.73299    149850.87    -47488.54    3980.5128   -51469.053   0.15624237 
   17800    294.48071   -943.32952    149860.43   -47506.877    4043.9834   -51550.861     0.146422 
   18000    294.51566   -1065.4993     149991.8   -47538.907    4044.4633    -51583.37   0.15167893 
   18200    284.55378   -1041.8362    149967.21     -47564.4     3907.661   -51472.061   0.15405824 
   18400     287.1849   -959.17497    149819.82   -47587.819     3943.793   -51531.612    0.1511654 
   18600    291.73938    -955.2281    149855.99   -47543.128    4006.3378   -51549.466   0.14789528 
   18800    294.30574   -1081.7802    150013.04   -47475.059    4041.5806    -51516.64   0.15629787 
   19000    293.66254   -1063.1626    149999.26   -47505.292    4032.7479    -51538.04   0.15480842 
   19200     289.7586   -930.58976    149842.27   -47479.622    3979.1366   -51458.758    0.1539602 
   19400    295.13673   -952.87026    149870.21   -47471.013    4052.9923   -51524.006   0.15513185 
   19600    290.98169    -1088.281    150055.08   -47497.667    3995.9328     -51493.6   0.15801185 
   19800    291.82962   -1074.5628    149966.61   -47495.329    4007.5771   -51502.906   0.15321841 
   20000    287.64125   -868.54609    149741.15   -47487.028    3950.0599   -51437.088   0.14740954 
   20200    290.12428   -992.07863    149866.95   -47512.806    3984.1584   -51496.964    0.1542957 
   20400    288.99965   -1149.4284    150078.94   -47487.261    3968.7143   -51455.975   0.15766234 
   20600    295.22304   -999.66616    149930.38   -47485.131    4054.1775   -51539.309   0.14915433 
   20800     292.5522   -902.26916    149732.74   -47489.791       4017.5   -51507.291   0.15013994 
   21000    291.71361   -1013.9228    149915.36   -47483.049    4005.9839   -51489.033   0.15646861 
   21200    287.01456   -1133.9928    150109.97   -47467.896    3941.4538   -51409.349   0.16156843 
   21400    293.26119   -957.10947    149883.96   -47466.702    4027.2363   -51493.938   0.15707312 
   21600    294.87977   -843.83983    149697.32   -47423.851    4049.4635   -51473.314   0.15917697 
   21800    294.30241   -1019.2271    150028.04   -47370.321    4041.5349   -51411.856    0.1556351 
   22000     297.1807   -1200.7266    150268.35   -47371.368    4081.0612    -51452.43   0.15685716 
   22200    297.76187   -902.72423    149829.76   -47336.051    4089.0422   -51425.094    0.1562399 
   22400    297.15495   -708.79937    149618.52   -47316.672    4080.7077    -51397.38   0.15459025 
   22600    299.56936   -1184.9656    150198.97   -47316.595    4113.8638   -51430.459    0.1602035 
   22800    300.09647   -1291.9737    150350.54    -47350.85    4121.1023   -51471.952   0.15929227 
   23000    301.16475   -774.68484    149664.06   -47378.327    4135.7726   -51514.099   0.15213874 
   23200     292.7944   -748.92269    149588.87   -47373.667     4020.826   -51394.493   0.15523447 
   23400     300.4714    -1261.549    150359.91   -47372.083    4126.2512   -51498.334   0.16041915 
   23600    295.72865   -1271.5779    150323.36   -47388.673    4061.1208   -51449.794   0.16236637 
   23800    295.76699   -632.58678    149501.66   -47337.632    4061.6474   -51399.279   0.14992286 
   24000    296.20278    -839.3011    149679.75   -47376.016    4067.6319   -51443.648   0.15391731 
   24200    293.80231   -1377.8422    150489.33   -47345.467    4034.6673   -51380.134   0.16289191 
   24400    291.66442    -1171.821    150250.52   -47354.126    4005.3085   -51359.434   0.15209728 
   24600    296.46803   -657.76794     149500.3    -47364.77    4071.2744   -51436.045   0.14971483 
   24800    297.38186   -854.20941    149806.38   -47285.393    4083.8237   -51369.216   0.15845247 
   25000    301.18167   -1363.0113    150554.58   -47272.511    4136.0049   -51408.516   0.16271681 
   25200    294.24544   -1147.6191    150198.21   -47301.747    4040.7526     -51342.5   0.16105554 
   25400    298.17854   -675.21352     149545.7    -47375.14    4094.7642   -51469.904   0.15214952 
   25600    294.26955   -920.17704    149877.65   -47395.454    4041.0836   -51436.537   0.15619018 
   25800    292.03157   -1313.1111    150398.64   -47363.404    4010.3504   -51373.754   0.16070996 
   26000    297.06803   -1062.4197    150055.47   -47346.771    4079.5141   -51426.285   0.15794472 
   26200     290.4206   -757.09695    149626.76   -47399.073    3988.2276   -51387.301   0.15379741 
   26400    295.43667   -949.21335    149912.61   -47419.358    4057.1113   -51476.469   0.15136544 
   26600    292.44419   -1268.2911    150236.09   -47423.443    4016.0168    -51439.46    0.1575482 
   26800     289.5696   -984.66483    149921.37   -47432.721    3976.5411   -51409.263   0.15500744 
   27000     293.0232   -813.43956    149675.72   -47436.498     4023.968   -51460.466   0.15651123 
   27200    293.26543   -1024.3291    149946.83   -47426.771    4027.2945   -51454.065   0.15808179 
   27400    295.89833   -1126.0983    150147.84   -47387.395    4063.4511   -51450.846   0.15983191 
   27600    297.92704   -949.18892    149899.81   -47395.733    4091.3105   -51487.043   0.15006029 
   27800    294.87469   -867.17683    149758.49   -47393.474    4049.3938   -51442.868   0.15358471 
   28000    296.12023   -1058.2433    150026.65   -47378.435    4066.4983   -51444.933   0.15793539 
   28200    294.78706   -1149.1082    150107.59   -47395.857    4048.1904   -51444.047    0.1566516 
   28400    296.76787   -900.32346    149830.77   -47394.956     4075.392   -51470.348   0.14977082 
   28600    294.14276   -914.98201    149815.58   -47416.874    4039.3424   -51456.216   0.14982789 
   28800    294.42281   -1121.7749    150078.57   -47424.665    4043.1884   -51467.853   0.15718682 
   29000    295.02521   -1029.8515     150052.3   -47461.873    4051.4608   -51513.334   0.15345369 
   29200    291.94307   -893.63306    149814.48   -47501.662    4009.1351   -51510.797   0.15430639 
   29400    292.99678   -939.58996     149889.3   -47502.248    4023.6052   -51525.853   0.15096689 
   29600    289.25586   -1132.5282    150120.36   -47458.476    3972.2326   -51430.708    0.1590763 
   29800    295.38984    -1057.619    150057.93   -47381.427    4056.4681   -51437.895   0.15730721 
   30000    287.97251   -920.77165    149858.94   -47373.685    3954.6089   -51328.294   0.15803541 
   30200     297.6026   -973.76304    149953.35   -47383.432    4086.8551   -51470.287   0.15512107 
   30400    298.47532   -1102.9926    150124.26   -47433.807    4098.8398   -51532.647    0.1482205 
   30600      294.514   -994.24975     149970.7   -47382.116    4044.4406   -51426.557   0.15243417 
   30800    296.93815   -866.93014    149827.83   -47351.803    4077.7305   -51429.534   0.14964375 
   31000    297.82882   -1044.0219    150084.32   -47335.667    4089.9617   -51425.629   0.15520703 
   31200    295.58939   -1136.0714    150217.62   -47335.723    4059.2084   -51394.931   0.15799029 
   31400    294.42189   -940.19223     149878.4   -47338.535    4043.1757    -51381.71   0.16270223 
   31600    296.20716   -807.33557    149722.54   -47403.779     4067.692   -51471.471   0.15633014 
   31800    293.75727   -1088.1027    150097.33   -47369.617    4034.0487   -51403.665    0.1555843 
   32000     295.8125   -1189.9264    150220.91   -47337.282    4062.2723   -51399.554   0.15972644 
   32200    296.39978   -872.99354    149795.19   -47377.039    4070.3372   -51447.377   0.15154544 
   32400     299.9212   -798.86214    149691.03    -47373.42    4118.6954   -51492.115   0.14988006 
   32600    299.37279   -1114.3783    150150.86   -47351.866    4111.1644    -51463.03   0.15163019 
   32800    294.16071   -1207.9979     150187.5   -47346.559     4039.589   -51386.148   0.16699953 
   33000    296.96187    -801.0943    149657.24   -47343.371    4078.0562   -51421.427   0.15408706 
   33200    301.83331   -794.84697    149701.22   -47337.765    4144.9536   -51482.719   0.14840474 
   33400    296.98183   -1263.6895    150318.25   -47288.264    4078.3303   -51366.595   0.16780549 
   33600    299.79395   -1145.2946    150229.86   -47220.277     4116.948   -51337.225    0.1689987 
   33800    299.17774   -737.51379    149625.66   -47266.005    4108.4858   -51374.491   0.15773004 
   34000    295.73536   -873.02355    149768.84   -47286.392     4061.213   -51347.605   0.15674575 
   34200    298.57299   -1266.5071    150363.48   -47309.757     4100.181   -51409.938   0.16046009 
   34400    294.40996   -1120.6003    150123.73   -47378.626    4043.0119   -51421.638   0.15808542 
   34600    301.68722   -663.08288    149539.25   -47360.934    4142.9475   -51503.882   0.14958612 
   34800    288.15535   -957.03152    149878.64   -47397.935    3957.1198   -51355.055   0.16063185 
   35000    290.37776   -1366.3283    150424.33   -47414.028    3987.6392   -51401.668     0.163337 
   35200    295.65629   -988.74528    149951.86   -47409.606    4060.1272   -51469.734   0.15221913 
   35400    294.37834   -612.94208    149439.12    -47377.22    4042.5776   -51419.797    0.1583948 
   35600    293.69784   -1076.2598    150028.43   -47364.343    4033.2326   -51397.575   0.16637314 
   35800    292.32784   -1397.1431    150511.89   -47355.015    4014.4189   -51369.434   0.16806777 
   36000      292.662      -956.31    149861.93   -47367.446    4019.0078   -51386.454   0.16018112 
   36200    296.56652   -649.05384    149442.41   -47389.373     4072.627       -51462    0.1490638 
   36400    299.50791    -1120.736    150143.47   -47408.599    4113.0198   -51521.619   0.15277895 
   36600    292.64971   -1333.3456    150417.88    -47375.66     4018.839   -51394.499   0.15834004 
   36800    297.84663   -837.74792    149744.22   -47432.333    4090.2062   -51522.539   0.14899363 
   37000    297.84764   -710.35488    149589.36   -47423.589    4090.2201   -51513.809   0.14803462 
   37200    298.07969   -1182.6976    150214.89   -47376.115    4093.4068   -51469.522    0.1554898 
   37400    292.68729   -1256.1798    150274.32   -47365.158    4019.3552   -51384.513   0.16537027 
   37600    298.18798   -825.08972    149727.49   -47401.892    4094.8938   -51496.785    0.1569541 
   37800    297.05544   -799.24704    149740.56   -47366.358    4079.3411   -51445.699   0.15912311 
   38000    293.29856   -1215.2911    150216.85   -47414.112    4027.7494   -51441.862   0.16381905 
   38200    294.64524    -1149.702    150142.17   -47409.225    4046.2428   -51455.467   0.16337355 
   38400    296.50622   -804.50519    149744.18   -47379.291    4071.7989    -51451.09   0.15298391 
   38600    293.49884   -947.84335    149876.49   -47376.358    4030.4998   -51406.858   0.15799834 
   38800    295.40915   -1153.1438    150177.94   -47422.849    4056.7333   -51479.582   0.15543203 
   39000    291.10342   -1048.6788    150013.81   -47452.868    3997.6045   -51450.472   0.15349178 
   39200    294.74816   -874.17048    149761.22   -47477.169    4047.6562   -51524.825   0.15177794 
   39400    292.58032   -970.53185    149914.32   -47465.879    4017.8861   -51483.765   0.16042258 
   39600    289.18371    -1116.462    150123.44   -47533.365    3971.2419   -51504.607   0.16314406 
   39800    292.01298   -941.60883    149931.55   -47523.696    4010.0951   -51533.791   0.15373472 
   40000    288.29577   -901.25549    149744.96   -47537.724    3959.0482   -51496.773   0.16360562 
   40200    291.24298   -985.01318    149919.95   -47510.398     3999.521   -51509.919   0.16276815 
   40400    295.30047   -1082.1589    150083.21   -47502.149    4055.2408    -51557.39   0.15327654 
   40600    289.24805   -1010.2419    149965.37   -47531.641    3972.1254   -51503.766    0.1503614 
   40800    288.87289   -926.53545    149843.19   -47551.833    3966.9735   -51518.806   0.14792348 
   41000    291.73517   -980.25578    149951.52   -47506.554    4006.2801   -51512.834   0.14857031 
   41200    294.90307   -1088.1388    150063.71   -47538.362    4049.7835   -51588.146   0.15191415 
   41400    293.10629   -996.44383    149951.48   -47504.294     4025.109   -51529.403   0.15264198 
   41600    291.98752   -906.09627    149866.26   -47500.442    4009.7454   -51510.187   0.15199316 
   41800    288.38172   -1039.6178    149989.95   -47498.121    3960.2285    -51458.35   0.15552259 
   42000    295.82657   -1082.4322    150057.72   -47468.997    4062.4655   -51531.462   0.15756776 
   42200    293.02622   -975.71837    149921.26   -47498.655    4024.0095   -51522.664   0.15811617 
   42400    285.63609   -934.69154    149866.76   -47550.507    3922.5239   -51473.031   0.15174943 
   42600    291.67842   -1012.5401    149985.54   -47577.012    4005.5007   -51582.513   0.14721393 
   42800    285.28038   -1051.8009    150017.56   -47576.251    3917.6391    -51493.89   0.15399794 
   43000    288.89608   -968.18837     149882.7   -47532.009    3967.2919   -51499.301   0.15049799 
   43200    296.49951   -951.64517    149868.42   -47536.911    4071.7068   -51608.618   0.14704144 
   43400    290.42895   -1056.1299    150011.06   -47524.981    3988.3422   -51513.323   0.15296524 
   43600    292.97413    -1047.153    149997.38   -47520.978    4023.2941   -51544.273   0.15249719 
   43800    294.01877   -978.28092    149866.66   -47495.716    4037.6398   -51533.356   0.15562041 
   44000    289.73176   -997.60277    149873.53   -47513.531     3978.768   -51492.299   0.15942026 
   44200    287.61968   -1051.5636    149980.73   -47555.727    3949.7637   -51505.491   0.16015454 
   44400     291.8358    -1009.229    149961.09   -47530.001    4007.6619   -51537.663   0.15225411 
   44600    289.61686   -971.23776    149847.65   -47467.431    3977.1901   -51444.621   0.15583061 
   44800    297.39723   -984.67053    149893.35   -47432.403    4084.0349   -51516.438   0.15364158 
   45000    291.43578   -1082.8013     150065.9    -47466.19    4002.1686   -51468.358    0.1490504 
   45200    291.35104   -1044.8406    150003.36   -47487.088    4001.0049   -51488.093   0.14736777 
   45400    288.62673   -905.17308    149806.45   -47539.954    3963.5932   -51503.547   0.14969467 
   45600    292.76491   -944.03678    149909.34   -47527.873    4020.4211   -51548.294   0.15009513 
   45800    291.21609   -1145.6598    150136.84   -47497.763    3999.1517   -51496.915   0.15998687 
   46000    288.44777   -1038.3867    149993.27   -47496.321    3961.1355   -51457.456   0.15809436 
   46200    287.06559   -876.95934    149756.58   -47533.338    3942.1547   -51475.493   0.15447651 
   46400    293.22957   -960.42586    149905.58   -47515.465     4026.802   -51542.267   0.15498943 
   46600    291.58067   -1161.9343    150165.61   -47508.691    4004.1584    -51512.85   0.15713281 
   46800    292.42736   -1013.1251    149995.15   -47474.864    4015.7856    -51490.65   0.15648844 
   47000    299.50473    -768.8458    149719.21   -47458.043    4112.9762    -51571.02   0.14249311 
   47200    297.31055   -1005.6177    149977.25   -47424.389    4082.8444   -51507.234   0.14415645 
   47400    295.61899    -1217.045    150270.26   -47348.947     4059.615   -51408.562   0.16223632 
   47600    301.64657   -983.20706    149961.59   -47327.188    4142.3893   -51469.577    0.1553153 
   47800    294.42021    -797.2737    149683.44   -47298.325    4043.1525   -51341.478   0.16317778 
   48000    297.41189   -1069.6296    150064.88    -47298.24    4084.2361   -51382.477   0.16344961 
   48200    299.30912   -1247.2595    150306.38   -47293.834    4110.2899   -51404.124   0.16406929 
   48400    297.23352   -948.47875    149867.23   -47279.463    4081.7866    -51361.25   0.16036298 
   48600     298.7091   -784.45559    149646.72   -47348.615    4102.0502   -51450.665   0.15823035 
   48800    301.11939   -1089.6678    150107.56   -47283.783    4135.1497   -51418.933   0.16349898 
   49000    297.37035   -1242.2363    150369.56   -47255.947    4083.6656   -51339.612   0.15397968 
   49200    303.20218   -911.00641    149926.89   -47298.308    4163.7517    -51462.06   0.14413455 
   49400    297.71188    -758.3354    149714.45   -47311.696    4088.3557   -51400.052   0.14880997 
   49600    296.99227   -1144.0839    150164.62   -47324.098    4078.4737   -51402.571     0.161541 
   49800    296.69797   -1174.8895    150290.12   -47299.416    4074.4322   -51373.848    0.1596117 
   50000    299.96171   -787.58278    149788.06   -47307.754    4119.2518   -51427.006    0.1569622 
   50200    297.85566   -830.50802    149717.38   -47348.369    4090.3302   -51438.699   0.16089618 
   50400    291.39783   -1207.4428    150247.85   -47344.922    4001.6475    -51346.57   0.16883391 
   50600    294.10173   -1185.6127    150240.51   -47365.537    4038.7791   -51404.316   0.16643504 
   50800    299.14731   -789.26761    149651.95   -47386.836     4108.068   -51494.904   0.15467757 
   51000    296.54625   -799.67632    149691.57   -47319.893    4072.3487   -51392.242   0.15656279 
   51200    295.95504   -1242.5228    150308.38   -47342.347    4064.2298   -51406.577   0.15735694 
   51400    294.50596   -1148.4751    150178.03   -47305.621    4044.3302   -51349.951   0.16220128 
   51600    301.37891   -695.39766    149586.46   -47314.986    4138.7135     -51453.7   0.14700979 
   51800    298.37872   -878.92924    149825.47   -47309.485    4097.5132   -51406.998   0.15837463 
   52000    299.79978   -1283.3311    150419.97   -47260.934     4117.028   -51377.962   0.16750219 
   52200    301.12044   -1132.0884    150127.48   -47237.503    4135.1641   -51372.667   0.17088994 
   52400    304.92057   -648.63803    149560.74   -47226.106    4187.3498   -51413.456   0.16302591 
   52600    297.18466   -938.74782    149929.33   -47260.502    4081.1156   -51341.618   0.16177779 
   52800    297.82238   -1310.4377    150439.86   -47269.251    4089.8732   -51359.124   0.16453811 
   53000    297.31054    -1009.701    149981.01   -47280.563    4082.8443   -51363.407   0.15776755 
   53200    297.18331   -666.76551     149493.5   -47297.322    4081.0971   -51378.419   0.15779042 
   53400    297.50125    -1032.068    150003.49   -47320.517    4085.4632    -51405.98   0.15734826 
   53600    297.59807   -1335.1862    150421.31   -47339.635    4086.7929   -51426.428    0.1580307 
   53800    302.98112   -869.09688    149843.87    -47325.62    4160.7161   -51486.336   0.14995209 
   54000    294.36932   -632.15877     149491.2   -47319.317    4042.4537    -51361.77   0.15772179 
   54200    299.01565   -1154.3966    150138.49   -47321.019    4106.2599   -51427.279   0.17078915 
   54400    297.93579   -1306.6553    150406.43   -47341.953    4091.4307   -51433.384    0.1712285 
   54600     295.8995   -829.13632    149726.59   -47346.751    4063.4671   -51410.218   0.16158402 
   54800    295.64898   -728.22729     149562.8   -47292.809    4060.0267   -51352.836   0.15843415 
   55000    302.17919   -1183.9951    150225.26   -47286.843    4149.7035   -51436.547   0.16110798 
   55200    299.55938   -1244.0656    150292.14   -47314.799    4113.7266   -51428.526    0.1653809 
   55400    301.17241   -734.31849    149661.49   -47348.957    4135.8778   -51484.835   0.15494605 
   55600    297.19898    -814.5148    149686.89   -47386.341    4081.3123   -51467.653   0.15458981 
   55800    295.52974   -1223.3457    150263.64   -47348.242    4058.3894   -51406.632   0.16228437 
   56000    297.20201   -1181.9474    150152.36   -47334.441    4081.3539   -51415.795   0.16649583 
   56200    295.96473   -791.48583    149631.65   -47375.797    4064.3629    -51440.16   0.16173655 
   56400    292.78538   -884.08226     149747.3   -47376.965    4020.7022   -51397.667   0.16454674 
   56600    295.00857   -1195.4966    150157.91   -47374.157    4051.2323   -51425.389   0.17246282 
   56800    296.57937   -1062.4781    149997.88   -47325.818    4072.8034   -51398.622   0.16724447 
   57000    300.11728   -787.63817    149692.34   -47337.526    4121.3882   -51458.914   0.14815144 
   57200    293.63013   -1022.6784    149885.34    -47365.24    4032.3028   -51397.543   0.15615119 
   57400    293.93451    -1143.663    150140.78   -47379.731    4036.4827   -51416.214   0.16157402 
   57600    290.97993   -1017.6825    149951.22   -47370.984    3995.9086   -51366.892   0.16246895 
   57800    290.84419   -894.42853    149760.98   -47388.204    3994.0446   -51382.249   0.16130004 
   58000    298.18278    -975.9962    149961.89   -47399.714    4094.8225   -51494.537   0.16147693 
   58200    297.24351   -1087.2292    150112.37   -47438.094    4081.9238   -51520.018   0.16092819 
   58400    293.29233   -1003.0674    149884.97   -47433.711    4027.6638   -51461.375   0.16311298 
   58600    295.97401   -869.98319     149758.1   -47414.407    4064.4903   -51478.897   0.16754508 
   58800    296.52353   -1057.7836    149991.51   -47444.733    4072.0366   -51516.769   0.16500753 
   59000    292.88719   -1118.8639    150081.49   -47466.984    4022.1003   -51489.085   0.16233385 
   59200    289.23272   -933.75634    149854.26   -47469.814    3971.9149   -51441.729    0.1558144 
   59400    293.09954   -913.12971    149829.08   -47412.368    4025.0164   -51437.384   0.15687895 
   59600    292.61249   -1122.7812    150068.56   -47404.895     4018.328   -51423.223   0.15873124 
   59800    297.82335    -1056.392    150045.58   -47390.492    4089.8865   -51480.378    0.1639734 
   60000    299.96681   -925.72613    149846.24   -47381.084    4119.3218   -51500.406   0.16444271 
   60200    293.29047   -948.74012     149908.1   -47352.372    4027.6384   -51380.011   0.16161871 
   60400    296.67779   -1105.7594    150126.23   -47317.938    4074.1551   -51392.093   0.16704675 
   60600    300.01918   -1057.1164    150070.48    -47359.89     4120.041   -51479.931   0.16216233 
   60800    298.18709   -877.42122    149802.44   -47300.602    4094.8816   -51395.484   0.16136821 
   61000    296.55365   -956.90353    149848.78   -47342.074    4072.4503   -51414.524   0.16130023 
   61200    294.74057   -1162.3557    150126.21   -47341.904    4047.5519   -51389.456   0.16580996 
   61400    294.13994   -1092.3684    150064.58   -47338.759    4039.3038   -51378.063    0.1609873 
   61600    297.16767    -869.8318    149771.46   -47335.099    4080.8823   -51415.981   0.15232569 
   61800    297.97082   -914.40909    149864.96   -47332.914    4091.9116   -51424.825   0.15538035 
   62000    293.73013   -1153.7953    150156.52   -47353.708     4033.676   -51387.384   0.16755749 
   62200    295.41557   -1061.3746    150018.38   -47368.136    4056.8215   -51424.957   0.16608759 
   62400    299.92807   -804.84621    149714.34   -47332.315    4118.7898   -51451.105   0.16153434 
   62600    298.12196   -958.54969     149919.3   -47350.704    4093.9873   -51444.691   0.16167018 
   62800    295.31454   -1235.1776    150276.75   -47321.408    4055.4341   -51376.842   0.16254333 
   63000    300.27325   -979.39226    150004.27   -47292.195      4123.53   -51415.725   0.15885742 
   63200    299.05458   -727.09885    149629.89   -47302.868    4106.7945   -51409.663   0.15946044 
   63400    297.00707   -1050.6372    150017.66   -47254.422    4078.6769   -51333.099   0.16417553 
   63600    297.93032   -1306.5444    150444.51   -47225.844    4091.3555   -51317.199   0.16544459 
   63800    296.32087   -927.02666    149917.55   -47262.756    4069.2536   -51332.009   0.16039567 
   64000    298.41454   -634.05056    149478.18   -47261.758    4098.0051   -51359.763   0.16073404 
   64200    295.79815   -1122.9181    150122.35   -47255.714    4062.0752   -51317.789   0.16747773 
   64400    301.19261   -1364.1918    150510.57   -47235.078    4136.1552   -51371.233   0.17085709 
   64600    300.57469   -858.19973    149737.64   -47304.174    4127.6696   -51431.843   0.16304048 
   64800    296.06065    -601.0008    149411.94   -47319.131    4065.6801   -51384.811   0.15908853 
   65000    298.10108   -1188.1423    150243.15    -47297.23    4093.7004   -51390.931   0.16352227 
   65200    299.24983   -1362.4491    150451.22   -47320.764    4109.4757    -51430.24   0.16580336 
   65400    299.17761   -763.02193     149615.7   -47360.069     4108.484   -51468.553   0.15431194 
   65600    294.14604   -663.17095    149517.73   -47387.036    4039.3876   -51426.424   0.15418149 
   65800     292.9534   -1276.7222    150310.35   -47348.946    4023.0095   -51371.955   0.16943954 
   66000    296.40975   -1245.4576     150303.2   -47347.144    4070.4741   -51417.618    0.1638178 
   66200    293.58297   -716.82489    149623.21   -47383.606    4031.6551   -51415.261   0.15536204 
   66400    298.85067   -786.32343    149707.64   -47379.047    4103.9942   -51483.042   0.15798035 
   66600    294.86716   -1262.5961    150313.78   -47383.964    4049.2904   -51433.254   0.16937998 
   66800    295.92697   -1146.6734     150163.1   -47367.273    4063.8443   -51431.118   0.16264423 
   67000    291.41339   -806.69464    149646.32   -47404.562    4001.8611   -51406.423   0.15896905 
   67200     296.2289   -925.59842    149839.56   -47423.903    4067.9907   -51491.894   0.15433235 
   67400    294.57091   -1244.0235    150272.07   -47450.791    4045.2221   -51496.013   0.15558559 
   67600     296.6594    -1038.446    150047.25    -47409.52    4073.9025   -51483.423   0.15515037 
   67800    299.06256   -762.95352    149710.87   -47360.302    4106.9041   -51467.206   0.15268724 
   68000    299.10978   -957.56473    149966.63   -47353.802    4107.5526   -51461.354   0.15545141 
   68200    289.84335   -1220.6366    150242.13   -47422.053    3980.3004   -51402.354   0.15789037 
   68400    296.09727   -987.41501       149942   -47369.599     4066.183   -51435.782   0.16168105 
   68600    294.37831   -801.26982    149710.86    -47358.03    4042.5771   -51400.607   0.16038835 
   68800    295.12483   -1021.6634    150026.11   -47321.509    4052.8289   -51374.338   0.16626605 
   69000    291.85262   -1207.6406     150238.5   -47363.533    4007.8929   -51371.426   0.16629422 
   69200    291.59604   -971.38061    149880.56   -47374.384    4004.3695   -51378.753   0.16129809 
   69400    294.07822   -832.24967     149695.3   -47415.695    4038.4562   -51454.151   0.15494497 
   69600    298.89402   -1068.6014    150045.42   -47422.853    4104.5896   -51527.442   0.15526599 
   69800    288.05307   -1165.0002     150204.2   -47383.921    3955.7152   -51339.636   0.16390505 
   70000    297.66671   -953.50094    149889.27   -47349.711    4087.7354   -51437.446   0.15672666 
   70200    297.10546   -787.75495    149781.13   -47334.561     4080.028   -51414.589   0.15707152 
   70400    299.28164   -1078.4589    150108.83    -47345.63    4109.9127   -51455.542    0.1603202 
   70600    296.83125   -1123.3602    150166.86   -47315.793    4076.2624   -51392.055   0.16617129 
   70800    293.11316     -913.802    149837.89   -47345.492    4025.2034   -51370.696   0.16238441 
   71000     293.1114   -907.14116     149790.9   -47392.625    4025.1793   -51417.805   0.16363921 
   71200    289.61953    -1148.302    150058.03   -47396.809    3977.2268   -51374.036   0.16808761 
   71400    296.74096    -1055.097    150060.27   -47363.308    4075.0225    -51438.33   0.15860732 
   71600    294.60899   -938.27589    149828.59   -47343.993    4045.7451   -51389.738   0.16241282 
   71800    297.34398   -932.74704    149854.56   -47364.073    4083.3035   -51447.376   0.15330566 
   72000    293.95235   -1180.9553    150089.35    -47385.52    4036.7276   -51422.247   0.16090309 
   72200    292.88107   -1047.1293    150020.96   -47421.846    4022.0162   -51443.863   0.15985642 
   72400    291.72624   -896.40141    149786.48   -47406.256    4006.1574   -51412.414   0.16270791 
   72600    300.11504   -922.19285    149873.38    -47372.12    4121.3574   -51493.477   0.15683016 
   72800    290.73878    -1143.637    150116.92   -47444.592     3992.597   -51437.189   0.15993724 
   73000    293.85458    -1028.656    149985.92   -47444.177     4035.385   -51479.562   0.16183707 
   73200    289.15271   -834.70488    149711.94   -47462.595    3970.8161   -51433.411   0.16324673 
   73400    292.77472   -979.55237    149927.35   -47454.568    4020.5557   -51475.124    0.1571163 
   73600    295.47065   -1195.2186    150266.72   -47431.811    4057.5779   -51489.389   0.15378778 
   73800    294.37438   -982.98077    149992.96   -47430.878    4042.5233   -51473.402   0.15265076 
   74000    294.27143   -725.20673    149599.68    -47485.56    4041.1095    -51526.67   0.15004513 
   74200    296.10015   -978.63348    149966.91   -47477.585    4066.2226   -51543.808   0.15354775 
   74400    292.00156   -1307.3311    150376.43   -47431.087    4009.9382   -51441.026   0.16538808 
   74600    297.17879   -960.35168    149908.98   -47462.958     4081.035   -51543.993     0.155188 
   74800    296.00398   -658.36368    149502.24   -47478.867    4064.9018   -51543.769   0.15204202 
   75000    293.16215    -1075.093    150069.24   -47434.639    4025.8762   -51460.515   0.15798181 
   75200    294.94771   -1366.9148    150451.75   -47414.177    4050.3965   -51464.573   0.16811604 
   75400    295.24292   -859.55884    149784.57   -47412.639    4054.4506    -51467.09   0.15976281 
   75600    293.99934   -645.63578    149474.81   -47395.825     4037.373   -51433.198   0.15567069 
   75800    293.41728   -1151.6163    150223.75   -47362.794    4029.3798   -51392.174   0.15554353 
   76000    295.74624   -1364.1444    150465.05   -47342.496    4061.3625   -51403.859    0.1658421 
   76200    297.95447   -771.10029    149657.32   -47382.491    4091.6872   -51474.178   0.16125376 
   76400      297.235   -692.72122    149527.96   -47354.798     4081.807   -51436.605   0.16072204 
   76600    297.19553   -1295.2194    150333.06   -47329.621    4081.2649   -51410.886   0.16505027 
   76800    300.92232   -1273.3177    150347.74   -47327.852    4132.4434   -51460.295   0.16146615 
   77000    297.69612   -717.08049    149580.27   -47340.346    4088.1394   -51428.486   0.15604643 
   77200    296.84218   -797.50796    149674.89   -47386.647    4076.4125   -51463.059   0.15396114 
   77400    297.25994   -1263.0671    150322.42   -47364.224    4082.1494   -51446.373   0.16438214 
   77600    295.04879   -1123.7915    150159.05   -47383.593    4051.7846   -51435.378    0.1621391 
   77800    290.59388   -747.93301    149634.29   -47402.994    3990.6072   -51393.601   0.15266333 
   78000    294.64535   -897.26527    149847.44   -47401.859    4046.2443   -51448.104   0.15552753 
   78200    292.54376   -1245.1105    150297.11   -47388.947     4017.384   -51406.331   0.16593003 
   78400    293.62876   -1016.6578    150023.02   -47412.931    4032.2839   -51445.215   0.15956106 
   78600    296.89533    -779.8432    149647.41   -47437.894    4077.1424   -51515.036   0.15722355 
   78800    294.50654   -991.22579    149943.93   -47420.049    4044.3382   -51464.387   0.16141411 
   79000     292.7031   -1248.2846    150263.02   -47396.442    4019.5722   -51416.014   0.16518513 
   79200     295.2103   -1005.4922    149949.56   -47411.953    4054.0026   -51465.956    0.1600718 
   79400     296.6392    -793.4058    149689.73   -47368.937    4073.6251   -51442.562   0.15777579 
   79600    297.13784   -1040.0348    150019.99   -47354.529    4080.4727   -51435.002   0.16542941 
   79800    295.12085     -1191.98    150248.93   -47377.039    4052.7742   -51429.813    0.1632355 
   80000    295.22237   -986.11314    149920.79   -47353.376    4054.1684   -51407.544   0.16002491 
   80200    296.74486   -831.53768    149732.14   -47321.045    4075.0761   -51396.121   0.15906514 
   80400    297.68858    -1098.645    150108.14   -47285.349    4088.0358   -51373.384   0.15932169 
   80600     298.6916   -1164.0944    150256.37     -47303.4    4101.8099    -51405.21   0.16524849 
   80800    301.50601   -941.78987    149898.85   -47251.578    4140.4591   -51392.037   0.16126648 
   81000    301.22459   -900.97212    149818.75    -47306.79    4136.5944   -51443.384   0.15911796 
   81200    299.21742   -1076.7044    150119.74   -47282.385    4109.0308   -51391.416   0.15928171 
   81400    301.17878   -1111.8335    150128.53   -47258.452    4135.9653   -51394.417   0.16603192 
   81600    293.81154   -914.81228    149850.75   -47282.509     4034.794   -51317.303   0.16153084 
   81800    299.60626   -923.67942    149852.16   -47288.054    4114.3704   -51402.424   0.15670572 
   82000    301.50834   -1096.1691       150119   -47249.974     4140.491   -51390.465   0.16634541 
   82200    299.80971   -1091.3812    150106.13   -47295.115    4117.1644   -51412.279    0.1595377 
   82400    298.25762   -868.52317    149842.05   -47300.743    4095.8502   -51396.594   0.15246445 
   82600    297.33999    -954.9591    149867.01   -47345.981    4083.2487    -51429.23   0.15882324 
   82800     295.2195   -1072.5573    150067.62   -47383.158     4054.129   -51437.287   0.16302123 
   83000    296.01605   -1065.9318    150027.38   -47366.164    4065.0676   -51431.231   0.16227046 
   83200    296.76139   -932.61252    149871.88    -47389.77    4075.3031   -51465.073   0.16277735 
   83400    291.72146   -956.93191    149891.22   -47410.017    4006.0917   -51416.109   0.16160441 
   83600    295.26688   -1030.8299    150041.98    -47423.89    4054.7796   -51478.669   0.15914521 
   83800    294.24132    -1006.344    150018.63    -47373.41    4040.6959   -51414.106   0.16071893 
   84000    295.03857   -941.87695    149900.28    -47405.85    4051.6443   -51457.494    0.1602923 
   84200    295.05673   -983.17047    149915.05   -47394.073    4051.8936   -51445.967   0.16463113 
   84400    296.60634   -1038.6106    150036.09   -47395.086    4073.1738   -51468.259   0.15531938 
   84600    292.88211   -1025.8552    150000.48   -47392.183    4022.0305   -51414.213   0.15720306 
   84800    291.29967   -932.51757    149825.69   -47405.638    4000.2995   -51405.938   0.16142674 
   85000    299.05489    -934.3892     149890.2   -47368.649    4106.7987   -51475.448   0.15567973 
   85200    292.64182   -1148.8083    150141.39   -47333.109    4018.7307   -51351.839   0.16859883 
   85400    299.24043   -1035.9333    150038.04   -47320.567    4109.3468   -51429.913   0.16087603 
   85600    294.41102   -875.61739    149712.25   -47322.166    4043.0264   -51365.193   0.16030338 
   85800    300.87869   -917.65692    149866.78   -47334.438    4131.8443   -51466.282   0.15189092 
   86000    301.55751   -1172.8159    150232.11   -47280.427    4141.1662   -51421.593   0.16259524 
   86200    300.90486   -984.05978    150066.26   -47292.475    4132.2036   -51424.679   0.15612282 
   86400    298.64182   -809.13392    149678.65   -47292.472    4101.1262   -51393.598   0.15887176 
   86600    300.19892    -944.0072    149895.33   -47289.213    4122.5092   -51411.722    0.1602567 
   86800    299.42749   -1284.9499    150293.27   -47312.756    4111.9155   -51424.671   0.16456917 
   87000    293.49604    -1031.687    149973.47   -47338.516    4030.4614   -51368.977   0.15924847 
   87200    299.12072   -704.80663    149582.91   -47314.736    4107.7027   -51422.439    0.1560332 
   87400    297.62276    -1022.175    149997.02    -47273.19    4087.1319   -51360.322   0.16663503 
   87600    297.15934   -1332.8288    150365.21   -47333.808    4080.7679   -51414.576    0.1674181 
   87800    293.82114    -949.5981    149837.25   -47348.483    4034.9258   -51383.408   0.16459098 
   88000    296.41695   -705.76004    149506.51   -47304.169     4070.573   -51374.742   0.16091958 
   88200    298.43667   -1102.4364    150143.68   -47308.508    4098.3089   -51406.817   0.15741154 
   88400    294.29702   -1327.9451    150415.43    -47287.36    4041.4609   -51328.821   0.16829687 
   88600    299.02292   -780.99167    149701.87   -47313.074    4106.3598   -51419.434   0.16184499 
   88800    298.75806    -673.8892    149483.77   -47305.905    4102.7225   -51408.627   0.15814363 
   89000    295.03048   -1202.9281    150191.05   -47317.956    4051.5332    -51369.49   0.16244681 
   89200    298.35653   -1296.3229    150332.46   -47288.244    4097.2085   -51385.452   0.16275118 
   89400    297.11829   -798.59681    149684.05   -47270.038    4080.2043   -51350.242   0.15665416 
   89600    297.43438   -785.71899    149645.08   -47294.302    4084.5449   -51378.847   0.16123714 
   89800    291.16362   -1206.1839    150241.58    -47319.82    3998.4311   -51318.251   0.16349142 
   90000     299.3553   -1173.0667    150229.83   -47337.718    4110.9242   -51448.642   0.16163013 
   90200    296.85861   -810.27816    149684.54   -47391.986    4076.6382   -51468.624   0.14778862 
   90400    296.05934   -828.91415    149738.37   -47412.559    4065.6621   -51478.221   0.15093433 
   90600    295.38367   -1178.4885    150211.25   -47397.417    4056.3834   -51453.801   0.16423176 
   90800    295.43313   -1096.7276     150111.7   -47422.863    4057.0626   -51479.926   0.16164626 
   91000    292.84714    -824.7783    149677.91   -47429.776    4021.5503   -51451.326   0.15432033 
   91200    293.58483   -892.20152    149809.12   -47442.688    4031.6806   -51474.368   0.15148768 
   91400    294.28333   -1174.3674    150200.09   -47427.156    4041.2728   -51468.429   0.15792667 
   91600    298.47921   -1057.0811    150039.69   -47434.624    4098.8932   -51533.517   0.15891499 
   91800    292.91777   -820.58122    149695.32   -47415.353    4022.5202   -51437.873   0.15865375 
   92000    291.55817   -983.09486    149885.37   -47428.302    4003.8494   -51432.152   0.15901029 
   92200    296.52407   -1139.7555    150145.94   -47447.769    4072.0441   -51519.813   0.15324663 
   92400    294.49498   -1017.0737    149940.26   -47429.389    4044.1794   -51473.569   0.15533787 
   92600    292.80336   -849.03952    149719.97   -47489.659     4020.949   -51510.608   0.15620668 
   92800    292.72461   -996.29279    149911.33   -47456.348    4019.8677   -51476.216   0.15927881 
   93000    298.30019   -1091.5791    150139.58   -47379.453    4096.4348   -51475.888   0.15680331 
   93200    298.52207   -1036.6991    149997.17   -47380.738    4099.4817   -51480.219   0.16012705 
   93400    295.09721    -898.2602    149808.02   -47386.416    4052.4496   -51438.866   0.15938577 
   93600    291.79216   -1016.8455    149928.25   -47367.795    4007.0627   -51374.858   0.16199401 
   93800    291.36255   -1128.9646    150098.91    -47355.34     4001.163   -51356.503   0.16442818 
   94000    300.46971    -1015.119    149978.41   -47358.849     4126.228   -51485.077    0.1548655 
   94200    292.76552   -956.43842    149818.09   -47443.607    4020.4294   -51464.036   0.15630811 
   94400    290.73957   -1011.0766    149915.68   -47426.287    3992.6078   -51418.895   0.15704143 
   94600    296.60373   -1066.4454    150066.12   -47421.053     4073.138   -51494.191   0.15613671 
   94800    291.98226   -1022.2386    149933.83   -47475.748    4009.6732   -51485.421   0.15615023 
   95000    292.09537   -924.37613    149781.49   -47484.409    4011.2265   -51495.635   0.15850172 
   95200    292.99994   -1018.1128    149928.51   -47488.399    4023.6485   -51512.047   0.15950378 
   95400    292.39674    -1093.004    150051.68   -47498.383     4015.365   -51513.748   0.15900213 
   95600    290.82044    -976.2158    149870.33   -47462.576    3993.7184   -51456.294   0.15481227 
   95800    296.01129   -902.09674    149796.59   -47427.208    4065.0023   -51492.211   0.15503599 
   96000    291.88669   -1041.0961    149968.67   -47416.557    4008.3607   -51424.918   0.16395341 
   96200    287.83229   -1119.9457    150002.94   -47458.544    3952.6834   -51411.227   0.16161606 
   96400    297.54475   -893.47422    149810.08   -47454.623    4086.0606   -51540.683   0.15657165 
   96600     293.3912   -915.80832    149801.76   -47466.487    4029.0216   -51495.509   0.15700905 
   96800    294.93966   -1078.9897    149960.82   -47517.486     4050.286   -51567.772   0.15565794 
   97000    288.09213    -1027.729    149904.83   -47500.585    3956.2517   -51456.836   0.15817741 
   97200    289.85526   -927.16967    149790.19   -47489.047    3980.4641   -51469.511   0.15967512 
   97400    292.92803   -1006.9339    149869.14   -47442.555    4022.6612   -51465.216   0.16388429 
   97600    298.07725   -1031.4963    149967.61   -47412.422    4093.3733   -51505.795   0.15260156 
   97800    300.57159   -1010.6863    149915.94   -47408.751     4127.627   -51536.378   0.15478031 
   98000    294.22027   -920.68883    149874.63   -47379.113    4040.4069    -51419.52   0.15720137 
   98200     294.0556   -1066.4345    149965.77   -47389.314    4038.1455   -51427.459   0.16251186 
   98400    297.73141   -1030.5445    150024.58   -47316.199    4088.6239   -51404.823   0.15797897 
   98600    299.02532   -997.44326    149975.21   -47365.648    4106.3927   -51472.041   0.15676474 
   98800    296.01083   -960.94094    149903.76   -47328.447    4064.9959   -51393.443   0.15513478 
   99000    292.44832   -999.15066    149963.41   -47331.076    4016.0734   -51347.149   0.15441551 
   99200    292.47024   -1070.3981    150021.62   -47395.693    4016.3744   -51412.067    0.1628169 
   99400    291.11177    -978.7359    149904.18   -47491.499    3997.7192   -51489.218   0.15814294 
   99600     288.8354   -952.57392    149850.18    -47516.89    3966.4587   -51483.349    0.1560039 
   99800    292.98612   -1030.6242     149987.9   -47486.696    4023.4589   -51510.155   0.15327645 
  100000    289.22195   -1075.3809    150013.28   -47486.078     3971.767   -51457.845   0.15658586 
  100200    291.88179   -976.72261    149877.16   -47445.094    4008.2934   -51453.388   0.15912593 
  100400    290.52191    -965.8244    149890.21   -47442.918    3989.6188   -51432.537    0.1593907 
  100600    297.23581   -1036.4985    150018.24   -47389.018    4081.8181   -51470.836   0.15871835 
  100800     295.2608   -1059.5099    149989.31    -47420.17    4054.6961   -51474.866   0.15850242 
  101000    294.55186   -920.24297    149866.03   -47404.259    4044.9606    -51449.22   0.15538531 
  101200    291.66141   -986.43499    149940.94   -47381.259    4005.2672   -51386.526    0.1592837 
  101400    296.58163   -1093.9464    150063.21   -47387.348    4072.8345   -51460.182   0.16626889 
  101600    297.02661    -957.9209    149974.07   -47405.006    4078.9452   -51483.951   0.15839888 
  101800    300.04644   -931.15563    149867.25   -47373.494    4120.4153   -51493.909   0.16083048 
  102000    293.14888   -1013.2011    149987.05   -47372.258    4025.6939   -51397.952   0.15930614 
  102200    292.47551   -1083.1261     150067.9   -47363.026    4016.4468   -51379.473   0.16259915 
  102400     298.0857   -959.68065    149946.95   -47307.302    4093.4892   -51400.791   0.16201095 
  102600    296.35313   -954.51424    149910.36   -47319.936    4069.6965   -51389.632   0.16134365 
  102800     298.2859   -1041.4693    150035.76    -47330.09    4096.2385   -51426.329   0.16441004 
  103000    300.97577    -1050.687    150076.25   -47323.348    4133.1774   -51456.526   0.16061251 
  103200    302.07682   -958.00441       149969   -47304.755    4148.2977   -51453.053   0.16115509 
  103400    297.55487   -924.02803     149922.7    -47334.23    4086.1996    -51420.43   0.15414254 
  103600    295.68687   -1052.7708    150018.61   -47337.257    4060.5471   -51397.804   0.15903327 
  103800    302.96014   -1035.5412     150018.4   -47341.591    4160.4279   -51502.019   0.16321861 
  104000    297.63004   -989.07179    149888.61   -47352.219    4087.2319   -51439.451   0.16810058 
  104200    295.13975   -1009.4283    149927.71   -47365.243    4053.0337   -51418.277   0.16081095 
  104400    294.76597   -1081.5448       150058   -47379.955    4047.9008   -51427.856   0.15847733 
  104600     292.9881   -1027.0652    149992.84   -47377.154     4023.486    -51400.64   0.16226091 
  104800    299.94303   -900.03724    149862.85   -47369.499    4118.9952   -51488.494   0.15961398 
  105000    296.36836    -1025.437    149950.89   -47397.941    4069.9057   -51467.847   0.16210188 
  105200     294.2055   -1093.6026     150096.1   -47396.635     4040.204   -51436.839   0.15909109 
  105400    294.97913   -988.58776    149990.13   -47389.903    4050.8281   -51440.731   0.15653497 
  105600    295.00322   -888.50756    149877.23   -47390.056    4051.1588   -51441.215   0.15223734 
  105800    292.00596   -1051.5723    150007.36   -47405.394    4009.9987   -51415.392   0.16046199 
  106000    295.19289   -1094.1531    150068.05   -47384.797    4053.7635    -51438.56   0.16614533 
  106200    296.71611   -969.41939    149918.06   -47363.511    4074.6813   -51438.192   0.15759796 
  106400    298.17034   -898.63336    149899.27   -47375.528    4094.6516    -51470.18   0.15067534 
  106600    297.68655   -1008.7126    150020.24   -47374.266    4088.0079   -51462.274   0.15488912 
  106800    298.16932   -1015.3095    149948.23   -47368.669    4094.6376   -51463.307   0.15982639 
  107000    290.29844   -877.91742    149796.23     -47326.3      3986.55    -51312.85   0.15978617 
  107200    294.94763   -975.17381    149896.27   -47312.513    4050.3954   -51362.909   0.16407706 
  107400    302.75357   -1091.8028    150050.73   -47316.591    4157.5912   -51474.182   0.16404501 
  107600    300.58495   -990.72388    149911.53   -47295.876    4127.8104   -51423.686   0.16458477 
  107800    293.07774   -901.21936    149780.19   -47318.522     4024.717   -51343.239   0.16446515 
  108000    299.85803   -1002.2261    149952.06   -47291.403    4117.8279   -51409.231   0.16244544 
  108200    298.56045   -1093.5848     150056.2   -47324.417    4100.0089   -51424.426   0.16937902 
  108400    295.06915   -1007.0408    149888.69   -47322.467    4052.0643   -51374.531   0.16832282 
  108600     300.6133   -890.83718    149801.57   -47295.266    4128.1998   -51423.466   0.16651601 
  108800    300.16536    -1059.789    150015.32   -47316.261    4122.0484   -51438.309   0.16044485 
  109000    299.31014   -1089.1083    150094.23   -47353.784     4110.304   -51464.088   0.16103802 
  109200    302.29216   -948.62158    149859.83     -47358.5    4151.2549   -51509.755   0.16308293 
  109400    298.86633   -867.33185    149780.69   -47344.619    4104.2093   -51448.829   0.16007229 
  109600    300.09019   -1063.5181    150041.29   -47301.173    4121.0161   -51422.189   0.16280377 
  109800     292.9739   -1135.4273    150123.07    -47351.52     4023.291   -51374.811   0.16454523 
  110000    301.41868   -877.06329    149823.94   -47294.442    4139.2597   -51433.702   0.15703895 
  110200    294.32886   -896.97993    149791.01   -47282.205    4041.8981   -51324.103   0.16061328 
  110400    301.87594   -1152.4109    150144.15   -47330.296    4145.5391   -51475.835   0.16707694 
  110600    296.91868   -1123.4271    150142.21   -47403.719     4077.463   -51481.182   0.16228492 
  110800    296.23149    -823.2472    149747.86    -47404.47    4068.0262   -51472.496    0.1521317 
  111000    295.31931   -888.70129     149792.1    -47406.55    4055.4996   -51462.049    0.1542302 
  111200     293.4795   -1158.0808    150203.17   -47388.497    4030.2343   -51418.731   0.16351172 
  111400    294.42036    -1119.146    150094.81   -47445.266    4043.1547    -51488.42   0.16330714 
  111600    290.35716   -773.51359    149589.41   -47505.083    3987.3564   -51492.439   0.15412829 
  111800    293.42636   -826.65983    149707.09   -47537.711    4029.5044   -51567.216   0.15616437 
  112000    291.33746   -1282.0561    150263.38   -47520.371    4000.8184    -51521.19   0.16446162 
  112200       292.85   -1114.4267    150082.78   -47480.715    4021.5895   -51502.305   0.15837952 
  112400    296.20609    -706.8456    149540.77   -47455.883    4067.6773    -51523.56   0.15560541 
  112600    293.49275   -938.49583    149813.94   -47427.871    4030.4161   -51458.287   0.16401103 
  112800    294.18601   -1291.2271    150353.22   -47434.753    4039.9364    -51474.69   0.16808344 
  113000    294.40579   -1049.8955    150000.76   -47418.305    4042.9546    -51461.26   0.16132054 
  113200    292.40489   -676.17743    149471.23   -47460.984    4015.4771   -51476.461   0.16035188 
  113400    294.90246   -946.80846    149859.43   -47437.679    4049.7752   -51487.454   0.15813783 
  113600    292.64614    -1332.022    150371.02   -47431.718      4018.79   -51450.508   0.16123049 
  113800    289.98786   -959.23432    149945.36   -47420.009     3982.285   -51402.294   0.15679672 
  114000    292.91868   -669.77634    149526.68   -47411.118    4022.5326   -51433.651   0.15667809 
  114200    294.81688   -1029.4295    150001.29   -47419.021    4048.5999   -51467.621   0.15997211 
  114400    292.67495   -1309.9792    150371.62   -47352.766    4019.1857   -51371.951   0.16513344 
  114600    291.92875   -979.36542    149904.88   -47332.211    4008.9384   -51341.149   0.16472161 
  114800     295.1039   -725.10423     149563.3    -47323.26    4052.5414   -51375.801     0.158386 
  115000    297.95103   -1060.9516    150052.14   -47346.581    4091.6399   -51438.221   0.16187475 
  115200    299.92612   -1256.1641    150307.22   -47358.037     4118.763     -51476.8   0.16620696 
  115400    292.01086   -911.86175    149836.67   -47376.383     4010.066   -51386.449   0.16130323 
  115600    295.08102   -767.05588    149663.46   -47361.255    4052.2272   -51413.482   0.15858842 
  115800    297.04174   -1086.5167    150129.99   -47371.696    4079.1529   -51450.849   0.15825848 
  116000    297.81543   -1203.0063     150222.2   -47355.266    4089.7777   -51445.044    0.1682023 
  116200    297.10271   -882.88789    149806.09   -47380.008    4079.9902   -51459.999   0.16478428 
  116400     292.4106   -886.61395    149765.09   -47422.248    4015.5555   -51437.803   0.16171841 
  116600    291.93964   -1077.1128    150087.76   -47430.035     4009.088   -51439.123   0.16367074 
  116800    296.59244   -1120.8429    150112.69   -47385.661    4072.9829   -51458.644   0.16053426 
  117000    298.37609   -939.67884    149868.02   -47395.803    4097.4771    -51493.28    0.1606585 
  117200     297.6664   -935.32237    149881.94   -47386.315    4087.7312   -51474.046   0.16252765 
  117400    289.09626   -1083.6547    150086.32   -47409.519    3970.0409    -51379.56   0.16610898 
  117600    289.71668   -1029.9733    150039.96   -47390.427     3978.561   -51368.988   0.16508566 
  117800    293.44664   -972.59635    149914.04     -47353.1     4029.783   -51382.883   0.16614267 
  118000    298.02359   -992.97993    149983.74   -47344.569    4092.6363   -51437.205   0.15861611 
  118200    297.29669   -1070.9039    150038.79   -47378.191    4082.6542   -51460.845   0.15771039 
  118400    295.18104   -1006.9766    149926.29   -47431.065    4053.6008   -51484.666   0.16461084 
  118600     293.2733   -942.26455    149858.54   -47459.946    4027.4026   -51487.348   0.16596925 
  118800    291.96938    -1029.695    149962.04   -47508.531    4009.4963   -51518.028   0.15687658 
  119000    285.81834    -1058.742    149981.89   -47505.366    3925.0266   -51430.392   0.15775387 
  119200    289.50048   -952.70252    149875.69   -47508.548    3975.5919    -51484.14   0.15703295 
  119400    293.21184   -936.74808    149854.09   -47535.405    4026.5585   -51561.963    0.1533503 
  119600    294.52094   -1012.9175    149937.54   -47473.254    4044.5359    -51517.79    0.1533787 
  119800    293.06937   -1041.5332     149988.6   -47468.222     4024.602   -51492.824   0.16458359 
  120000    294.86133   -963.08212     149901.2   -47488.038    4049.2103   -51537.249   0.15559913 
  120200    295.86668   -944.65431    149852.24   -47461.331    4063.0164   -51524.347   0.15262609 
  120400    289.20786   -998.44574    149939.98   -47506.216    3971.5736   -51477.789   0.15631217 
  120600    292.22108   -1029.5531    149960.56   -47499.265    4012.9529   -51512.217   0.16396586 
  120800    292.96458   -983.10737    149867.28   -47492.469     4023.163   -51515.632   0.16363872 
  121000    291.69679   -990.73136    149815.36   -47477.603     4005.753   -51483.356   0.16347676 
  121200    292.78864   -1059.4399    149917.85   -47474.004    4020.7469   -51494.751   0.16195146 
  121400      294.398   -1035.9008    149958.75   -47471.333    4042.8476   -51514.181   0.15440319 
  121600    290.27625   -937.11695    149853.66   -47462.858    3986.2453   -51449.103   0.16360979 
  121800    289.90921   -983.76313    149841.19   -47461.672    3981.2049   -51442.877   0.16747107 
  122000    290.16747   -1045.1451    149958.01   -47436.767    3984.7514   -51421.519   0.16268933 
  122200     296.5981   -1027.2549    149981.14   -47404.017    4073.0607   -51477.078   0.15812564 
  122400    300.11295   -956.47967    149884.36   -47358.857    4121.3286   -51480.186   0.15562088 
  122600    300.15981   -921.57706       149883   -47278.827    4121.9721   -51400.799   0.15979352 
  122800    300.69729   -1080.1336    150077.47   -47276.259    4129.3532   -51405.612   0.16705108 
  123000    299.24141   -1077.2982    150075.56   -47324.084    4109.3602   -51433.444   0.16783104 
  123200    297.41039    -933.2795    149826.13    -47351.85    4084.2154   -51436.065   0.16640989 
  123400    290.77085   -955.16762    149785.19   -47436.537    3993.0375   -51429.575   0.15870873 
  123600    296.21604    -1033.094    150042.42   -47379.774    4067.8139   -51447.588   0.15744593 
  123800    294.65473   -1115.3927    150080.13   -47400.613    4046.3731   -51446.986   0.16519851 
  124000    298.18339   -844.16208    149795.23   -47387.483    4094.8308   -51482.314   0.16003291 
  124200     293.5423   -888.27688    149838.38    -47371.25    4031.0966   -51402.347   0.16123402 
  124400     298.5651   -1131.7163    150177.33   -47381.046    4100.0727   -51481.118   0.16521564 
  124600    295.83587   -1091.1004    150099.19    -47399.91    4062.5932   -51462.503   0.16061946 
  124800    296.25217   -804.33405    149722.47    -47409.58    4068.3101   -51477.891   0.15868101 
  125000    297.53183    -901.4345    149858.98   -47419.786    4085.8833   -51505.669   0.16262066 
  125200    298.70341   -1213.5799    150266.97   -47403.621    4101.9721   -51505.593   0.16693951 
  125400    290.62741   -1066.5338    150052.07   -47475.296    3991.0676   -51466.364   0.15711495 
  125600    296.26692   -753.49649    149611.13   -47475.686    4068.5127   -51544.199   0.15005468 
  125800    294.61441   -934.03692     149866.3       -47464    4045.8195   -51509.819    0.1599154 
  126000    293.65996    -1267.759     150306.4   -47423.632    4032.7124   -51456.345   0.16221628 
  126200    301.33475   -1033.2496    150002.09    -47409.33    4138.1072   -51547.438   0.15820562 
  126400    293.09661   -707.96397    149596.67   -47442.867    4024.9762   -51467.844   0.15613093 
  126600    294.44553   -1032.7923    149966.48   -47464.798    4043.5002   -51508.298   0.15752798 
  126800    295.36302   -1244.8019    150319.17   -47429.789    4056.0998   -51485.889    0.1577459 
  127000    291.05155   -960.07952    149917.95   -47452.192    3996.8922   -51449.084   0.15475338 
  127200    290.93363   -746.10752    149595.77   -47491.427    3995.2728     -51486.7   0.15711124 
  127400    289.48845   -1051.7686    150009.02   -47485.218    3975.4268   -51460.645   0.16170644 
  127600    292.78967   -1257.1538    150266.72   -47473.474     4020.761   -51494.235   0.15919664 
  127800     293.5397   -897.69637    149806.32    -47469.38    4031.0609    -51500.44   0.15495753 
  128000    291.73763   -749.37663    149602.13   -47469.823    4006.3138   -51476.137   0.14935455 
  128200    291.12363    -1096.626    150061.17   -47428.203     3997.882   -51426.084   0.16011821 
  128400    292.78661   -1196.1795    150197.36   -47452.744     4020.719   -51473.463   0.16788386 
  128600    292.98508   -868.03741    149722.51   -47491.625    4023.4446    -51515.07   0.15748314 
  128800    288.38305   -827.68829    149648.98   -47530.304    3960.2467   -51490.551   0.15633636 
  129000    291.87408   -1159.5548    150124.53   -47556.733    4008.1877    -51564.92   0.15931914 
  129200    291.92986   -1193.9918    150104.67   -47513.703    4008.9536   -51522.657     0.166682 
  129400    294.45982   -784.68663    149648.48   -47520.499    4043.6965   -51564.196   0.15493128 
  129600    286.96301    -880.1427    149793.58   -47518.769    3940.7459   -51459.515   0.15728617 
  129800    287.08567   -1254.4533    150261.21   -47523.895    3942.4304   -51466.325   0.16075314 
  130000    287.86658   -1095.2504    150070.84   -47537.448    3953.1543   -51490.602    0.1511674 
  130200    292.63087   -767.84401    149627.02   -47562.709    4018.5804   -51581.289   0.14571999 
  130400    289.83353   -983.31824    149850.61   -47544.496    3980.1656   -51524.662   0.15931787 
  130600    290.93839   -1198.7432    150246.87   -47493.117    3995.3382   -51488.456    0.1579544 
  130800    288.86554    -1049.381    149987.25   -47518.598    3966.8725    -51485.47    0.1518011 
  131000    293.62887   -758.88997    149619.98   -47543.913    4032.2854   -51576.199   0.14934124 
  131200    292.05721   -990.84139     149924.6   -47512.986    4010.7025   -51523.689   0.15133196 
  131400    292.62367   -1189.7312    150248.98   -47507.955    4018.4815   -51526.437   0.15026921 
  131600    290.36859   -961.35728    149903.32   -47506.368    3987.5134   -51493.882   0.15542965 
  131800    295.98134   -766.97647    149624.34   -47481.804    4064.5909   -51546.395   0.15236857 
  132000    289.34326   -1117.2039    149978.74   -47421.107    3973.4329    -51394.54   0.15996208 
  132200    295.04414   -1202.0574     150216.7   -47423.171    4051.7208   -51474.891   0.15120176 
  132400    289.23715   -928.80775    149830.11   -47431.572    3971.9758   -51403.548   0.15412439 
  132600    295.02047   -745.51055    149624.33   -47410.956    4051.3957   -51462.352   0.15445819 
  132800    292.95996   -1083.8537    150068.03   -47374.331    4023.0996   -51397.431    0.1617463 
  133000    298.32052   -1229.2474    150283.74   -47364.345    4096.7139   -51461.059   0.16263456 
  133200    297.69262   -858.06212    149818.39    -47318.99    4088.0913   -51407.081   0.15843926 
  133400    302.54139   -745.51831    149679.56    -47308.08    4154.6775   -51462.757   0.15246486 
  133600    296.95943   -1194.4193       150250   -47312.785    4078.0226   -51390.807   0.16243671 
  133800    300.77175    -1294.807    150344.84   -47331.995    4130.3756    -51462.37   0.16824803 
  134000     297.7128    -742.8741    149705.26   -47290.266    4088.3684   -51378.634   0.15944178 
  134200    296.97755   -777.76589    149711.76   -47305.524    4078.2715   -51383.796   0.15694928 
  134400    294.80644   -1296.9063    150408.64   -47293.566    4048.4565   -51342.023    0.1617228 
  134600     295.3893   -1256.0203    150285.79   -47311.547    4056.4606   -51368.007   0.16281134 
  134800    291.90453   -669.91191    149481.13   -47365.138    4008.6058   -51373.744    0.1558792 
  135000    298.12853   -782.49065    149683.01   -47421.525    4094.0775   -51515.602      0.15603 
  135200    296.44291   -1382.6079     150489.3   -47417.759    4070.9295   -51488.688   0.16278697 
  135400    291.31869   -1148.5483    150170.72   -47443.406    4000.5606   -51443.967   0.15225947 
  135600    291.92093   -611.12985    149378.29   -47417.307    4008.8309   -51426.138   0.15244645 
  135800    296.35873   -860.03188    149747.84   -47487.427    4069.7735     -51557.2   0.15143928 
  136000    287.58827   -1396.9115    150441.13   -47506.643    3949.3324   -51455.975   0.16159194 
  136200      290.767   -1062.4899    150012.82    -47524.81    3992.9845   -51517.794   0.15836191 
  136400    292.46047   -673.36362    149432.54   -47485.657    4016.2403   -51501.897    0.1560955 
  136600    293.30049   -956.83905     149905.6   -47422.812     4027.776   -51450.588   0.15232585 
  136800    294.67632   -1370.3255    150411.81   -47423.679    4046.6696   -51470.349   0.15894934 
  137000    292.95124   -978.07875    149943.96     -47434.8    4022.9798   -51457.779   0.15841816 
  137200    291.01398   -714.32522    149551.49    -47473.01    3996.3763   -51469.386   0.15512702 
  137400    293.16559   -1005.2409    149972.84   -47425.564    4025.9233   -51451.487    0.1582382 
  137600    297.81378   -1260.2757    150287.55   -47412.728    4089.7551   -51502.483   0.16081051 
  137800    296.36083   -978.38512    149925.74   -47390.737    4069.8023   -51460.539   0.15981461 
  138000    293.80991   -785.60853    149706.85   -47391.791    4034.7716   -51426.562   0.15448651 
  138200    294.46326   -1043.2994    150048.42   -47438.576    4043.7438    -51482.32   0.15841296 
  138400    294.82619   -1172.0404    150211.72   -47421.609    4048.7278   -51470.337   0.16465989 
  138600    296.52701   -935.03094    149897.92    -47440.32    4072.0844   -51512.405    0.1509201 
  138800    297.10773   -818.26888    149778.72   -47391.321    4080.0592    -51471.38   0.14923702 
  139000    298.60607   -1078.6971    150079.32   -47375.434    4100.6353   -51476.069   0.16165075 
  139200    297.03205   -1144.4083     150163.3    -47375.74    4079.0199    -51454.76    0.1625735 
  139400    296.20456   -939.00459    149853.23   -47407.414    4067.6564    -51475.07   0.15680953 
  139600    292.83758   -876.45901    149756.13    -47389.23     4021.419   -51410.649   0.15765631 
  139800    299.17183      -1060.7    150034.49   -47346.041    4108.4046   -51454.445   0.16092787 
  140000    297.15525   -1115.2167    150109.64   -47310.949    4080.7117   -51391.661   0.16280944 
  140200    293.64556    -931.5509    149856.53   -47355.952    4032.5146   -51388.466   0.15853198 
  140400    289.42865   -926.10266    149791.19   -47382.358    3974.6056   -51356.964   0.16487903 
  140600    295.21326   -1076.7901    150035.36   -47379.035    4054.0433   -51433.079   0.16224889 
  140800    297.21364   -1089.9163    150100.29   -47370.462    4081.5136   -51451.975   0.15773768 
  141000    293.32401   -907.87507    149834.01   -47411.685    4028.0989   -51439.784   0.15825975 
  141200    296.50448   -907.78712    149807.34   -47362.959     4071.775   -51434.734    0.1588486 
  141400    295.84962    -1137.588     150106.1   -47364.317    4062.7821   -51427.099   0.16494054 
  141600    298.00359   -1107.7321    150064.65   -47347.589    4092.3617   -51439.951   0.16981051 
  141800     292.5334   -868.49253    149761.49    -47405.22    4017.2418   -51422.462   0.16009033 
  142000    298.10007   -913.96225    149798.65   -47422.092    4093.6866   -51515.778    0.1564071 
  142200    297.30397   -1113.9648     150110.4   -47413.112    4082.7542   -51495.866   0.15837633 
  142400    296.01506   -1051.0152    150045.69   -47416.901    4065.0541   -51481.955   0.16043665 
  142600    295.99204   -880.42973    149714.13   -47412.922    4064.7379    -51477.66   0.15764031 
  142800    299.73657   -900.56948    149857.52   -47415.995      4116.16   -51532.155   0.15490533 
  143000    289.93273   -1231.6308    150201.31   -47473.863    3981.5278   -51455.391     0.162752 
  143200    289.98819   -1036.0635    149977.17   -47442.773    3982.2894   -51425.063   0.15539507 
  143400    298.85224   -772.29946    149634.61   -47412.156    4104.0158   -51516.172   0.15325863 
  143600    298.31032   -1012.3402    149946.01   -47397.533    4096.5738   -51494.107   0.16158661 
  143800    294.59281   -1252.1152    150291.28   -47403.354    4045.5228   -51448.877   0.16495199 
  144000     296.1264   -960.42253    149902.79   -47398.109    4066.5829   -51464.692   0.15158784 
  144200     292.3186   -733.30947    149619.84    -47375.68     4014.292   -51389.972   0.15282351 
  144400     292.4404   -1154.9841    150124.69   -47371.831    4015.9647   -51387.796   0.16476683 
  144600    295.87752   -1291.2945    150377.51   -47339.596    4063.1652   -51402.761   0.15952487 
  144800    303.30457   -841.87215    149762.25   -47318.674    4165.1579   -51483.832   0.15734725 
  145000    295.44791   -679.46882    149515.81   -47367.732    4057.2656   -51424.998    0.1594156 
  145200    291.89036    -1219.396    150307.66   -47388.064    4008.4112   -51396.475   0.15942091 
  145400    300.48598   -1432.6274    150516.56   -47388.588    4126.4514    -51515.04   0.16220581 
  145600     292.5725   -680.77752    149470.64   -47422.556    4017.7787   -51440.335   0.16197024 
  145800    291.58669   -538.09983    149330.06   -47440.765     4004.241   -51445.006   0.16132718 
  146000    292.82922   -1461.2545    150570.96   -47410.834    4021.3041   -51432.138   0.16870776 
  146200    292.77044   -1426.9283    150568.91   -47440.118     4020.497   -51460.615   0.16191216 
  146400    294.45348   -471.80944    149255.66   -47410.226    4043.6095   -51453.835   0.15698891 
  146600    299.92023   -589.53709    149442.64   -47374.796    4118.6822   -51493.478   0.15506705 
  146800    295.77487   -1514.2208    150661.15   -47310.622    4061.7556   -51372.378   0.16823457 
  147000    294.42492   -1348.7844    150394.38   -47328.966    4043.2172   -51372.183   0.17091195 
  147200    302.89687   -552.02166    149427.04   -47309.797    4159.5591   -51469.356   0.15315697 
  147400    290.73979   -853.19321    149733.27    -47374.88    3992.6109   -51367.491   0.15882556 
  147600    296.99662   -1340.9384    150440.21   -47376.091    4078.5334   -51454.625   0.16086773 
  147800    295.57687   -1094.4689    150103.41   -47423.783    4059.0366    -51482.82   0.16129454 
  148000    297.50192    -716.5374    149561.94   -47395.224    4085.4724   -51480.696   0.16048013 
  148200    297.66056   -959.44098     149894.6   -47435.018    4087.6511   -51522.669   0.15442067 
  148400    288.71784    -1307.964     150284.4   -47477.372    3964.8442   -51442.216   0.16391173 
  148600    297.92667   -979.60386    149911.85   -47452.045    4091.3053    -51543.35    0.1506013 
  148800    292.15612   -726.62099    149570.49   -47459.694    4012.0607   -51471.755    0.1563174 
  149000    290.92699   -1039.8551    149975.44   -47461.162    3995.1816   -51456.344   0.16398964 
  149200    292.34154   -1268.9829    150265.56    -47461.62     4014.607   -51476.227   0.16697918 
  149400    297.81552    -941.4653     149828.3    -47491.47     4089.779   -51581.249   0.15686318 
  149600    292.99126   -798.57042     149613.7   -47493.544    4023.5294   -51517.073    0.1511555 
  149800    295.15606    -1060.966     150045.4   -47473.633    4053.2578   -51526.891   0.15198988 
  150000    291.13892   -1230.1572    150231.78   -47428.034    3998.0919   -51426.126   0.16747683 
  150200     292.5232   -956.56815    149866.11   -47378.264    4017.1017   -51395.366   0.16412243 
  150400    295.99412   -842.38091    149734.58   -47350.252    4064.7665   -51415.018   0.16253859 
  150600    292.74891   -1120.2079    150085.18   -47396.513    4020.2013   -51416.714   0.16097546 
  150800     293.6498   -1149.5957     150160.1   -47356.215    4032.5729   -51388.788   0.16097367 
  151000    294.46891   -928.71788    149834.67   -47400.866    4043.8214   -51444.687   0.16348638 
  151200    295.38527   -847.19068    149784.35   -47388.245    4056.4053   -51444.651   0.15721412 
  151400    301.79403   -1119.8612    150113.96   -47295.002    4144.4143   -51439.417   0.15771414 
  151600    299.74936   -1114.1064    150158.33   -47279.243    4116.3356   -51395.578   0.16842856 
  151800    301.26959   -857.51771    149808.21   -47296.074    4137.2124   -51433.287   0.15169129 
  152000    299.69749   -897.86347    149813.73   -47298.302    4115.6233   -51413.925   0.15691693 
  152200    298.53853    -1173.494    150183.64   -47313.198    4099.7077   -51412.906   0.16421175 
  152400    298.20666   -1124.1856    150118.08   -47363.061    4095.1504   -51458.212    0.1656252 
  152600    299.90533   -815.33842    149750.95    -47336.88    4118.4774   -51455.357   0.15934054 
  152800    297.97616   -895.35847    149886.32   -47266.227     4091.985   -51358.212   0.15541953 
  153000    301.99874   -1188.3546    150270.95   -47331.775    4147.2254   -51479.001   0.16718772 
  153200    296.64995   -1047.7169    150051.26    -47274.59    4073.7726   -51348.363   0.16526316 
  153400    297.43941   -754.21464    149649.45   -47335.646     4084.614    -51420.26   0.15524902 
  153600    296.17596   -951.39744    149900.48   -47361.561    4067.2636   -51428.824   0.16192766 
  153800     296.5218    -1243.806    150299.16   -47384.542    4072.0128   -51456.555   0.16779684 
  154000    293.00043   -1025.8234    149987.83   -47403.848    4023.6553   -51427.503   0.16034799 
  154200    298.19706   -708.34175    149590.31    -47354.45    4095.0185   -51449.469   0.15011422 
  154400    297.61831   -1016.6448    149994.74   -47345.728    4087.0709   -51432.799   0.16179176 
  154600    292.09481   -1321.2826    150414.35   -47360.347    4011.2188   -51371.566   0.17300634 
  154800    290.35619   -963.81701    149915.76    -47383.96    3987.3431   -51371.303   0.16176724 
  155000    296.76933    -607.1179    149487.67   -47378.341    4075.4121   -51453.753   0.15469528 
[...]
  163200    294.43342   -1079.9974    150048.43   -47440.233     4043.334   -51483.567   0.15999495 
  163400    294.23643   -909.59081    149796.98    -47478.46    4040.6288   -51519.089   0.15299784 
  163600    292.69942   -931.36891    149815.24   -47427.076    4019.5216   -51446.598   0.15630181 
  163800    291.02471   -1134.8407    150084.18    -47483.72    3996.5236   -51480.243    0.1579474 
  164000    292.97585   -1061.9942    149979.95   -47502.118    4023.3178   -51525.436   0.15313436 
  164200    289.94521   -842.45523    149667.34   -47503.712    3981.6993   -51485.411   0.15502074 
  164400    293.06547   -967.85699    149852.35   -47443.533    4024.5486   -51468.082   0.15514599 
  164600    292.73632   -1202.3597    150214.21   -47414.947    4020.0285   -51434.976   0.15549492 
  164800    296.36721   -991.76118    149930.93   -47458.879      4069.89   -51528.769   0.15271218 
  165000     296.7064   -643.81086    149499.09   -47440.217    4074.5479   -51514.764    0.1491408 
  165200    290.56489   -1022.0045    150006.01   -47430.281     3990.209    -51420.49    0.1559637 
  165400    291.19764   -1440.3229    150574.04   -47448.874    3998.8983   -51447.772   0.16187154 
  165600    297.57539   -882.86393    149876.12   -47399.394    4086.4813   -51485.875   0.15304028 
  165800    295.72912   -573.24055    149357.72    -47431.72    4061.1274   -51492.847   0.15049488 
  166000    292.57224   -1098.0421    150162.04   -47379.666    4017.7752   -51397.441   0.15115698 
  166200    294.41622   -1453.7506    150618.48   -47401.247    4043.0978   -51444.345   0.15970399 
  166400    295.68061   -822.96697    149738.65   -47411.195    4060.4612   -51471.657   0.15484597 
  166600    297.87447   -540.25933     149370.9   -47410.163    4090.5885   -51500.751   0.15029347 
  166800    291.67485   -1240.3441    150244.23   -47459.571    4005.4517   -51465.022   0.16065806 
  167000    288.55871    -1391.687    150483.04    -47453.58     3962.659   -51416.239   0.16335762 
  167200    294.31217   -788.95145    149658.03   -47414.567     4041.669   -51456.236   0.15130219 
  167400    292.71752     -690.308    149542.02   -47461.745    4019.7702   -51481.515   0.14966752 
  167600    294.38773   -1247.2807    150269.31   -47433.827    4042.7066   -51476.534   0.16306554 
  167800    291.14882   -1290.0644    150272.67   -47502.521    3998.2279   -51500.749   0.15778423 
  168000    289.05608   -802.62376    149609.43   -47501.081    3969.4892    -51470.57   0.15210971 
  168200    290.85967   -827.17961    149676.53     -47498.4    3994.2572   -51492.657   0.14689991 
  168400    296.19284   -1238.1831    150275.78   -47445.961    4067.4955   -51513.457   0.15563608 
  168600    291.30707   -1160.3849    150151.76   -47458.706    4000.4011   -51459.107   0.16165436 
  168800    299.44189   -767.76413    149650.48   -47507.361    4112.1133   -51619.474   0.14548646 
  169000    290.37479   -925.82392     149779.2   -47490.642    3987.5985    -51478.24   0.15805992 
  169200    291.77793   -1151.7694    150185.25    -47454.02    4006.8673   -51460.888   0.15293996 
  169400    287.72598   -1007.9543    150058.15   -47481.055    3951.2234   -51432.278   0.15072706 
  169600    293.36664   -827.41095    149721.24   -47497.489    4028.6843   -51526.173   0.14877167 
  169800    293.59996   -907.18378    149874.41   -47501.131    4031.8885    -51533.02    0.1484017 
  170000     287.4887   -1169.5515     150142.4   -47535.852     3947.965   -51483.817   0.15645104 
  170200    295.97191   -966.79472    149928.69   -47549.374    4064.4614   -51613.835    0.1478027 
  170400    295.01523   -846.40954    149703.84   -47522.963    4051.3237   -51574.287   0.14652439 
  170600    289.56054   -1005.3989    149950.22   -47499.314    3976.4167   -51475.731   0.14858283 
  170800    294.39934   -1158.8766    150121.82    -47522.38     4042.866   -51565.246   0.15328161 
  171000     292.1134   -932.00314    149884.74   -47524.533     4011.474   -51536.007   0.15289322 
  171200    290.39471   -880.64555    149712.92   -47553.728     3987.872     -51541.6   0.15319868 
  171400    289.14536   -1051.1565    149932.08   -47546.564    3970.7152    -51517.28   0.14792191 
  171600    289.51007   -1105.8124    150077.77   -47507.002    3975.7237   -51482.726    0.1501281 
  171800     293.4511   -990.92636    149875.35   -47488.759    4029.8442   -51518.603   0.15147905 
  172000    290.93708   -928.68444    149762.64   -47495.281    3995.3202   -51490.602   0.15473405 
  172200    287.19973   -1008.2557    149916.13   -47498.543    3943.9967    -51442.54   0.15778669 
  172400    290.49869   -1069.2748    150024.89   -47465.396    3989.2999   -51454.696   0.15235041 
  172600     296.7337     -957.833    149915.15   -47451.327    4074.9228    -51526.25   0.14525203 
  172800    293.16043   -896.04829    149852.65   -47460.478    4025.8526    -51486.33   0.14715367 
  173000     292.8092   -1059.8201    150017.31   -47477.901    4021.0293   -51498.931   0.15553218 
  173200    288.97316   -1106.0811    150048.37   -47514.741    3968.3505   -51483.091    0.1549059 
  173400    293.34043   -914.20422     149839.2   -47503.134    4028.3244   -51531.458   0.14659115 
  173600    294.68019   -885.39882    149854.31   -47454.457    4046.7227    -51501.18   0.14598988 
  173800    292.42931   -1148.9331    150161.28   -47451.173    4015.8124   -51466.986   0.15027225 
  174000    288.87466    -1127.675    150104.75   -47413.437    3966.9978   -51380.435   0.16020622 
  174200    297.45637   -789.75963    149710.36   -47413.867    4084.8469   -51498.713   0.14801295 
  174400     295.7788   -894.48605    149802.95   -47396.033    4061.8095   -51457.843   0.15174893 
  174600    293.46047   -1230.9666    150308.35   -47399.091    4029.9728   -51429.064   0.15078378 
  174800    299.19034   -1125.7774    150138.51   -47365.625    4108.6589   -51474.284   0.15424411 
  175000    296.33698   -686.16777    149541.21   -47422.523    4069.4748   -51491.998   0.15061725 
  175200    291.95724   -909.42051    149841.95     -47416.5    4009.3296    -51425.83   0.15288397 
  175400    292.65323   -1424.1967    150539.62   -47414.253    4018.8874    -51433.14   0.16068984 
  175600    290.31955   -1067.8152    150090.82   -47433.054    3986.8399   -51419.894   0.15660661 
  175800    293.92485   -509.67789    149361.92    -47425.97      4036.35    -51462.32   0.14675376 
  176000    294.65392   -938.44865    149901.98   -47408.465     4046.362   -51454.827   0.15166928 
  176200    300.51838   -1455.4902    150621.48   -47344.593    4126.8963   -51471.489   0.16063455 
  176400    294.04511   -1059.5021     150062.1   -47393.217    4038.0014   -51431.219   0.15578197 
  176600    294.88138    -535.2633    149411.91   -47380.878    4049.4857   -51430.363   0.15202399 
  176800    296.21469   -991.31582    149989.09   -47382.963    4067.7955   -51450.758    0.1554242 
  177000    292.11877   -1399.9004    150503.57   -47388.526    4011.5478   -51400.073   0.16286703 
  177200    290.79722   -941.35681    149911.26   -47412.505    3993.3995   -51405.905   0.15435081 
  177400    292.38292   -669.67493    149515.37   -47509.572    4015.1753   -51524.747   0.14780115 
  177600    288.49409   -1084.5804    150064.58   -47466.931    3961.7716   -51428.702   0.16174382 
  177800    292.50673    -1284.991    150348.98   -47439.989    4016.8756   -51456.865    0.1594927 
  178000     291.7585   -870.00067    149789.33    -47405.98    4006.6005    -51412.58   0.15228646 
  178200    293.64576   -771.65554     149613.8   -47445.211    4032.5174   -51477.728   0.15056104 
  178400    292.73075   -1199.8846    150170.07   -47413.209    4019.9519   -51433.161   0.15716902 
  178600    293.29853   -1244.9012     150276.2   -47426.656    4027.7491   -51454.405     0.162134 
  178800    290.32679    -854.4446    149761.29   -47402.493    3986.9394   -51389.433   0.15538905 
  179000    299.62361   -813.50556    149733.06    -47378.29    4114.6088   -51492.899   0.14925807 
  179200    295.40347   -1192.6981    150218.65   -47395.174    4056.6553   -51451.829   0.15229047 
  179400    296.14695   -1074.5269    150186.18   -47366.963    4066.8652   -51433.828   0.15754976 
  179600    291.70677   -862.08084    149782.71   -47379.552      4005.89   -51385.442   0.15925343 
  179800    297.43398   -908.31886     149848.7   -47410.278    4084.5395   -51494.817   0.15240187 
  180000    299.30946   -1138.8237    150205.33   -47371.636    4110.2947   -51481.931    0.1522222 
  180200     295.9656   -1069.7517    150123.48    -47332.26    4064.3748   -51396.635   0.15545877 
  180400    300.75635   -848.63537    149805.34   -47292.254    4130.1642   -51422.419   0.15492354 
  180600    295.53415   -927.48508     149921.2   -47381.158    4058.4499   -51439.607   0.15232721 
  180800    299.27604   -1139.2765    150181.22   -47341.929    4109.8358   -51451.765   0.15700628 
  181000    293.83322   -1001.3995    150012.05   -47385.364    4035.0917   -51420.456   0.15520583 
  181200    297.69816   -778.97288    149758.35   -47372.173    4088.1673    -51460.34   0.15057188 
  181400    294.78504   -1023.7776    149941.28   -47409.187    4048.1627    -51457.35   0.15565639 
  181600    296.48746   -1113.9666    150115.27   -47427.318    4071.5414   -51498.859   0.15568556 
  181800    294.42416   -989.94734    149909.35   -47400.576    4043.2069   -51443.783   0.15671072 
  182000    293.24752   -892.04922    149750.83   -47410.916    4027.0485   -51437.964   0.15440155 
  182200    288.68643   -1025.3061    149952.28   -47423.099    3964.4129   -51387.512   0.15615067 
  182400     294.1484   -1106.0855    150069.61   -47422.766    4039.4199   -51462.186   0.15605648 
  182600    292.38282   -967.14548    149891.88   -47388.387    4015.1739   -51403.561   0.15553259 
  182800    297.19557   -916.23844    149856.72   -47353.285    4081.2655   -51434.551   0.15297393 
  183000    296.30284   -1072.7836    150075.76   -47350.037     4069.006   -51419.043   0.15942677 
  183200    295.77625   -1078.3971    150104.61   -47330.147    4061.7746   -51391.922    0.1631353 
  183400    301.94788   -972.16057    149903.33   -47341.828     4146.527   -51488.355   0.15864758 
  183600    292.75937   -955.63976    149879.47   -47371.986    4020.3449   -51392.331   0.15609789 
  183800    291.61926   -1088.2193    150074.17   -47402.233    4004.6883   -51406.922   0.15527565 
  184000    292.80675   -1048.8865    150065.11   -47415.049    4020.9955   -51436.044   0.15446049 
  184200    296.41755   -899.78689    149851.64    -47461.66    4070.5812   -51532.241   0.15324212 
  184400    289.43468   -919.45711    149837.06   -47471.687    3974.6884   -51446.375   0.15172963 
  184600      289.565   -1084.2177    150081.82   -47475.994     3976.478   -51452.472   0.15185768 
  184800     293.4655   -1075.9555    150087.26   -47463.532    4030.0419   -51493.574   0.15392173 
  185000     294.0143   -855.58004    149802.57   -47458.642    4037.5784   -51496.221   0.14957442 
  185200    292.51113   -929.20576    149823.03   -47517.832    4016.9359   -51534.768   0.15138643 
  185400    292.98624   -1137.0804     150133.6   -47491.916    4023.4605   -51515.377   0.15303596 
  185600    295.20321   -1114.2569    150122.17   -47494.619    4053.9051   -51548.524   0.15089074 
  185800    291.49074   -836.30187    149732.94   -47444.415    4002.9234   -51447.338   0.14789465 
  186000    294.25296   -891.28249    149770.43   -47431.902    4040.8558   -51472.758   0.15014958 
  186200    297.42469   -1191.4884     150218.7   -47416.465    4084.4119   -51500.877   0.15570691 
  186400    297.07509   -1098.8001    150152.14   -47365.582     4079.611   -51445.193   0.15293353 
  186600    297.36882    -794.5827    149669.24   -47406.684    4083.6446   -51490.328   0.14989235 
  186800    300.41598   -886.74268    149785.93    -47433.09    4125.4901    -51558.58   0.14964989 
  187000    300.71102   -1228.4666    150312.64   -47395.076    4129.5417   -51524.618   0.15311114 
  187200    292.18992   -1164.4131    150161.64   -47415.182    4012.5249   -51427.707   0.15490395 
  187400    293.43033   -704.67426    149600.56   -47408.734     4029.559   -51438.293   0.14883198 
  187600    295.14128   -919.75693    149790.58   -47448.329    4053.0548   -51501.383   0.15001974 
  187800    292.04393   -1300.3497     150324.5   -47427.315    4010.5201   -51437.835   0.15844566 
  188000    291.09591   -1102.6553    150073.28   -47403.901    3997.5014   -51401.402   0.15283138 
  188200    298.15084    -612.7429    149539.44    -47401.63    4094.3838   -51496.014   0.14364266 
  188400    296.16688   -940.01128     149857.2   -47385.912     4067.139   -51453.051   0.15266883 
  188600    298.31239   -1332.8897    150357.68   -47383.227    4096.6023    -51479.83   0.15802344 
  188800    292.22225   -1013.8861     149979.4   -47401.237    4012.9689   -51414.206   0.15247207 
  189000    292.02673   -690.18971    149524.42   -47400.796    4010.2839    -51411.08   0.15379941 
  189200    293.64099   -985.53351    149995.11   -47399.745    4032.4518   -51432.197   0.15103121 
  189400    297.08518   -1329.3628    150437.79   -47354.012    4079.7496   -51433.761   0.15773814 
  189600    296.48777   -965.08462    149887.04   -47376.774    4071.5455   -51448.319   0.15126321 
  189800     294.8276   -693.04067    149466.19   -47421.902    4048.7471   -51470.649   0.15126656 
  190000    294.70446    -1088.832    150022.84   -47446.846    4047.0561   -51493.902   0.15499013 
  190200    287.61114    -1332.063    150356.35   -47412.921    3949.6464   -51362.567   0.16007469 
  190400    297.20106   -916.86325    149797.42   -47420.818    4081.3408   -51502.158   0.15296726 
  190600    300.83068   -743.58204    149552.78   -47367.956     4131.185   -51499.141   0.15298574 
  190800    297.52175   -1104.2027    150087.29    -47392.42    4085.7448   -51478.165   0.15537938 
  191000    295.19021   -1256.1367    150238.02   -47401.991    4053.7267   -51455.718   0.16004351 
  191200     298.6578   -859.69816    149712.53   -47403.901    4101.3456   -51505.247    0.1534154 
  191400    297.75186   -746.60864    149649.63   -47430.297    4088.9048   -51519.201   0.14699035 
  191600    299.69884   -1117.0498    150159.56   -47379.018    4115.6418    -51494.66   0.15523517 
  191800    292.25927   -1165.1533    150205.15   -47411.838    4013.4773   -51425.315   0.15594823 
  192000    292.57192   -837.12542    149751.61   -47419.351    4017.7708   -51437.122   0.15042026 
  192200    293.78833   -818.99289    149772.13   -47388.768    4034.4753   -51423.243   0.15334984 
  192400    291.23468   -1170.8281    150195.77   -47390.627     3999.407   -51390.034   0.15885348 
  192600    295.70279   -1122.6096    150135.71   -47421.564    4060.7657    -51482.33   0.15516663 
  192800    295.93254   -825.02469    149757.03   -47403.462    4063.9208   -51467.383    0.1509498 
  193000    292.55988   -909.03959     149853.7    -47392.91    4017.6054   -51410.516   0.15667044 
  193200    299.98894   -1105.5917    150160.48   -47341.625    4119.6256   -51461.251   0.15180592 
  193400    302.00979   -1022.3956    150052.14   -47345.502    4147.3772   -51492.879   0.15272666 
  193600    297.43601   -866.02905    149809.31   -47361.021    4084.5673   -51445.588   0.15072714 
  193800    299.01071   -967.68448    149897.49   -47410.861    4106.1921   -51517.053   0.15320276 
  194000    293.94836   -1148.5206    150064.66   -47433.706    4036.6728   -51470.379   0.15938875 
  194200    296.26787   -997.41402    149928.04   -47420.663    4068.5258   -51489.188    0.1561975 
  194400    290.19775   -924.09832     149783.8   -47401.935    3985.1672   -51387.102   0.15862924 
  194600    294.05414   -987.56823    149935.43    -47425.66    4038.1255   -51463.786   0.15464959 
  194800    292.68231    -1136.635    150062.09   -47408.434    4019.2868   -51427.721   0.15916505 
  195000    297.50962   -987.15051     149891.2   -47393.621    4085.5782   -51479.199   0.15734568 
  195200    292.96172   -854.30922    149788.43   -47380.628    4023.1238   -51403.752   0.15397468 
  195400    294.95055   -1070.2823    149995.33   -47380.131    4050.4355   -51430.566   0.15594563 
  195600    297.64097   -1129.7578       150107    -47383.63     4087.382   -51471.012   0.15832481 
  195800    296.51526   -895.12469    149892.72   -47431.582    4071.9231   -51503.505   0.15026632 
  196000    293.31484   -889.44265    149805.06   -47403.565     4027.973   -51431.538   0.15822033 
  196200    293.09537   -1071.3282    150054.09   -47387.161    4024.9591    -51412.12   0.16079636 
  196400    297.06964   -1120.5216    150125.64   -47386.574    4079.5361    -51466.11   0.15679417 
  196600    296.50829   -902.29618    149853.54   -47457.186    4071.8274   -51529.013   0.14925432 
  196800     291.5197   -859.76385    149766.87   -47450.117    4003.3211   -51453.438   0.15119988 
  197000    296.30312   -1054.1721    150043.08   -47456.222    4069.0098   -51525.232   0.15492508 
  197200    289.44779   -1175.3675    150114.46   -47511.361    3974.8684   -51486.229   0.15714299 
  197400    292.78654   -922.39149    149798.01   -47473.364    4020.7181   -51494.082    0.1562507 
  197600    297.15333   -844.73883    149805.73   -47385.585    4080.6854   -51466.271   0.15155187 
  197800    291.86119   -1139.7721    150249.73   -47365.904    4008.0106   -51373.915   0.15376731 
  198000    297.07434   -1114.5311    150207.89   -47396.498    4079.6007   -51476.098   0.15699823 
  198200    297.43773   -821.98461    149715.43   -47429.479     4084.591    -51514.07   0.15287037 
  198400    298.11456   -834.58942    149771.89   -47355.603    4093.8856   -51449.489   0.15562936 
  198600    297.96312   -1233.5486    150267.52   -47338.974     4091.806    -51430.78   0.16095719 
  198800    298.88168   -1155.8691    150184.18   -47372.622    4104.4202   -51477.042   0.15640355 
  199000    298.33263   -767.27969    149656.76   -47386.464    4096.8803   -51483.345   0.15044445 
  199200    296.37132   -868.35294    149796.45   -47379.187    4069.9463   -51449.134   0.15363688 
  199400    296.67921   -1256.8188    150293.16    -47381.99    4074.1746   -51456.165   0.16275619 
  199600    285.84366   -1117.6537    150090.39   -47407.115    3925.3743   -51332.489    0.1646138 
  199800    293.50099   -780.96389    149616.11   -47392.264    4030.5293   -51422.793   0.15133837 
  200000    295.98787   -922.84669     149849.8   -47410.152    4064.6806   -51474.833   0.15377718 
Loop time of 105.221 on 6 procs for 200000 steps with 4608 atoms

Performance: 821.129 ns/day, 0.029 hours/ns, 1900.762 timesteps/s
97.9% CPU use with 6 MPI tasks x no OpenMP threads

MPI task timing breakdown:
Section |  min time  |  avg time  |  max time  |%varavg| %total
---------------------------------------------------------------
Pair    | 74.613     | 75.087     | 76.073     |   5.4 | 71.36
Neigh   | 10.542     | 10.887     | 11.3       |   9.1 | 10.35
Comm    | 8.4002     | 9.2604     | 10.062     |  17.7 |  8.80
Output  | 3.0176     | 3.0187     | 3.0227     |   0.1 |  2.87
Modify  | 5.6309     | 5.6981     | 5.7631     |   1.9 |  5.42
Other   |            | 1.27       |            |       |  1.21

Nlocal:        768.000 ave         773 max         757 min
Histogram: 1 0 0 0 0 0 2 0 1 2
Nghost:        1389.83 ave        1408 max        1382 min
Histogram: 2 2 0 0 0 1 0 0 0 1
Neighs:        0.00000 ave           0 max           0 min
Histogram: 6 0 0 0 0 0 0 0 0 0
FullNghs:      21842.7 ave       22015 max       21543 min
Histogram: 1 0 0 0 0 1 1 1 1 1

Total # of neighbors = 131056
Ave neighs/atom = 28.440972
Neighbor list builds = 12784
Dangerous builds = 0
write_data		data.${NAME}
write_data		data.ice_295K_-1000atm_ML
System init for write_data ...
Total wall time: 0:02:35
