
# Import phase coexistance setup
#
read_data           data.coexist_${TEMP}K_${PRES}atm_ML
read_data           data.coexist_295K_${PRES}atm_ML
read_data           data.coexist_295K_-1000atm_ML
Reading data file ...
  orthogonal box = (-0.19804582 -0.24482132 -0.24482132) to (104.58586 51.315060 51.315060)
  3 by 1 by 2 MPI processor grid
  reading atoms ...
  8543 atoms
  reading velocities ...
  8543 velocities
  read_data CPU = 0.044 seconds

# Define potential
#
pair_style 	    sw
pair_coeff	    * * /data/emrosky-sim/Freezing_Simulations/Melting/MLmW_fancy/ML_mW.sw mW
Reading sw potential file /data/emrosky-sim/Freezing_Simulations/Melting/MLmW_fancy/ML_mW.sw with DATE: 2019-02-27

# Reset velocity/set timestep
#
velocity	    all create ${TEMP} 120598 rot yes dist gaussian
velocity	    all create 295 120598 rot yes dist gaussian
timestep	    10.0

# Define output
#
compute	            1 all msd
compute             2 all orientorder/atom nnn NULL degrees 2 4 12
thermo              1000
thermo_style        custom step temp press vol etotal ke pe c_1[4]

# Neighbor lists
#
neigh_modify        delay 0 every 1 check yes

# Set fixes
#
fix                 1 all momentum 10 linear 1 1 1 rescale
fix                 2 all nph iso ${PRES} ${PRES} ${PCOUPL}
fix                 2 all nph iso -1000 ${PRES} ${PCOUPL}
fix                 2 all nph iso -1000 -1000 ${PCOUPL}
fix                 2 all nph iso -1000 -1000 10000.0
fix                 3 all temp/csvr ${TEMP} ${TEMP} ${TCOUPL} 837492
fix                 3 all temp/csvr 295 ${TEMP} ${TCOUPL} 837492
fix                 3 all temp/csvr 295 295 ${TCOUPL} 837492
fix                 3 all temp/csvr 295 295 5000.0 837492

# Run very short equilibration
#
dump		    1 all atom 50 eq.${NAME}.dump
dump		    1 all atom 50 eq.melt_295K_-1000atm_ML.dump
run	            500
Neighbor list info ...
  update every 1 steps, delay 0 steps, check yes
  max neighbors/atom: 2000, page size: 100000
  master list distance cutoff = 6.0032907
  ghost atom cutoff = 6.0032907
  binsize = 3.0016454, bins = 35 18 18
  2 neighbor lists, perpetual/occasional/extra = 1 1 0
  (1) pair sw, perpetual
      attributes: full, newton on
      pair build: full/bin/atomonly
      stencil: full/bin/3d
      bin: standard
  (2) compute orientorder/atom, occasional, copy from (1)
      attributes: full, newton on
      pair build: copy
      stencil: none
      bin: none
Per MPI rank memory allocation (min/avg/max) = 4.598 | 4.599 | 4.601 Mbytes
Step Temp Press Volume TotEng KinEng PotEng c_1[4] 
       0          295    -965.6898    278559.77   -76005.655    7511.3134   -83516.968            0 
     500    340.56635   -549.63071    274509.66   -77748.307    8671.5276   -86419.834    15.086158 
Loop time of 1.14123 on 6 procs for 500 steps with 8543 atoms

Performance: 378.540 ns/day, 0.063 hours/ns, 438.124 timesteps/s
99.1% CPU use with 6 MPI tasks x no OpenMP threads

MPI task timing breakdown:
Section |  min time  |  avg time  |  max time  |%varavg| %total
---------------------------------------------------------------
Pair    | 0.39268    | 0.63693    | 0.91382    |  26.5 | 55.81
Neigh   | 0.12944    | 0.14892    | 0.16053    |   3.6 | 13.05
Comm    | 0.030655   | 0.31913    | 0.58275    |  39.5 | 27.96
Output  | 0.0076957  | 0.0082328  | 0.0087474  |   0.4 |  0.72
Modify  | 0.023027   | 0.023478   | 0.024095   |   0.3 |  2.06
Other   |            | 0.004533   |            |       |  0.40

Nlocal:        1423.83 ave        1443 max        1402 min
Histogram: 2 0 0 0 0 0 2 0 1 1
Nghost:        2010.33 ave        2045 max        1970 min
Histogram: 1 0 1 0 0 1 1 1 0 1
Neighs:        0.00000 ave           0 max           0 min
Histogram: 6 0 0 0 0 0 0 0 0 0
FullNghs:      39721.7 ave       40094 max       39014 min
Histogram: 1 0 0 0 0 0 1 2 1 1

Total # of neighbors = 238330
Ave neighs/atom = 27.897694
Neighbor list builds = 85
Dangerous builds = 0

reset_timestep      0
undump              1
unfix               2
unfix               3


################################################
#######         Run Simulation         #########
################################################

log                 log.run_${NAME}
log                 log.run_melt_295K_-1000atm_ML
