LAMMPS data file via write_data, version 29 Oct 2020, timestep = 200000

4608 atoms
1 atom types

0.40679473142582623 56.86371526857337 xlo xhi
0.3615953168222461 50.54552468317998 ylo yhi
0.3615953168222461 50.54552468317998 zlo zhi

Masses

1 18.015

Atoms # atomic

5 1 1.851861685568445 1.4787364700848387 2.4536825302257004 0 0 0
3 1 3.438219350543034 50.188173996118344 3.8568805557636887 0 -1 0
13 1 8.363136947671734 1.7946637112569968 2.1249758994342756 0 0 0
21 1 14.449957250573256 1.7959018976660608 1.6300548389387888 0 0 0
529 1 0.49079031585142646 37.47746963350193 12.677792270277164 0 0 0
92 1 16.161100683947073 22.27305344631597 0.3933446872181407 0 0 0
27 1 3.370847797561486 6.196360086027158 3.680811025540915 0 0 0
10 1 6.657787771106554 3.5352457514480564 3.6444113435271666 0 0 0
8 1 5.116015629104832 4.959957919327047 1.826364129726435 0 0 0
601 1 0.4516863037295688 6.307345624260737 19.166201260623698 0 0 0
35 1 9.756400422876364 6.545444457929776 3.930630839470118 0 0 0
16 1 11.0713703612016 4.603543889235601 2.471324383240157 0 0 0
18 1 13.2211924861995 3.365646226884651 3.38225440324502 0 0 0
43 1 16.532142460197402 6.802534238423916 3.355560261637599 0 0 0
24 1 17.778211655816346 4.874689027941474 1.8941389693188897 0 0 0
29 1 2.228605266129274 7.985116899997184 2.077510305245111 0 0 0
2449 1 19.037856765741633 37.8658543996717 25.32081403285835 0 0 0
34 1 6.537296516462008 9.603022359442765 3.6098670265015818 0 0 0
37 1 8.422332201178033 8.10530391480657 1.876945103878212 0 0 0
45 1 14.56527286743941 8.123241132512856 1.803236216015297 0 0 0
42 1 12.990801938057306 9.395686253653663 3.5343133762216685 0 0 0
57 1 6.622631433029214 12.803817218085118 0.8210740309503656 0 0 0
51 1 3.106346052371521 12.888031939871224 3.660389454109337 0 0 0
762 1 13.308922778256468 47.681085271236775 22.128638923980755 0 0 0
32 1 5.0568162142703486 11.495074822919516 2.3570349428961883 0 0 0
161 1 12.906590945883455 38.17596329290879 0.42584142729751945 0 0 0
59 1 9.871186776906738 12.813285363018256 3.7415687651383003 0 0 0
40 1 11.382305305145342 10.970749307142542 2.4213331088121883 0 0 0
602 1 0.48624248514457513 9.986897437111514 22.4607527676396 0 0 0
48 1 17.601130513936265 11.107226398024704 1.9619358568135217 0 0 0
67 1 16.234601350798435 12.82462347036273 3.2473551808258083 0 0 0
53 1 1.5280351024860053 14.334516910721025 2.276931297667815 0 0 0
924 1 9.8191886978887 40.9502194565339 24.685285685803425 0 0 0
900 1 10.003341568952326 34.69798184198224 25.392121306196017 0 0 0
58 1 6.453048245588903 15.750630844222853 3.694199041558696 0 0 0
61 1 8.299783712711807 14.48894537181325 2.0843379194750122 0 0 0
841 1 0.8698269801821308 19.556357468300636 25.421638073229985 0 0 0
69 1 14.397158043555752 14.613208973120038 1.865861616767428 0 0 0
66 1 13.025787871683328 16.044991276113908 3.645468203681077 0 0 0
650 1 0.48262988149994757 22.488426931416235 22.352736915551287 0 0 0
52 1 3.085962814497173 15.955733541082266 0.41398706271031604 0 0 0
75 1 3.449447494215972 19.043886410341095 3.6579667842891084 0 0 0
137 1 13.278609152264892 31.863325495735076 0.7697601395905225 0 0 0
56 1 4.67942206559825 17.21009071167993 2.2601789018488794 0 0 0
905 1 13.135923819884601 31.752638129876015 25.12528549369545 0 0 0
64 1 11.197433151822048 17.350534389039904 2.3976401179246634 0 0 0
83 1 9.152639487434737 19.110134297609235 3.562813875278708 0 0 0
857 1 12.868035203927878 19.109831437427566 25.371861720845274 0 0 0
766 1 14.77833628653251 49.22207160634143 23.439037628672722 0 0 0
72 1 17.701666953231467 17.354253002153897 1.9373897904058721 0 0 0
91 1 16.12758860069392 18.845780391893634 3.61661444171963 0 0 0
77 1 2.2605384337109644 20.739853563969774 1.8608714149246004 0 0 0
4 1 3.3565951441759103 3.0967434515532606 0.6589894497933075 0 0 0
82 1 6.5927446274621015 22.226268896446378 3.601167455601636 0 0 0
80 1 5.309152530166812 23.924171547607287 1.9351011080089804 0 0 0
85 1 7.941030744608092 20.625759552164354 2.0475453534991974 0 0 0
93 1 14.45835794560943 20.75888582731482 2.1633791610866706 0 0 0
90 1 12.554450903076605 22.296014564375373 3.467468941986263 0 0 0
96 1 17.865272598468138 24.039780146842695 2.053899379204935 0 0 0
164 1 16.11976389957509 41.08166736120312 0.47327221196512526 0 0 0
99 1 3.451868582465674 25.32648790585678 3.303263461437723 0 0 0
101 1 1.8856323929084435 27.183419845997232 2.0645918965061503 0 0 0
109 1 8.438711242099448 26.913590217797815 2.0335583519594342 0 0 0
88 1 11.228749074980511 24.190274299668058 2.228011935669842 0 0 0
107 1 9.531956420355062 25.508293601538412 3.8805377565211527 0 0 0
117 1 14.304102270181104 27.15187601490197 2.0696572353761757 0 0 0
74 1 0.7553908877891032 22.48506451322006 3.5223932067844923 0 0 0
115 1 15.831946393514674 25.484079151263288 3.37388121081669 0 0 0
44 1 16.088581032885735 9.69561891631052 0.5647485190017805 0 0 0
106 1 6.795841981315664 28.763269003525995 3.183287273435568 0 0 0
104 1 5.0580372489930525 30.373900531592767 2.2081989104520483 0 0 0
112 1 11.336478789682918 30.42800271788934 2.231990829824598 0 0 0
788 1 16.30917177430005 3.8521126736517615 25.18928718294303 0 0 0
114 1 13.043277987524066 28.582725618088894 3.8356476558536405 0 0 0
120 1 17.567659202611335 30.076965729001575 2.0695521161130737 0 0 0
889 1 0.700986400737508 31.818337041939927 25.27105573774882 0 0 0
100 1 3.5218702168291975 28.95748644191135 0.6190847567200406 0 0 0
123 1 3.524392997876853 31.764834819633172 3.926161632189999 0 0 0
125 1 2.2333241784762317 33.222635342800025 2.50857350777336 0 0 0
892 1 3.560280991387167 35.1275087093731 25.29495844710087 0 0 0
133 1 8.035809345311417 33.34509388650291 2.1299235636393217 0 0 0
131 1 10.060907111242264 31.803767029491024 3.6530869527007384 0 0 0
141 1 14.726280582376413 33.51222253359255 2.0338160527054385 0 0 0
139 1 16.225771103871015 31.725447141110713 3.5741299255421106 0 0 0
121 1 0.46554993987003 31.81043328574551 0.759978713259486 0 0 0
113 1 12.806600190737575 25.777460455591612 0.685032345715431 0 0 0
128 1 5.260729709983163 36.42590350170053 2.0425325466009414 0 0 0
130 1 6.532487345177625 34.880895207769775 3.6681146399810785 0 0 0
136 1 11.38712715491447 36.4611370989951 2.206341909764432 0 0 0
60 1 9.84484920016896 15.992848595382997 0.4893159191942589 0 0 0
138 1 13.508850291681243 35.067835620704955 3.9009963347416274 0 0 0
144 1 17.907200561293926 36.249723776213834 1.956349956261747 0 0 0
149 1 1.5450573462606563 39.45814601014009 2.0328478310148155 0 0 0
147 1 3.3988208549955545 38.05840496028102 3.6913343314413956 0 0 0
758 1 8.423259516234832 48.95575752514967 23.486279091795502 0 0 0
434 1 0.4527959719414554 15.744611684250224 16.223113499739114 0 0 0
157 1 8.216420393292967 39.40141463690152 1.7543041550463272 0 0 0
155 1 9.818796800378173 37.67441582143554 3.712190437536031 0 0 0
165 1 14.467028682458729 39.667629586445265 1.8272373878589951 0 0 0
921 1 6.792011645591027 37.90850814581837 24.87650942811209 0 0 0
163 1 16.12005733329957 38.051016160386986 3.2431814091420024 0 0 0
152 1 5.041228835279323 42.89260985886595 1.437083854483154 0 0 0
154 1 6.389274437338502 40.808157251302866 3.146456241568317 0 0 0
160 1 11.040022718349048 42.68261399346555 1.5662047742497902 0 0 0
162 1 12.603862426470899 41.145459730009385 3.235392376511822 0 0 0
168 1 17.519690076121442 42.61005927783066 2.067207455651478 0 0 0
804 1 9.931020398372137 9.717907937124803 25.229301928353006 0 0 0
173 1 1.9422572094752635 45.89516524854502 1.726234917608343 0 0 0
171 1 3.557060141816722 44.2877631657561 3.1853913733454564 0 0 0
181 1 8.36041778988718 46.26637356187131 1.6932951209289275 0 0 0
825 1 6.82395035109867 13.216201258429262 25.24991479104695 0 0 0
179 1 9.766793736412653 44.294908745065875 2.8781173962968714 0 0 0
189 1 14.525765646486914 45.69584541837463 1.8882814691827194 0 0 0
187 1 16.088971395508487 44.25290974844109 3.544517502644664 0 0 0
172 1 3.8044654193307883 47.20258255219865 0.5495978640469188 0 0 0
124 1 3.498287346893026 34.99918308723734 0.9077574302527217 0 0 0
176 1 5.182512145676068 48.71157676446693 2.0177674630299576 0 0 0
11 1 9.801343902811515 50.48610167875505 3.4638784930847373 0 -1 0
184 1 11.067253702770012 48.91790684875498 1.6121863563026186 0 0 0
897 1 6.706772575412752 32.06147514190357 25.39709931856495 0 0 0
186 1 13.07643712087984 47.88128518087637 2.9357542705310107 0 0 0
19 1 16.045468813592183 50.54195948715852 3.5269323786755327 0 -1 0
192 1 17.35616533745123 48.97927648024607 1.8999291262947062 0 0 0
196 1 3.340135916123625 3.358246450917644 6.487251161475496 0 0 0
7 1 5.08971545705879 1.806408450177591 5.348568494105176 0 0 0
201 1 6.6296763646914 0.45591973031894434 7.011414891576451 0 0 0
15 1 11.08369777481577 2.117897338497916 4.811767013070752 0 0 0
209 1 12.442552176078197 0.5044467501479037 6.597141033808845 0 0 0
23 1 17.648494963762282 2.1787447162982487 4.744083199482192 0 0 0
212 1 16.115316152302995 3.6518589816088536 6.629149808283702 0 0 0
6 1 1.9679861629585798 4.915491844750547 5.277718351260918 0 0 0
649 1 0.44931308609577625 18.93678515551319 19.14746481526996 0 0 0
225 1 6.640223745393584 6.585115801862265 6.772865773129597 0 0 0
14 1 8.330255229509774 4.778722797664182 5.350593057856432 0 0 0
204 1 9.993400031829358 3.378903853877154 6.95071347836391 0 0 0
22 1 14.882171719068985 5.0858880887821485 4.9338575497860155 0 0 0
233 1 13.173017298122119 6.711799715806736 6.406986707848127 0 0 0
220 1 3.353328222336216 9.932547187153622 6.706207012262391 0 0 0
31 1 4.587540427161229 8.332366087185562 5.141338186434397 0 0 0
228 1 9.795542228015483 9.978277003503553 6.891520804605612 0 0 0
39 1 10.994058298013936 8.327018208912477 5.181153942785748 0 0 0
236 1 16.091997234530645 9.904815649744801 6.3454463030204415 0 0 0
47 1 17.848790930776783 8.206189667342365 5.218057255030328 0 0 0
30 1 1.671148227088141 11.234463329167642 5.312470442044817 0 0 0
553 1 0.44054286648045815 44.16038243733097 12.648546409790157 0 0 0
249 1 6.728405067475284 13.109201570144489 7.125962126896233 0 0 0
38 1 7.87726239870264 11.295297612187845 5.494023819111702 0 0 0
46 1 14.553598788770312 11.50167039221317 4.739318485711112 0 0 0
257 1 12.987180565534386 12.933524379362838 6.464113220009691 0 0 0
244 1 3.64517783831114 15.821662914694476 6.896932001159223 0 0 0
55 1 4.9626786776507705 14.329203653241287 5.155688021940026 0 0 0
252 1 9.782331153294583 15.968878409994018 7.020178418091515 0 0 0
63 1 11.325843852135662 14.668266858209448 5.316451885537672 0 0 0
71 1 17.84285162017089 13.687196871054345 5.330701903059359 0 0 0
260 1 16.181152259723085 15.705299980677587 6.66814057478545 0 0 0
54 1 2.111758265127915 17.467451362730944 5.390005757706228 0 0 0
273 1 6.798475026143592 19.074048261160353 6.499465963935345 0 0 0
79 1 5.033704483046373 20.571618792013894 5.0758156196340165 0 0 0
62 1 8.210134358418276 17.30691091387837 5.10756563849088 0 0 0
70 1 14.777913421460063 17.509090440674665 5.356230521638117 0 0 0
281 1 12.984651221068964 19.51004432344469 6.6026397199732205 0 0 0
132 1 9.910801763501993 34.636491281888304 0.4488754973160078 0 0 0
268 1 3.5204997913609954 22.317132721724214 6.368886013526237 0 0 0
78 1 1.912959834649148 24.26100971207095 5.1865197881229825 0 0 0
276 1 9.61707190239626 22.334746539885625 6.773093955775818 0 0 0
87 1 10.939030505510374 20.66725427871386 4.992345102008374 0 0 0
94 1 14.26420260298027 23.953387044376548 4.777538801927318 0 0 0
95 1 17.598583608619652 20.586469205818524 5.2690334936667975 0 0 0
284 1 16.202525706467046 22.252724840740132 6.436501875502391 0 0 0
297 1 6.824460209206721 25.999649835272333 6.540016467880198 0 0 0
103 1 5.454243769630361 27.309129445881112 4.704982634329457 0 0 0
86 1 7.987587415958146 23.95625418070251 5.273738495279508 0 0 0
111 1 11.304320695641747 27.192405152953413 5.119162966134801 0 0 0
305 1 12.784241756096447 25.396567679527458 6.36699356868637 0 0 0
119 1 17.504918460019525 26.834650303768633 4.903444630470669 0 0 0
292 1 3.728031027362877 28.114646191283 6.557884078474647 0 0 0
102 1 1.9583367819167288 29.953309924819507 4.960674084803113 0 0 0
300 1 9.885016024806164 28.610063138465588 6.779993822081478 0 0 0
110 1 8.421696485568761 30.06821802056593 4.867193336396687 0 0 0
118 1 14.768521679664596 30.40033256286995 5.238265273991692 0 0 0
308 1 15.883805531350585 28.50180667329139 6.775414526000501 0 0 0
84 1 9.223180856795356 22.542482996324047 0.8583613973351225 0 0 0
321 1 6.878984395593785 31.756245716308886 6.291810296293993 0 0 0
127 1 4.984982553781074 33.25234942827527 5.392522291749917 0 0 0
135 1 11.619200072303748 33.71642216307452 5.172046700838399 0 0 0
329 1 12.953074751107486 31.889205233076417 6.718136627348792 0 0 0
143 1 17.72773764550319 33.220953554861836 5.091434935958456 0 0 0
108 1 9.54808480778573 28.860050138061297 0.6152972090592268 0 0 0
126 1 1.993283890287738 36.38475690299285 5.292174981313512 0 0 0
316 1 3.5073043819690874 34.72550628053287 6.874010192472978 0 0 0
134 1 8.149531271880674 36.36072098276611 5.318897663697896 0 0 0
324 1 9.788410418449855 35.12854449666175 6.759085396636013 0 0 0
142 1 15.13351501315462 36.549934144831546 5.597835380565594 0 0 0
332 1 16.522989897579762 34.46519532364881 6.990637259124454 0 0 0
151 1 4.989089365838272 39.54879743745864 4.80803193731276 0 0 0
345 1 6.532249919094235 38.1056570918138 6.427826499949159 0 0 0
159 1 11.252886950601892 39.41618973701882 5.023290501788564 0 0 0
353 1 13.239613721051544 37.75492344735874 6.811857084545911 0 0 0
167 1 17.666079902655422 39.45468578920908 4.888739195183525 0 0 0
876 1 9.938882143325385 28.656922189537227 25.13215810807492 0 0 0
150 1 1.6802294568933258 42.832940003833734 4.360153470081606 0 0 0
340 1 3.324118876081349 41.11169664477289 6.131880515536121 0 0 0
158 1 7.817305062225713 42.52450916455887 4.813891354352539 0 0 0
348 1 9.76225602749278 41.26032208473483 6.1315089383659505 0 0 0
166 1 14.2572917105905 42.65407704465968 4.75391179541805 0 0 0
356 1 16.36657354379974 41.24030457265671 6.2607326419738865 0 0 0
916 1 3.583473448075581 41.27610722629433 25.231228130149013 0 0 0
369 1 6.418838167503397 44.3457394983598 6.56328600773862 0 0 0
175 1 4.961665477531206 45.69783922108863 4.9643823172708155 0 0 0
183 1 11.634135891760476 45.788531187872096 4.242756298618522 0 0 0
377 1 12.793815504608522 44.267335823659764 6.174933867459452 0 0 0
191 1 17.854035761081093 45.630205588253375 5.060968664582034 0 0 0
364 1 3.4000308169205065 47.354386972583654 6.533839810569266 0 0 0
174 1 1.6256733404022508 48.82906653580682 4.992187381261239 0 0 0
178 1 6.850377061116997 47.31867047545533 3.5262922573302133 0 0 0
372 1 9.430776487085385 47.49142225442985 6.076779678231045 0 0 0
182 1 7.887584990089557 49.156653678162904 4.913503471091967 0 0 0
190 1 13.998655950958069 49.35344380996369 4.823578102357129 0 0 0
380 1 15.798091168908632 47.41025796471126 6.1020876230953425 0 0 0
682 1 6.845530837484226 28.812847634208246 22.097125622819604 0 0 0
197 1 1.710301348033031 1.7815431637675139 8.070369901395836 0 0 0
202 1 6.890078644796491 3.8436077097056054 9.583436595725056 0 0 0
205 1 8.426299070222411 2.0037164381018786 8.30656404486081 0 0 0
203 1 9.81801884271638 50.37849241017337 9.60826427388087 0 -1 0
213 1 14.66152317526872 1.7760331148693353 8.030353695785521 0 0 0
210 1 12.888997709954811 3.4194150924032405 9.636784076849823 0 0 0
215 1 17.56851768807089 1.9503100784050087 11.399419354431208 0 0 0
211 1 16.246786666351635 50.166680608638515 9.569058715553355 0 -1 0
219 1 3.4286701176464254 6.3021875692426175 9.621918847026548 0 0 0
200 1 5.059977287045077 4.908594550095376 7.930961243532472 0 0 0
227 1 10.068991920695709 6.679638967997122 10.180413675166559 0 0 0
208 1 11.560248074154668 5.012620345599257 8.051998467565607 0 0 0
216 1 18.05038421707273 4.585622557883319 8.35706507198379 0 0 0
235 1 16.383257782560477 6.487163515841246 9.85928919757721 0 0 0
221 1 1.745152818801667 8.07948354110194 7.779712290168075 0 0 0
226 1 6.6010105006978295 9.78626955074152 9.827173937573827 0 0 0
229 1 8.221207586018812 8.202994636412297 8.511481103404329 0 0 0
237 1 14.616645278957234 7.979261050470654 8.064142971949604 0 0 0
234 1 13.139159470405703 9.493018755173363 9.484304380392686 0 0 0
884 1 16.34206199653989 28.524838322072352 25.355976597175562 0 0 0
243 1 3.7039134559349858 12.951181794511086 10.079993263469982 0 0 0
224 1 5.0321413358542655 11.476107227696787 8.314687080344191 0 0 0
251 1 9.817596847862806 13.356767250367346 9.533243773130206 0 0 0
230 1 8.582560569689026 11.376036072288452 11.481196549372587 0 0 0
232 1 11.509726760533075 11.541696338386224 7.987916878280719 0 0 0
240 1 17.51789208098254 11.261347358416822 8.45668417608373 0 0 0
259 1 16.208713759566113 12.779697862393336 9.975754246686293 0 0 0
679 1 5.1081756828186515 27.648473623997823 23.742841404556877 0 0 0
245 1 1.9214643281372852 14.37304133514153 8.522537139527302 0 0 0
250 1 6.543627572127487 16.33641389808576 10.236195723286071 0 0 0
253 1 8.001240977112037 14.820663944852953 8.572990989890148 0 0 0
261 1 14.690775215104503 14.08726917271202 8.221203479668073 0 0 0
258 1 13.167463959520012 15.811247530319376 9.759550802823403 0 0 0
727 1 4.952559372993495 39.80295974465158 23.644067455165036 0 0 0
267 1 4.081833510427147 18.8732605600612 9.930756794781216 0 0 0
248 1 5.275522422887586 17.596104708740942 8.126576270128115 0 0 0
256 1 11.89038948684007 17.71234535529837 8.143194333237647 0 0 0
275 1 9.928022240538336 19.27855355803687 9.817312090408924 0 0 0
264 1 17.672555271498382 17.157561313402 8.269564961664766 0 0 0
283 1 16.154460272276115 18.991505707629432 9.506612463812303 0 0 0
269 1 2.0864867040319353 20.681520608253376 8.064621288052095 0 0 0
673 1 0.5402343048389942 25.337617150690267 19.275877243311903 0 0 0
274 1 6.768856802741585 22.341828820017117 9.601911810258088 0 0 0
277 1 8.163494012135619 20.60448934598415 8.184049907248792 0 0 0
280 1 11.409610419780632 24.03725720922509 8.144863430923426 0 0 0
285 1 14.605414563831202 21.058573974066082 8.229779006161486 0 0 0
282 1 13.137873715288974 22.5423708077812 9.544580882574403 0 0 0
288 1 17.765448174773447 23.93497970459757 8.275787574757565 0 0 0
953 1 12.613004567744202 44.559370577491144 25.19529512851836 0 0 0
291 1 3.654776866674822 25.621307120748032 9.289837245406392 0 0 0
293 1 1.8591997187526226 27.104405170880444 8.026936403981818 0 0 0
272 1 5.325942055600661 23.880502872512263 7.851551103384588 0 0 0
301 1 8.464384196915255 27.346577520211834 8.200301460051033 0 0 0
299 1 9.591612699813115 25.55659712766971 9.595162895903306 0 0 0
278 1 8.080710086802569 23.82140576082539 11.081636189072038 0 0 0
309 1 14.337965857480757 26.892677015609944 7.9252921575653374 0 0 0
307 1 15.917034487307035 25.388568504400368 9.580653350296869 0 0 0
298 1 6.68083481033735 28.582630347460643 9.998618005897747 0 0 0
296 1 5.473205330847809 29.857647095999877 7.970096527458819 0 0 0
304 1 11.419344033634323 30.21265249466134 8.166748563793838 0 0 0
306 1 13.019203318052648 28.588604939091077 9.737688486426022 0 0 0
312 1 17.58045615507634 30.311418195985617 8.194526511454296 0 0 0
678 1 2.0440365663394164 30.0322710269129 23.564228830170165 0 0 0
315 1 3.6638817176995704 31.13569078422293 9.51832053540226 0 0 0
317 1 1.9338925701617684 33.12913738373795 8.377957331831334 0 0 0
325 1 8.57477129177858 33.09391975970946 8.050893584520374 0 0 0
323 1 9.963453871317988 31.54265270966797 9.86183646729041 0 0 0
333 1 14.40275096729623 33.75622038419043 8.38830379042431 0 0 0
331 1 15.925121384713101 31.95680965754287 9.72319448721913 0 0 0
711 1 11.411653020925337 32.91871473224382 23.583511150761403 0 0 0
322 1 6.8999219512372605 34.675372061540784 9.368820702349472 0 0 0
320 1 5.104498584064811 36.17851726803872 8.265285529218012 0 0 0
328 1 11.312402017924065 36.33815827405754 8.275058387093946 0 0 0
330 1 12.838153692103774 34.95792622805272 10.12560443480735 0 0 0
334 1 14.450661616068741 36.44079910161809 11.601064557517917 0 0 0
336 1 17.887375793107193 36.37502021796563 8.329251585270484 0 0 0
750 1 2.076656546628456 49.108320536623765 23.781029406068832 0 0 0
341 1 2.2633325519339174 39.557555603309865 8.247359016462664 0 0 0
339 1 3.439349370320255 37.52296900998137 9.65621430868896 0 0 0
349 1 8.559242341371263 39.58150427793592 7.90724174496133 0 0 0
347 1 10.126973211940125 38.070738291203945 9.501955710037977 0 0 0
357 1 14.81219102920566 39.58846463408273 7.978016378574406 0 0 0
355 1 15.90372360886642 38.148821429086006 9.861224990014742 0 0 0
359 1 17.70895880443004 38.98569037127816 11.28838358324394 0 0 0
342 1 1.9887441130442625 42.43616205282285 10.885248891242245 0 0 0
707 1 10.015755538384887 31.61995297447737 21.917159162838836 0 0 0
344 1 4.788303591848613 42.678049746585934 7.81646481495884 0 0 0
346 1 6.212824997063637 41.21841052196824 9.553136198004124 0 0 0
352 1 11.352010438581356 42.730222560768496 7.930677334601537 0 0 0
354 1 13.112981027806102 40.98214345709031 9.326834020124465 0 0 0
358 1 14.316855443147345 42.75409293032711 10.870932314817606 0 0 0
360 1 17.850765356410598 42.514065619738915 8.232302591438021 0 0 0
363 1 3.2979844134533183 44.44083096654383 9.533384948811815 0 0 0
365 1 1.6687036979686043 45.99934868302612 8.02632964340852 0 0 0
371 1 9.901436692997931 44.372700791759954 9.475578738043676 0 0 0
373 1 8.321419920548085 46.10970232881357 7.992163110462578 0 0 0
381 1 14.180047484855933 46.034792432118536 7.854190519733713 0 0 0
379 1 15.882122590623995 44.39380855389639 9.437828294643912 0 0 0
383 1 17.826115568827642 45.77390675058872 10.609628684352648 0 0 0
195 1 3.39109508074976 0.3832997660607715 9.620794527778784 0 0 0
370 1 7.033961803328812 47.57303896899584 9.657505550988754 0 0 0
368 1 5.112596968970605 48.780670565811604 8.176117403863344 0 0 0
376 1 11.173138522653616 48.87050960152478 7.9308815009992335 0 0 0
378 1 12.764357076463174 47.735947856664424 9.261385029793587 0 0 0
382 1 14.378846361740042 48.98441694813663 11.180895884313381 0 0 0
384 1 17.46242411759452 48.980329497555154 7.565883093959993 0 0 0
388 1 3.4467867034961115 3.451706786340294 12.706376334338584 0 0 0
389 1 1.7642533917194123 1.5240251114939651 14.492641614347626 0 0 0
780 1 10.275377754404113 3.794013842896473 25.323854172870046 0 0 0
199 1 4.929734749732362 1.809820334610827 11.136580908430595 0 0 0
393 1 6.492131676587412 50.49437299041891 12.896266839607678 0 -1 0
207 1 11.506913406523875 1.7209302795163623 11.262702338782773 0 0 0
396 1 9.902450984091173 3.372788610326973 12.815027987494894 0 0 0
397 1 8.028539039124553 1.7988845566271943 14.320281909429996 0 0 0
405 1 14.479441634565323 1.8332500849853224 13.87209574000328 0 0 0
401 1 12.70031130762606 50.476531854260436 12.9218035531869 0 -1 0
404 1 16.15280859713463 3.6315066887370815 12.935618717423631 0 0 0
767 1 17.73094808267253 45.970733020561234 23.70027492771106 0 0 0
198 1 1.8331021621820005 4.815419320415196 11.243003712527107 0 0 0
723 1 3.4716937580192577 37.955808905406855 21.945015425530094 0 0 0
417 1 6.843366655504844 6.280240330015016 13.097945044737212 0 0 0
392 1 4.9817931183229245 4.919152945320071 14.601987930487638 0 0 0
206 1 8.494491174551772 4.991231852422021 11.501740707908535 0 0 0
400 1 11.392948294517568 5.029666363247424 14.331403375096594 0 0 0
214 1 14.592035673745308 5.072200974302038 11.366422486149174 0 0 0
425 1 12.91488600646675 6.725480305859434 12.969990250289767 0 0 0
408 1 17.731790049429083 5.153791753587429 14.547022198062756 0 0 0
412 1 3.338129168709143 9.588484050654651 12.99805587942639 0 0 0
223 1 5.140252872433693 7.904265479773641 11.554462408778209 0 0 0
231 1 11.429661130168533 8.448000451616728 11.542203597896485 0 0 0
420 1 9.579227930536344 9.622693538064734 13.32730774921426 0 0 0
421 1 8.331963832680282 7.9829624726976265 14.6546061791651 0 0 0
429 1 14.227238737454162 8.369871902866691 14.602571583762876 0 0 0
239 1 17.3916578023855 7.993785347059558 11.558168590582047 0 0 0
428 1 16.141799181138353 9.53219801930444 13.091140894634545 0 0 0
222 1 2.168660307426114 11.434560482272133 11.549672797155914 0 0 0
441 1 7.000477468363921 13.011657528418223 13.116800296858074 0 0 0
416 1 4.942953085257901 10.951240134358187 14.496185958581046 0 0 0
238 1 14.45025705758044 11.17849693025807 11.578478022610483 0 0 0
449 1 12.876936008806025 12.642625323040777 13.101965829098617 0 0 0
424 1 11.519304756361791 10.984162454634205 14.748788342833953 0 0 0
432 1 17.573627826713253 11.344302250845763 14.394351424584785 0 0 0
436 1 3.7942073442393185 16.230780171557882 13.359014265200624 0 0 0
437 1 2.351910061003222 14.558746692606434 14.93517483022875 0 0 0
247 1 5.075248156850395 14.61036102971335 11.625278813004979 0 0 0
255 1 11.643401376212685 14.430590459683833 11.27779339273153 0 0 0
444 1 10.00554433750835 16.031262104969727 12.907624661167224 0 0 0
445 1 8.638561077011266 14.510346653061895 14.79028102444362 0 0 0
453 1 14.571909825358002 14.218634447886714 14.310989025884226 0 0 0
263 1 17.57751719947723 14.53934379279854 11.74747669475662 0 0 0
452 1 16.253796391732045 16.331826225334876 13.104994745489362 0 0 0
246 1 2.215208329709677 17.645004926191454 11.7583072920133 0 0 0
465 1 6.799954606081654 19.318295911842483 13.344008517859802 0 0 0
254 1 8.194618853915276 17.88103662421238 11.569951622901272 0 0 0
262 1 14.833000212324405 17.805566626823282 11.19311316212305 0 0 0
473 1 12.891357005507011 18.98113380296373 12.986872376599432 0 0 0
456 1 17.95194537671056 17.52149499313871 14.413460346070174 0 0 0
270 1 2.1511397208989314 23.78249473844065 11.26782627311641 0 0 0
460 1 3.4954889642998106 22.137454907745354 12.815463887864727 0 0 0
461 1 2.0308945701328334 20.662808121131494 14.358781722004638 0 0 0
271 1 5.281639506531547 20.852144982484454 11.282404890342617 0 0 0
469 1 8.422631243478062 20.860451277661667 14.492949453878403 0 0 0
468 1 9.695330825689902 22.71999910181695 13.13035573740846 0 0 0
279 1 11.50164360709448 20.87405248855086 11.048065168653705 0 0 0
477 1 14.612897364520286 20.701075082202216 14.536591889939613 0 0 0
287 1 17.57134438259281 20.53160777458012 11.08778516943735 0 0 0
476 1 16.14321772029947 22.188730070263375 12.802384063738387 0 0 0
691 1 16.163930537483786 25.47606922673409 22.257793899038163 0 0 0
489 1 6.607476343537102 25.502399560077592 12.563447843309273 0 0 0
464 1 4.971531877261628 23.83911619839874 14.356930610863085 0 0 0
493 1 8.001127217642182 27.038764305697857 14.06172380887285 0 0 0
286 1 14.63776544571077 23.907635100435083 11.317882247339538 0 0 0
497 1 12.943016011798923 25.35268064678592 12.679377427231298 0 0 0
311 1 17.188973450863333 27.072657075220125 11.1217433018481 0 0 0
484 1 3.427506357167956 28.64747231434468 12.955331258090178 0 0 0
294 1 2.040593393099429 29.597053364516242 11.031550668053049 0 0 0
295 1 5.005037056209011 27.131360236800173 11.390260882843826 0 0 0
488 1 5.392730844785759 30.36473864138267 14.540514063376042 0 0 0
303 1 11.306010026343428 27.044215550413924 11.025974671143654 0 0 0
302 1 8.343329847431695 30.10557454548068 11.617829440058166 0 0 0
492 1 10.18430798595448 28.49951331186912 12.825687029939512 0 0 0
496 1 11.53319661184095 30.169088543837496 14.370232392843162 0 0 0
310 1 14.211190977841671 30.203293197098443 11.276523335314579 0 0 0
501 1 14.395686996948864 26.911773132666205 14.662212790321083 0 0 0
500 1 15.596473746327545 28.852255352102752 13.014433523128393 0 0 0
504 1 17.465470241924226 30.04250875621298 14.54367539379598 0 0 0
695 1 17.75248006807863 27.11781629885648 23.656620366029898 0 0 0
509 1 1.934118638223955 33.136768269768524 14.265091447428702 0 0 0
319 1 5.179958408263458 33.059127162686885 10.95104172817361 0 0 0
513 1 6.727040109070785 31.780623244500525 12.575600176634852 0 0 0
327 1 11.089894295776517 33.61032830605419 11.41565877579759 0 0 0
517 1 8.444987075533339 33.324565249057684 14.65186640039498 0 0 0
521 1 12.673494801630204 31.901023072244556 12.675127704972118 0 0 0
525 1 14.74990007226525 33.35229569084535 13.95034155504602 0 0 0
335 1 17.911765017069673 33.26725760929901 11.384599315381006 0 0 0
318 1 2.1619130033387233 35.86191498543845 11.399969910044083 0 0 0
508 1 3.798256467938158 34.63577912654444 12.691395713591874 0 0 0
512 1 5.354113624176195 36.45718115749056 14.267131771602239 0 0 0
326 1 8.165994499628958 36.40759852860339 11.190512517949957 0 0 0
516 1 9.61568827185956 34.85175321949245 12.899576071712769 0 0 0
520 1 11.655831440738769 36.58461431985834 14.168951879163147 0 0 0
524 1 16.381102980961163 35.25287695105433 12.84611556459361 0 0 0
528 1 17.562393108663148 36.65420522932443 14.70321780999913 0 0 0
533 1 1.697913156130857 39.22170619292983 14.329623427915992 0 0 0
703 1 5.2697301760680535 33.54095773161778 23.769132933818575 0 0 0
343 1 4.958742525565712 39.34062260562577 11.058963024543623 0 0 0
537 1 6.575496495483018 37.988705061704415 12.567011461319504 0 0 0
541 1 8.76472782374724 39.31309642018884 14.154626528123242 0 0 0
351 1 11.588575557206006 39.484009116304655 10.856820049414145 0 0 0
545 1 13.05996678360754 38.24825452797131 12.739242969000884 0 0 0
549 1 14.744260171234243 40.16734354842204 14.068121515842199 0 0 0
759 1 11.424962801128004 46.27294167627659 23.88476551646629 0 0 0
532 1 3.084764755769263 40.947673543674675 12.637849263040403 0 0 0
536 1 4.693944522040771 42.60389755925891 14.126085537143888 0 0 0
350 1 8.016331920300976 42.85396772922757 10.82383626428916 0 0 0
540 1 10.225067928184014 41.235443772262386 12.45437770763337 0 0 0
544 1 11.227442554509627 43.04579135585274 13.991081880965387 0 0 0
548 1 16.34085930393684 41.2049356238081 12.409911594828449 0 0 0
552 1 17.927670038586466 42.7507943003171 14.035030178772667 0 0 0
670 1 14.630665861848668 23.985593458691017 23.93618856414817 0 0 0
557 1 2.005955881748063 45.736650022389185 14.449625174024327 0 0 0
367 1 5.329035013348662 45.911671011527304 11.26833786041716 0 0 0
561 1 6.380488474610702 44.31947155626465 13.0780611949191 0 0 0