LAMMPS data file via write_data, version 29 Oct 2020, timestep = 200000

4608 atoms
1 atom types

-0.26949023759513935 53.66949023759425 xlo xhi
0.08934309485350411 50.8177769051485 ylo yhi
0.08934309485350411 50.8177769051485 zlo zhi

Masses

1 18.015

Atoms # atomic

3653 1 0.1060903763647526 36.877575891785206 22.31149275189776 0 0 -1
1795 1 3.7429657125391165 16.888527781768175 3.076753247764245 1 1 -1
2923 1 4.497199293308254 3.614224732325578 2.1834386844759113 0 0 1
3249 1 0.8816725110960717 34.64585669306448 6.30980776317131 0 -1 1
1750 1 15.556666879486267 36.99980498152955 2.5606302788862796 -1 -1 1
2308 1 12.247855695502935 21.511175912279857 1.6135236827197579 1 2 1
1653 1 10.824425714757211 3.366136393007574 3.97957808604986 1 1 1
2421 1 0.9386835697761571 24.721971889961765 9.033724833896189 0 1 1
2677 1 7.549662160578631 6.618903626462528 1.8274216281156577 1 2 1
3103 1 3.5673948589641324 14.064612193695849 4.201415178077995 1 1 1
557 1 14.436875399208581 6.811816920100517 0.4815960414627347 1 0 -1
3799 1 1.177168476138616 18.7705653729901 0.59163218060062 1 -1 0
4272 1 0.08229892291198376 1.214556040856634 3.080906649984723 1 1 1
1110 1 3.604318213770973 28.364719071600227 4.369757404162851 1 1 0
1597 1 0.5964171040917634 9.737474204292853 8.484807714871215 0 1 0
4277 1 5.186404306898938 11.52901966764294 3.466493471241663 0 0 2
1904 1 1.347405852447749 27.363272147409234 8.512900735593275 0 -2 1
2865 1 1.3066600213207187 22.811137492996732 7.097500489708383 1 1 0
1152 1 15.082342371267883 6.711541692289421 3.9056928050183948 -1 1 2
1907 1 11.715137784854354 8.82070076881734 7.7398206130175 1 1 1
3219 1 1.2096665560800095 9.180583446564954 20.109287806308004 0 0 -1
3147 1 1.9812128884105 12.396266354448796 1.8372403825654315 0 0 0
3489 1 2.6760642093449185 10.445644541959277 4.355773956657467 1 0 0
3675 1 1.7704728171794364 23.219811418674993 1.9559611407891435 1 -1 0
379 1 0.7827719748395305 32.29966578090266 10.881808481939755 0 0 1
714 1 9.209719713378442 9.140801957027854 1.3481862389052766 0 1 0
3303 1 16.02051598601454 10.279745783659564 1.7848072053420923 1 2 0
3279 1 4.330308099316688 17.482812357115233 5.440082179198407 1 -1 0
727 1 3.2298784482670446 15.600152228188858 23.05370605712645 0 1 -1
3146 1 6.704353992713193 14.964397345096575 2.7446305883869435 1 1 -1
3138 1 9.150805012703055 14.489391273531506 3.3735091741861294 1 -1 0
2051 1 10.436915004323255 13.059230065366014 1.2760956355313038 2 0 0
924 1 -0.19304030595008653 20.194379608444173 6.752085352616631 0 0 0
3643 1 16.662879458000877 34.233039146997804 25.109537677632307 1 -1 0
1593 1 7.154084685136853 16.978162763983377 5.911519100434744 1 0 -1
2798 1 9.166327445105383 17.74017683063865 4.2909460826337975 1 -1 -1
288 1 9.37027581271502 16.87274410624374 1.2013288375451343 0 0 0
1484 1 6.188060900414329 17.59994088874271 1.4088294269371173 1 1 1
2324 1 9.972571680693743 23.487636230606583 1.9812045913749214 0 0 1
2129 1 13.716358938041644 13.683696318369407 0.28965922662956284 1 0 0
2725 1 11.09370391824399 10.846288954814655 25.31628953166369 0 0 0
1890 1 2.9921235485385966 20.30151771795145 2.078529756386665 -1 0 0
398 1 0.24428103146233682 4.955904132010085 4.755874058590672 -1 0 0
330 1 0.3910017178138294 49.77969162995166 22.389660395832674 1 1 0
941 1 1.1141203152407972 13.005230489006 18.63789816289783 0 0 0
2359 1 2.755131831919768 25.853858249363558 0.9789901434431912 0 0 1
1608 1 8.185656544273796 10.701238461189723 24.584573247272193 0 -1 -1
3590 1 12.400692361067659 41.736293211908766 24.115110285359364 1 0 0
3945 1 6.919464333307391 26.52600176460434 1.4311075324971931 1 -2 0
3657 1 0.7593155807526515 25.425399907475505 12.854618388582114 0 1 1
2940 1 13.735180392666285 27.94414996625141 2.822060156044348 0 0 1
4148 1 10.404758965683866 14.743914770268411 23.83333286346936 0 -1 0
2216 1 3.853555785866032 28.69451640982168 23.220902005840145 1 0 0
1402 1 -0.10795378007069703 10.752154616870566 4.262061663703198 0 0 1
2976 1 8.100819900094443 30.900746499239077 2.528050620032934 0 -1 1
1811 1 16.23832122401189 38.165854757609765 5.113192939904316 0 0 0
635 1 10.746302382533168 30.78972521989998 4.475805999461473 0 0 0
1837 1 16.530320830266138 26.786574864182594 2.2486124460390107 0 1 0
3960 1 3.8669310009544073 20.899867127156057 18.900110238296804 1 0 0
3729 1 0.2690835328676421 36.49315433152523 18.25724663204337 1 0 -1
2425 1 4.207265944115701 42.60769855204751 0.7354346554363447 0 -1 1
459 1 0.49027830653369975 10.44787199891986 23.87804966334919 -1 1 0
4495 1 17.422951966481524 21.614103275323483 9.281435680651544 1 0 1
3970 1 6.307200623857259 21.205349384848002 25.107727928123087 0 -1 -1
1370 1 8.11753708870381 44.833033150460494 24.61613602528822 0 1 0
1135 1 15.00916663690742 23.769545233233902 22.33378470739856 0 0 0
2624 1 6.045557693976423 32.83919215583785 1.7392751196699667 1 -1 0
661 1 14.913977307960538 28.668415560430436 16.957283232902714 0 1 0
1665 1 11.988450147626951 37.46827222520276 2.895902198563916 0 0 1
1170 1 13.110021537896621 33.01597464079252 3.94836869329582 0 1 0
105 1 7.128542640931643 37.531391485799595 1.3739043626895515 -1 -1 0
973 1 2.709168495195188 37.46156879089818 3.5405526899890236 0 0 1
767 1 17.045392719473064 12.04028434793301 23.878492359678148 0 1 0
636 1 15.338672561520903 34.27803968559484 2.886000224589433 0 1 1
546 1 10.216523681437351 39.356739097240876 2.3427573022910613 0 1 0
650 1 13.136184375756375 18.802734616131733 2.772856365402086 -1 1 0
2732 1 1.2826774239069303 41.02390776121972 11.13676990304224 0 -1 2
520 1 13.010677540974932 30.678946535886062 2.5764178745807693 -1 0 0
3830 1 2.388685328639148 25.81070167141973 24.323244071259783 1 0 1
2298 1 0.15286436330868713 24.527018322628734 21.16839107012899 0 -1 0
1466 1 10.627928685798018 8.232719885531905 25.265527460002716 0 0 0
1108 1 14.909641814090767 40.00803315944723 1.2882604538047822 0 0 2
1431 1 1.8950355427724883 42.343544682814944 1.9230960050942727 0 0 1
1165 1 13.309618474939086 37.25583578079675 24.10511521677154 0 0 0
2675 1 6.69787887408457 41.027578636074 1.8065913287426758 1 0 1
2592 1 1.0872992265603045 28.291375997842884 25.318816735862033 1 1 1
461 1 6.8920405022713025 46.67414716803945 2.9410515142988296 0 0 1
465 1 9.177146059115293 45.18587047071897 1.8332872848599164 0 0 1
165 1 11.704372887098655 44.925662677875295 1.9632063948473715 1 0 1
1266 1 12.748277584354263 16.473443533058795 0.36678710321615743 0 -1 0
567 1 16.32010222369071 11.27221094991246 14.99050334959366 -1 0 0
698 1 1.4993802384559836 32.82392096096826 20.29304078699083 0 0 0
2749 1 3.3971095352591623 45.53124887051588 4.953004251484016 0 0 1
3592 1 5.258610615390385 44.61691140161922 2.9779870221563667 1 -1 1
4007 1 0.8512062586315323 47.186795425238415 3.5987062507502467 0 0 0
1462 1 17.17797700390216 14.66025308249912 11.922829119941053 0 1 1
3750 1 13.375025211129621 46.82788462113124 2.9848980603213007 1 -1 -1
2566 1 0.05581894755822325 17.92367013833992 5.281538307512113 2 0 1
2038 1 17.486207610304405 30.489837124279312 8.953196202875025 0 0 1
2364 1 7.071818341243236 20.17322878879929 2.009429100039409 2 -1 0
404 1 1.1493823819037694 13.743323040095554 22.686052372141305 1 2 1
106 1 13.256453960196938 42.2743667566589 0.8417067567414197 2 0 -1
2955 1 4.521508006056979 11.193004107563166 21.33918365417069 0 2 1
2140 1 9.072795435613761 50.296051865517775 0.9128273988523821 1 -1 0
2426 1 12.778097854756409 49.41632731004001 3.8921649019308133 0 0 0
834 1 16.832378524521264 45.0752403329395 3.188114663850725 0 -1 1
341 1 16.581824167676945 49.27700629240718 2.654562236217874 0 0 0
2872 1 0.6904287011266244 6.334615300262809 16.335305604901475 1 0 1
2722 1 5.395597726020166 0.6005117826320538 2.1738359955608337 1 1 0
300 1 8.001083700301757 5.115439772011957 3.7569430425891706 0 0 1
2931 1 5.4502162766147 3.963193326670176 4.546442499831549 1 1 1
2032 1 13.62404392039265 2.6460832309198192 3.840995627735382 0 0 -1
3820 1 4.88483871697885 36.62172100275983 24.676398102728733 1 0 0
1987 1 1.022644936791157 5.919696208678334 0.3475658510771006 0 0 0
2649 1 4.603942548403695 5.921087463985787 6.114461276858554 0 2 0
2723 1 15.649242135949864 3.810100385378426 1.842884277703496 1 1 0
276 1 2.1059679651115357 29.224245899958927 6.5900220238413025 0 1 -1
2317 1 1.0301142480501184 13.827694868198913 6.024679655311671 1 0 -1
1316 1 5.756647036448983 8.357540135994114 2.542279032269002 0 0 1
3021 1 8.93423214740356 6.69873086679699 5.913234134937444 0 1 2
2514 1 13.386543522458256 8.552403173004036 5.23495240084901 0 1 1
4445 1 9.142717882076449 9.88818030365508 7.705230272692645 1 0 0
975 1 9.419789936857176 12.255304157719781 5.581408467116967 1 0 1
1848 1 15.471482648680258 14.938142117522194 4.2974276434984615 0 1 1
1011 1 2.814706051904005 15.893375065976574 6.986773507534202 -1 0 0
2938 1 5.918817741827072 14.417420385417842 5.496482888561679 0 0 1
4209 1 7.664784181972412 10.303535377235852 3.8142320253884927 1 1 0
3291 1 11.025520032772677 11.070281228980116 2.7471907305071723 -1 0 1
2598 1 15.810600247147764 10.029307818191771 6.040123234188196 0 1 1
2829 1 12.584168128248628 1.7880365569557994 16.255543695652324 -1 1 0
3123 1 7.410319472851276 18.064104030629938 8.623311453922248 1 1 0
1664 1 10.888475632992803 15.002728630707088 5.727083024307338 0 0 0
1053 1 13.740899455799477 11.745792105593807 2.2767114333486376 -1 1 2
1933 1 12.299685565755635 12.350862819883586 5.933018852250412 1 0 0
4371 1 4.397418560779151 38.718108053271095 22.415689737015153 0 0 -1
4036 1 7.299591152366496 21.45217295728943 7.766771101698 1 -1 2
1677 1 4.7315123383671445 20.725062567058224 10.799387519213651 1 0 -1
1061 1 10.404110045606576 18.7363695674402 6.8929707078414575 -1 -1 1
4204 1 4.904532849669325 21.754429081390235 5.303793066691466 2 0 1
3241 1 9.608083557368778 20.783515510221093 3.517429616463402 0 -1 2
782 1 11.4995700233238 24.80881828943967 4.227359818738532 0 0 -1
918 1 15.078204967018227 22.464400095407388 2.3548091935575775 0 -1 1
1397 1 14.096134059337604 20.512592190316177 5.23900742016105 0 0 0
1639 1 15.9811453003914 25.86146357187467 5.5821542709577345 0 0 0
1988 1 5.204339032871974 22.612691565788815 2.185983204592008 0 -1 -2
2584 1 0.8895913776454956 37.59024802827262 7.906158087381794 0 0 1
4450 1 3.36200609478461 24.11495112613244 6.109936210211462 0 0 0
3809 1 6.815491433681787 24.640311117961247 3.3932334183642547 1 -1 -1
4258 1 9.531915311350549 24.00421576408671 5.999107801152123 1 1 0
958 1 10.895652925425434 27.301588413488464 3.2797018566211245 1 1 1
3325 1 11.982996634197727 28.137182460332365 5.866921161871059 -1 0 0
4391 1 14.13023484281657 24.712968739405746 3.802460680115879 1 0 0
2159 1 2.239746972578183 28.7788735953698 1.6040032159598647 -1 0 1
743 1 6.324192865904259 29.039984031454605 1.8501246155765283 0 -1 -1
230 1 7.748542048228959 28.027424207799182 4.335594167943244 0 0 0
1461 1 14.925362608258286 28.471739727931908 5.966634054009347 0 0 0
215 1 17.443705944918484 39.7478645699986 10.187456949029345 0 0 0
4208 1 4.349564355812188 30.972682148431698 2.4682225025090783 2 1 2
1885 1 10.785943689292951 34.328462605765324 4.725939277192496 1 0 0
3185 1 16.250635503869475 30.113406854056148 3.5591724124098705 0 0 0
1072 1 11.229446792876978 2.6903208735000006 24.881179140353545 0 0 0
4120 1 6.212447700700235 8.837271063663838 24.106323534635628 1 -1 0
503 1 8.25334883944052 33.90239627142072 6.494712221344163 -1 0 0
3571 1 7.722568432660396 35.280733137378455 2.840407805054743 1 1 -1
402 1 10.137463014196836 35.72939589559548 2.117348707820832 1 -2 0
2373 1 17.062128928798515 46.76645203084485 22.864890245909088 0 0 0
4447 1 14.643978616991967 25.05384795910378 0.30600193579234225 1 1 1
3382 1 4.613785635842228 39.16402565532241 4.755832051778844 1 -1 -1
1388 1 2.932131949112959 34.484762806367016 4.438636127869419 1 1 1
797 1 12.198564539275432 21.536762654023477 24.376666649030266 0 0 0
1009 1 8.318573623204857 36.810230715550595 6.820154058112209 0 0 0
3651 1 10.888149292583005 36.550101998643214 6.4939582800337705 1 0 -1
4547 1 12.234706887861222 39.04651418214456 6.046347319184929 1 -1 1
420 1 15.846186386623334 35.778719952697635 6.399851469938846 0 0 0
4210 1 4.516031383009821 13.64010082423568 25.148575491310588 0 1 0
4047 1 7.360517925393535 39.90215598063175 6.46516675197019 1 0 1
3796 1 2.8524779359482437 41.63775295656025 5.030010399786042 1 0 0
3973 1 7.740042943089552 39.17545948255162 3.428702242387667 1 -1 1
3876 1 10.679501214750342 42.99762870396232 8.201027728748484 0 -1 1
4362 1 11.324161212455822 41.07105742706602 4.383996200448214 1 -1 1
4601 1 14.983495668944963 39.99391466092648 6.372087951348395 0 -1 1
4568 1 1.72507065780427 6.317163338999041 24.115784701873473 2 1 1
174 1 1.9585918990230833 38.37570541608616 12.083669531339174 0 -1 0
3071 1 7.2902583040838165 42.88240223555266 6.154504116074193 1 0 1
4373 1 5.6403419909059975 42.21683777167975 4.052727181196188 2 0 2
317 1 9.8276265479918 42.58486002278787 5.714117636440311 0 -1 0
4297 1 0.889828060163431 44.34964478819343 4.387657644247552 2 -1 0
2534 1 3.658098884531781 48.230632530861705 4.685433408143109 1 -1 1
3152 1 11.051457409011372 45.23806613605119 4.788174343317988 1 1 1
2706 1 10.313978302423184 47.23541005404017 6.3416435703706595 1 1 0
411 1 13.785883984828796 46.024706461971654 5.554819405210846 1 -1 1
2048 1 1.843273272683521 30.88843957394862 25.205637039140036 1 0 -1
3259 1 7.931825863699476 50.36661468676271 3.6544441185412806 1 -1 2
3670 1 6.311965445715281 48.53250484753881 4.792091636332181 1 0 -1
1098 1 7.453511960889258 47.69067866067369 6.946882875661386 0 -1 0
4346 1 11.188716361566872 50.02489011483847 6.1865439938630145 1 -1 0
2316 1 15.955700194987873 50.03930361386092 6.914055577061911 1 -1 0
3174 1 2.1113374809470398 5.338537418672888 2.6112940208588573 1 1 0
758 1 2.61781698639113 1.66278242322074 3.4494087280102823 0 0 -1
795 1 5.717479793637294 3.8725087529038014 10.386089967068687 -1 0 0
4080 1 9.444107968558237 1.156681675193899 5.5930915804827475 1 0 -1
2019 1 15.205046490820106 2.734986742216257 8.65164057087642 1 0 0
561 1 15.01152204511336 0.4751111586947069 4.233086216625268 0 0 1
2227 1 2.200263440181258 25.782091050304793 3.7350569184201476 0 0 1
2384 1 13.3201091671356 37.82482815228859 0.3674561074744401 -1 0 1
2587 1 6.6481465735940635 4.461794067303743 8.052604879804539 0 -1 0
2975 1 14.127179283792707 4.906568368050311 5.549642039768853 0 -1 0
1113 1 10.807577534650015 3.1673423691982325 9.266077615861844 -1 0 1
556 1 14.705019404672516 6.2237785947365465 7.663916894380948 0 0 0
24 1 17.57496109082438 3.6320146069841432 7.596076257578794 0 1 -1
2378 1 2.5003074059550383 8.009934535228695 8.269262847772666 0 0 1
4372 1 4.382338132208702 9.13229574778515 6.344502271195125 1 0 1
3942 1 7.1942966401653425 8.734383337011183 5.9447837616696155 1 1 1
2833 1 8.56315458715633 7.129937903852696 10.75040457677299 1 1 1
1338 1 11.334517379707668 6.481152575477714 4.6571675107734185 0 1 1
3696 1 13.145290031753248 7.294789244426481 11.457996394197655 1 0 0
3834 1 10.32742173960995 19.19655675229155 24.88978235120393 0 1 0
603 1 4.693309478096303 13.817854221016317 8.497834357811763 1 1 0
4541 1 5.974815079396634 11.126154802541926 8.014257554012175 1 1 1
1409 1 7.586132573139984 13.29645096117631 7.346847444401258 1 1 1
3254 1 8.405922088977066 10.984434799816938 10.059563735957415 2 1 -1
2981 1 8.757002955970547 13.650362267303468 10.412475103806328 0 0 1
2190 1 10.481923761140232 13.834243047914178 14.454920035065273 1 0 0
3989 1 16.102090417804206 8.228156944350351 8.200911902329397 1 0 0
4111 1 1.628836952263852 17.810484991639672 9.306803884832224 1 0 1
4195 1 4.8750178874448915 16.914743964287204 9.495779351986785 1 1 0
3723 1 9.057033976017546 15.57805639658984 8.301384833400395 2 0 0
2299 1 14.253440446098281 18.347202500857332 7.04453934970244 -1 0 2
1803 1 11.968996717415088 16.750308095704558 8.33050022530044 0 0 1
1299 1 13.336797556570462 14.646017781108917 10.33974910074459 -1 -1 0
3302 1 11.518595291762319 7.0153644351793565 1.1403882778609573 1 1 0
2053 1 4.34943780797789 19.99149989114641 8.261230121328012 1 0 0
586 1 1.9993144092334183 16.22246583174098 11.439185068378018 1 -1 1
366 1 1.5824170580099077 20.494417916477158 8.981346565734093 1 0 0
4531 1 10.00426166465294 19.983144004139753 9.471020416369852 1 0 1
1539 1 11.612570661063033 20.715591088930417 5.855757474388194 0 1 0
4240 1 16.576322370922366 17.346564817093828 7.376454144088753 1 1 1
3751 1 12.329020464075173 6.356341049888926 23.475658282412645 1 1 -1
2885 1 7.767654430518025 22.248566611724797 4.891829635023695 1 0 0
2845 1 11.378380231867999 22.714410839365016 7.700500097206051 -1 0 0
892 1 15.38717557475 24.257298403961144 9.61787020872188 0 0 0
971 1 4.106683366821046 28.05521092548621 9.563566881491557 0 0 1
3080 1 6.3806297469662905 27.518735771326643 7.535353247562115 0 0 0
2558 1 9.52852407088311 23.314698207007968 9.812713431852474 0 0 1
514 1 12.320835941180716 21.830228472110516 10.756482133602825 0 0 1
2245 1 13.319746329867177 24.73418004341379 6.924913206336629 -1 0 0
2507 1 15.596266167667856 18.284740587308885 1.8139815819458724 1 0 1
1220 1 17.260126507382918 6.204030100435984 16.062258019359966 0 1 0
1985 1 5.4332264400471155 26.32142432638362 5.275816672278459 0 1 0
1898 1 8.208139358916576 31.169032020273868 10.056582980706656 1 -1 1
3120 1 11.341391126989826 25.2113443582563 11.423887854611374 1 0 0
412 1 8.250836434947072 29.81432058799436 7.362544526075569 1 0 1
3640 1 11.688216482327293 26.170885697007865 8.563948110887797 0 0 1
1211 1 10.299424597287329 30.77146400300309 0.6632943995459536 0 0 0
4359 1 15.485135984279543 26.958402192389947 9.836970884015159 1 2 1
1079 1 9.361256186027555 26.599247843017473 7.024707231675668 -1 1 0
956 1 17.54516713852824 4.844141178222382 5.121383998426222 0 0 0
1149 1 4.583091674414226 31.67698383936682 4.854113786570459 -1 -1 0
4259 1 7.551068796722137 31.53600331246041 5.264088797379761 1 -1 1
2083 1 8.331078320123108 34.21840864637245 10.988823966492443 0 -1 1
2783 1 11.43862425199032 31.122597783962743 7.140558651206461 0 -1 1
1268 1 12.23612366072859 29.263027430001134 9.144935733303683 -1 -1 0
3840 1 3.625963903600123 31.204617711004094 7.459839710546878 0 -1 0
837 1 9.920898339136128 33.10667804049039 8.352674004185923 -1 0 1
2853 1 11.916864362944576 34.848333104084226 8.328352577318187 0 0 -1
1442 1 14.157394713997688 33.350688262471344 7.6726602360714296 0 -1 1
1838 1 16.575855172892016 14.146988761617942 0.20771422594913586 1 -1 0
1395 1 4.257899774987442 35.335391574713775 8.728516790790966 1 0 1
3893 1 5.350928509469753 34.404925772424534 5.945669560755478 1 0 1
3848 1 14.087047006728039 38.364187054229554 10.744125888331535 0 0 1
1814 1 15.36601707139173 35.16615354418782 11.310972720179949 0 -1 0
2685 1 5.102513519293951 40.042313961956275 8.239467165683816 0 0 1
4418 1 6.741845681736274 36.60862902038185 4.887329249564195 0 0 2
3487 1 8.717504310347705 41.64004981391245 10.185599326971358 1 0 -1
2692 1 12.80078349530978 42.730726293576694 10.342487403218977 0 -1 0
2668 1 15.09691193385051 43.8117460148588 5.038774350309438 0 0 0
1003 1 3.035748983727001 41.80280281940482 7.926546046606163 0 0 1
423 1 15.241513205038004 48.656448228158155 11.821335911110122 0 -1 0
695 1 8.727783556443633 38.615887013108775 9.456799251384084 -1 0 0
2220 1 10.35469163591858 45.51777981756859 9.210187006421974 0 -1 1
3666 1 13.903593749851355 41.64373213321896 3.933894653570055 1 0 1
3628 1 16.480225529810852 42.44526399012776 6.805667765785292 2 1 -1
3347 1 3.6674499520743358 49.32120072273849 7.300963256207048 0 0 0
4472 1 16.27693103208175 47.933501977971986 19.747717793655458 0 -1 0
1982 1 1.822519881976783 47.14999076931529 12.683870798289286 -1 0 -1
4135 1 12.802243059012618 47.04252405306119 8.724812246760612 1 0 1
3874 1 8.674895556101156 47.99614967572304 11.196731893473682 1 -1 1
3948 1 1.4474763695795407 48.63671558838262 0.38295785254096754 1 -1 3
2001 1 15.62985500669664 43.37284562320925 9.210279360976964 0 0 0
2122 1 0.5195022269479983 49.17118265806824 7.796258024956789 -1 -1 -1
4468 1 3.1969794066219515 1.9176290744936357 6.585830785070348 2 1 1
3885 1 6.073399548222253 50.09347979351767 8.33298541022197 1 -1 -1
4393 1 8.84960270484864 50.534638994780856 9.980588047554685 1 -2 1
570 1 12.127677279795625 2.963455482509071 6.8187266296198406 0 1 1
1756 1 13.306372245897034 49.578012584129965 9.723804186633057 0 0 0
1150 1 0.7499555624597025 39.780210171418986 2.939816543872534 0 -1 1
4251 1 3.0932737611081293 9.820771643061432 15.048467850639994 0 1 0
1261 1 1.379819918721925 3.6799368076276804 23.7954550652451 0 0 1
2766 1 0.4043337963481227 5.560452013426017 13.173626677338246 1 1 1
3369 1 1.4878221096748865 1.1167924884152574 11.754570031491493 0 2 0
1332 1 4.209975938683441 49.558651044422746 11.583055595354743 1 0 0
2110 1 6.2454879235220595 6.397597391705947 12.02173939988235 0 1 -1
3849 1 8.483446231325026 1.9986580994464493 8.393482391911894 1 1 1
1519 1 13.008484977105464 30.549063334164522 24.919932451955187 0 0 1
580 1 2.48157863508533 4.629214745019502 6.745546559913711 1 -1 2
1792 1 2.6883439142602876 3.9273959793160453 11.951366838950507 0 0 -1
4607 1 3.6946747857441675 7.454840793619469 11.323391789129989 2 1 1
2823 1 6.38119137943013 1.5021785777908683 6.2526790318578325 1 1 0
1171 1 12.065884076296996 6.31050593428559 8.784862810795408 1 1 0
1732 1 2.219564818370692 12.267807625110494 8.582410425785532 1 1 0
3934 1 4.5111557516545595 9.557635743499555 9.823283616574823 1 0 0
947 1 3.673972831268736 7.368535946692498 3.8064013199318723 0 1 2
2268 1 6.646528424672107 9.46195431842727 11.556722024320589 2 0 0
1271 1 6.634886083565895 11.150715817012818 13.94537457515753 -1 0 1
3169 1 8.870617423023802 5.6121614559334265 8.407485402044323 2 0 1
410 1 12.787191130060986 10.40519154753267 9.453078494447054 0 1 1
3999 1 15.211172257952922 9.046171519209109 10.643859672276614 1 0 0
3833 1 0.8960391263296503 13.4387731405194 10.63411213315538 1 0 -1
2579 1 0.6111964092414174 11.429085192483576 12.563490057302342 0 0 1
120 1 3.5736619894631034 11.360222885297718 11.707270643767147 0 0 1
2506 1 13.099895970246564 13.014383559020606 8.495316230300906 -1 -1 1
3658 1 14.897845304927204 13.2991266516993 13.396291255731196 0 0 1
4184 1 5.853096831594413 12.926638996117758 1.0325102678250788 0 1 1
1349 1 11.12642688208954 14.220094285987896 11.705436291835598 -1 -1 0
3577 1 1.7901780203557562 44.9859051805575 25.336491004533496 2 0 0
4310 1 1.898670258227933 21.337060648437557 16.583243365793138 1 0 1
4513 1 4.6901377410416565 18.15116686683643 12.019568007754023 1 0 1
1590 1 16.34335989799335 17.784866145966113 14.593805743246708 0 -1 1
4291 1 16.054301100440842 0.24346597287208177 0.1706540186247098 1 1 0
1360 1 4.321381752709364 25.194882248174263 8.78955014854867 -1 0 0
1363 1 5.948041036901093 23.218146357797885 9.936160762242212 -1 0 1
2150 1 10.667387234788887 17.57567499164633 10.82506582948884 0 -1 -1
3841 1 13.250196415635028 18.058603055003356 11.853514811390832 0 0 -1
2617 1 14.012808292646698 19.612429100876415 9.730823196655274 1 1 1
1981 1 2.166007393240871 23.868125923104465 11.229750621548792 1 0 -1
3765 1 0.9376808202055473 21.81804815027284 11.587204317471747 1 2 1
4400 1 4.114503975560765 25.067802281764425 13.029238524234103 1 -1 0
3936 1 9.220522204817362 22.998924507425443 12.621958335241557 1 0 1
172 1 14.153156996472118 23.950468069659607 12.10081227096577 2 -1 1
2670 1 5.5099993901172315 47.99361246971424 25.40102381297462 0 0 -1
338 1 1.090461414231633 28.384300177603603 13.142471144040124 1 1 0
2946 1 3.879417722152102 42.1953190772061 21.211172323802703 0 1 0
1708 1 5.2807940032752345 30.738786516458383 9.634799016970895 -1 -1 0
1300 1 7.686726524773533 25.951390932156727 9.810531429179376 0 1 0
1190 1 13.448968664916437 28.279131251423365 11.898614274991019 -1 0 1
392 1 16.0249338667854 28.275711705903966 12.605157609513334 0 0 0
2186 1 0.7559420897601832 45.74004780500389 10.139926771422017 1 0 -1
3244 1 11.778653046607099 49.84151361841914 1.373608391174822 1 -1 1
406 1 9.776974201528565 25.84336984635363 1.1257534960955211 0 0 0
3718 1 6.10349710017565 33.936030342962674 12.803145533416288 0 0 0
1068 1 9.040356929028665 29.67255390968952 12.2774933665493 0 1 1
4506 1 10.36291505490842 35.71519997674961 12.221415111018825 1 0 0
3664 1 13.16817557614396 30.794605018949653 11.593810257492578 1 0 -1
495 1 15.141463215587061 32.462584838371015 9.863918843521013 0 -1 0
3709 1 14.815932450949186 29.23466926246216 8.636141486960659 0 1 -1
2342 1 17.085384324182904 14.936146426042967 6.754274623980581 0 -1 2
1244 1 2.9268552714011213 34.37405156319569 11.451992674447233 0 0 0
654 1 11.603591750276282 37.102834525968895 10.126657929648172 -1 -1 -1
524 1 14.60134193879995 31.677397134804874 5.691989937528876 0 0 0
4046 1 4.0809483890651554 36.87125271651935 0.9119191165697849 1 1 0
3258 1 3.6989977054973955 37.61793082776215 7.503419508494184 1 0 0
3922 1 1.0254643680014952 36.50067965433292 10.441972397370135 1 0 1
309 1 5.077988268698465 36.453339176495966 11.987312920229233 0 -1 0
239 1 6.535808057612938 38.94758561882394 11.761531254023726 0 1 0
4225 1 6.962150465917517 35.991023989903745 9.501069384293086 2 -1 0
832 1 12.843027362431084 40.95914518126164 12.327318459162715 0 0 0
1034 1 1.984051354637518 0.11068948688128813 24.44061203225734 1 0 0
2181 1 0.8711932548961883 34.04952905753004 2.3119469152761107 0 -1 -1
4085 1 5.904102455900635 41.047481192005144 10.570008635308376 1 0 1
3018 1 10.010152992703237 41.20063427544942 12.708114086070767 -1 1 0
1199 1 13.198468721818431 45.198116408304216 10.803907931478355 0 -1 1
3674 1 10.26680501370953 42.52574945883034 15.259844643368671 1 -1 0
725 1 14.949313189038412 40.300010016272694 9.029444748139033 0 0 1
2287 1 2.3083386246240067 43.61073731609684 9.492981469742151 1 -1 0
2773 1 1.6941163664646348 44.36509268689174 15.203157716793719 1 0 1
2327 1 9.942635520267208 44.271258501774334 11.630314244895706 1 0 0
2363 1 4.511914714303111 45.20905872525817 11.412403251924635 0 0 -1
4407 1 13.57360600711731 46.77199453823906 13.154513634262443 0 -2 1
4309 1 17.1593383397719 42.43340831490682 11.1275215805322 0 0 0
2763 1 7.08667989459196 24.04091297944617 25.286009347010957 0 -1 -1
551 1 1.4193108111362152 9.006567566548496 1.7825047089657453 0 1 0
2256 1 0.5986873691096362 49.09333602274716 10.751911822287463 0 0 -1
4553 1 6.376737113159754 45.34665895330974 7.522178772547941 2 -1 0
2414 1 7.167015885670679 45.395283181375355 10.367974680617523 2 0 0
929 1 10.834963109299217 46.95722638832971 13.064980632409593 1 0 1
4255 1 11.253534749488395 49.554826018056424 13.629558254948218 2 1 1
1869 1 3.816868426983828 0.9841569504344125 9.73879460185227 1 1 0
604 1 3.8639526161683992 45.35630963854927 7.665892593565305 1 -1 1
137 1 11.29001334034162 50.7959582994394 11.278670137494748 -1 -1 -1
289 1 1.385477729448737 1.1416307341821559 14.458847453986582 0 1 -1
3211 1 13.138855629417167 0.5827581890980124 7.701517096643984 1 0 0
3491 1 7.42931980786942 1.9972113942253 11.580713247948529 0 1 0
701 1 13.748347924752109 3.7993856359112903 14.296226361128554 0 1 -1
1629 1 16.88580129297583 12.838392209786234 21.353509683170888 -1 1 0
4573 1 1.9826311581812601 8.358586112534574 12.679725171344842 1 0 0
3092 1 14.263311410847592 44.27529833179241 25.1116912454125 0 0 -1
443 1 3.8032562765682636 2.8376843399675846 14.562722263381184 0 2 -1
4220 1 10.886565132072292 4.992527825867758 15.804422487980144 1 0 1
4092 1 10.061779141219477 2.852888574775006 12.945283418779223 0 0 0
3377 1 2.0801292431856813 5.153981420316528 9.080248577688266 1 1 0
938 1 7.639395662755276 8.606254823834092 15.807503276957915 0 1 1
1317 1 9.75043828681905 7.224280454910795 14.459159682982687 -1 1 1
2556 1 10.55113665072698 7.798516572917131 12.116931901904113 0 1 0
1942 1 14.22171601195599 9.706967018056371 15.466205844386296 -1 0 0
3354 1 17.525168785877717 1.539106286815795 17.13849400209727 1 1 1
2952 1 1.1203028457086357 13.656717004212076 14.557802099483656 0 0 0
4160 1 3.5696538913791986 15.288846195375664 14.142456724953648 1 1 -1
2272 1 4.1987479336807825 12.440755433720538 14.952352762980823 1 0 0
110 1 5.647221433655383 15.881120075026724 15.913680048268029 0 0 -1
497 1 10.964886797556167 10.259516237619097 11.2636745134381 -1 -1 -1
828 1 10.7972108599643 10.00361352156519 18.40348163339446 0 2 0
1099 1 11.927869709441262 11.71343951177013 13.246018377156945 0 0 0
4523 1 1.3867440944997573 29.594087702213432 10.725876758067107 0 0 2
115 1 17.087273849092995 8.621364497043675 24.873513315475112 -1 1 1
1959 1 7.859942870127885 15.753585185262864 14.303629060721441 0 1 0
4191 1 4.746853946994266 14.261675247389642 11.656034357231762 2 0 1
2249 1 16.489980949356276 46.00789764037741 16.191162938620273 2 -1 0
4168 1 15.100609787258009 25.384309489309267 17.697403133525526 0 0 0
1505 1 2.1958673013757113 18.447084353134503 13.955727146105644 -2 0 0
2711 1 7.137064446277193 18.77991408991686 13.440008645139617 0 1 0
3605 1 12.321321854635217 17.229118582089068 14.947747882084743 1 0 0
9 1 7.248202889841702 13.850680762511443 12.59256835485134 -1 -1 -1
4493 1 15.718069816911614 16.265214830290816 10.087659796752382 -1 0 1
3449 1 1.176757466926835 15.904820262214068 2.5190406338077094 1 0 1
2942 1 3.0235087300598837 18.64787837979658 16.656350487664454 1 0 0
3510 1 6.397286303614654 4.457760258377444 0.2887263838852838 1 1 1
619 1 2.1305719919317756 21.029703290826788 13.776419483283563 -1 -1 0
2605 1 6.544427425292629 23.119381392758626 12.798632694178886 1 0 1
2226 1 7.707955742491152 20.317934094693534 10.959345477832072 0 -1 -1
3815 1 6.556235053286997 20.367106130952337 15.395612375714814 1 0 1
1925 1 9.739862316260307 17.84602071468158 13.122347928818147 0 0 0
1614 1 9.980964157881038 20.79988564249449 14.490840447925564 1 0 1