LAMMPS data file via write_data, version 29 Oct 2020, timestep = 100000

8517 atoms
1 atom types

0.32816005759631395 104.29364959460366 xlo xhi
-0.3107466620469772 50.58401912325783 ylo yhi
-0.3107466620469772 50.58401912325783 zlo zhi

Masses

1 18.015

Atoms # atomic

320 1 3.2839164411523427 1.8110224387777736 2.555910169455708 0 0 0
221 1 1.6005763076456412 3.211384173804867 1.00313665134549 0 0 0
224 1 9.72057698606042 0.9871919634256094 2.5433609322357977 0 0 0
225 1 14.57141922273452 3.2058657771883396 0.9630598212245005 0 0 0
228 1 16.15908438638853 0.7750592672263561 2.5040959775277876 0 0 0
1022 1 22.059403424448263 2.0648528971029174 2.704833459844074 0 0 0
853 1 25.736957396361987 0.8774776950689747 0.10376074505908123 0 0 0
942 1 28.48555779633513 1.9756208839595963 2.7771649723239107 0 0 0
943 1 33.445195649253876 3.1416975998999948 0.9710305506138588 0 0 0
944 1 34.93097028519953 1.7925630735279676 2.453093366359179 0 0 0
222 1 6.788200961728236 5.2765727454260425 2.518495640173203 0 0 0
230 1 4.955327002287141 6.343173039792391 0.8635167895079356 0 0 0
223 1 8.326748759531373 3.433894040423076 1.2396886286967475 0 0 0
226 1 12.796208383148935 4.851737476741203 2.571923942677352 0 0 0
937 1 20.925634129620885 3.4970062069176873 0.6038031914146278 0 0 0
797 1 19.47526148374052 4.5226519823098 2.8220615584213 0 0 0
233 1 17.96541438555958 6.019711745341687 1.2902661648244944 0 0 0
948 1 23.93268215392551 6.378590328730719 1.2789366341733537 0 0 0
940 1 26.951680141291575 3.3801015840623996 1.2159280638772902 0 0 0
938 1 25.55468371719458 4.767425228430557 2.8042231021356847 0 0 0
949 1 30.00536091951728 6.391559049568971 1.201144670615086 0 0 0
951 1 31.763601981303456 4.756964935601648 2.7199514440597556 0 0 0
229 1 3.321548404191522 7.738877350941076 2.557036192045939 0 0 0
235 1 1.6354805783568995 9.518865924384167 0.7120386941334298 0 0 0
231 1 9.97193028799632 8.11690058818001 3.116377139280498 0 0 0
232 1 11.465445693006679 6.447356434270345 0.9847373848118315 0 0 0
234 1 16.295762256199538 7.9241335359100855 2.7947661584355368 0 0 0
238 1 14.526473336455851 9.418491596782092 0.9969002881077567 0 0 0
952 1 20.575610259523607 9.439726014461476 1.2566584099574165 0 0 0
946 1 22.372075853298178 8.084091944582456 2.8180466844491363 0 0 0
955 1 26.786204329127518 9.469762509138 1.4758668394719536 0 0 0
950 1 28.368266271684917 7.796931214470595 2.676980127036684 0 0 0
956 1 32.902226331568116 9.558112279128919 1.6900097885075325 0 0 0
236 1 6.498694879685948 11.228237713087633 2.762602243846097 0 0 0
237 1 8.121346561938896 9.64256413887866 1.4449161363752756 0 0 0
239 1 13.046749138411183 10.934542642862723 2.4192132396355 0 0 0
246 1 17.432115524426234 12.705550262136377 1.3900361917656199 0 0 0
741 1 18.96022971511638 11.200785763744497 2.9321298463673706 0 0 0
959 1 23.54416193443771 12.730230625053327 1.4862353003171018 0 0 0
953 1 25.311863633396225 11.265104786524216 2.901233162020451 0 0 0
957 1 31.30947341931308 11.001961928340664 2.9210040083942785 0 0 0
961 1 29.91597506060193 12.576113259117996 1.0935929424737643 0 0 0
241 1 3.5972087358568507 14.397944795676628 3.0158045907627007 0 0 0
249 1 1.8120591994492266 15.82195845205992 1.4559889223815752 0 0 0
242 1 4.927448879658921 12.920635492399125 1.2478239705706966 0 0 0
146 1 6.626282449102397 14.556203971108639 0.05729810003216862 0 0 0
243 1 9.720154351884897 14.804144713084924 2.468226775503026 0 0 0
245 1 11.414847839646068 12.98632397052449 0.9205587119847252 0 0 0
247 1 16.120953799188094 14.226201065577587 2.9114076519750824 0 0 0
252 1 14.600715579379921 15.535753345096639 1.1541987423351725 0 0 0
964 1 20.88480215997574 15.462324968058175 1.5422218628899065 0 0 0
966 1 26.711704619822658 15.54026983814466 1.5037027153046632 0 0 0
960 1 28.58948734544816 13.948016996570306 2.7148877651679935 0 0 0
963 1 34.512037286442315 14.807144331676184 2.9900202726059946 0 0 0
967 1 32.90269623961046 15.879690047305761 1.2614568719134136 0 0 0
194 1 16.435706065231606 35.94455203336014 -0.07823178477585463 0 0 0
256 1 5.171198688790686 19.049904763382404 1.059428172669071 0 0 0
251 1 7.901046703843398 16.270259209569133 1.506519210276205 0 0 0
253 1 13.075096508798188 17.262343528156343 2.69487666011533 0 0 0
259 1 17.587013029517408 18.6106969752453 1.2026334919275024 0 0 0
740 1 19.1349214793121 17.12475183469517 2.8114457146014837 0 0 0
970 1 23.51386854175709 18.43859083193878 1.4099614446953939 0 0 0
965 1 25.36165114045073 17.207496950745345 3.0810312608056707 0 0 0
968 1 31.65041537628512 17.664353515034083 2.5632744808179697 0 0 0
261 1 1.9773315840750192 22.13999506483365 0.9973793288583324 0 0 0
255 1 3.975701338846107 20.32899550451409 2.8663420289759114 0 0 0
258 1 9.830747038918272 20.734902520967562 2.752725455992657 0 0 0
264 1 8.063545552049728 22.062847100280827 1.1169888822915464 0 0 0
257 1 11.796087269595779 19.166321514400487 1.0760714121274777 0 0 0
260 1 16.066618117921042 20.447419793360712 2.4415551197787577 0 0 0
975 1 20.588239619411425 21.93155718706859 1.2121648713940696 0 0 0
969 1 22.16086418519808 20.18418597142539 2.880542638821841 0 0 0
977 1 26.99777444746016 21.38153913998949 1.1005641364505638 0 0 0
972 1 29.967129248549426 19.196302303491468 0.8404989943670009 0 0 0
971 1 28.54539975022208 20.046958027693268 2.8330787541931057 0 0 0
974 1 34.69708543846522 20.77636113492539 2.269938850765942 0 0 0
979 1 32.89290147391542 22.25518824316352 1.0494187223386504 0 0 0
627 1 0.42712473353671765 23.752504928397148 2.6561672811247177 0 0 0
263 1 6.6667954687063045 23.802818641843505 2.5369988446370337 0 0 0
272 1 5.221694707195734 25.343823783959543 0.7839863430785894 0 0 0
267 1 13.045461435377138 24.00366445051388 2.4795810606561925 0 0 0
266 1 14.515225606807768 22.517619666111887 1.1627872607422252 0 0 0
268 1 17.680046665446596 25.398383148390973 1.208865532272677 0 0 0
739 1 18.943896250131864 23.630361988635958 2.705565537170429 0 0 0
983 1 24.009334197254443 25.134965011675764 0.9065823260400774 0 0 0
976 1 25.684537146052843 23.305493171421833 2.34579424589757 0 0 0
978 1 29.838221979436604 25.020163770890186 1.0996224856133976 0 0 0
980 1 31.6574047339431 23.457467994327594 2.8559833361568807 0 0 0
270 1 3.5479977047140028 27.087265348854825 2.2244514871382073 0 0 0
271 1 1.7497002592449191 28.572610291020457 0.9596373522271882 0 0 0
274 1 9.493827838081305 27.022457320203188 2.53023970568353 0 0 0
265 1 11.314579822739987 25.500815603331535 1.077743038494354 0 0 0
277 1 15.828832633129641 26.854174133741893 2.5157081781308466 0 0 0
276 1 14.247371715939629 28.360561367810465 0.8578391148812141 0 0 0
981 1 22.26501211054173 26.704321170327987 2.591029737491728 0 0 0
985 1 27.188234526648642 28.520679024737586 1.1729495541198116 0 0 0
984 1 28.5829840701708 26.723301218453752 2.691286834169189 0 0 0
987 1 34.72751082088331 26.828932839117744 2.433579746260043 0 0 0
986 1 33.19401206529505 28.610015643496695 1.1049088479431417 0 0 0
4305 1 34.9823739936391 26.993773872467372 21.71057113466695 0 0 0
278 1 6.578640123073464 30.053074977232797 2.9343060497582822 0 0 0
279 1 5.369181086154477 31.330023374849027 0.9027113633494765 0 0 0
273 1 8.364891585152476 28.815149531212988 1.1332650561796715 0 0 0
281 1 12.926611252610142 30.059058620364375 2.6729812223308125 0 0 0
280 1 11.324328183008516 31.68556660632598 1.0996613273187459 0 0 0
282 1 17.49477438302834 31.78448193758563 1.1274813585414574 0 0 0
982 1 20.523513247656727 28.697091062462363 1.0507624723159903 0 0 0
733 1 18.91450648647785 30.10542745884718 2.9351984793441983 0 0 0
990 1 23.786142177978963 31.423280836801652 1.0060580545074391 0 0 0
989 1 25.427356077360137 29.85977589329853 2.5828801120081724 0 0 0
991 1 31.21342370454434 29.932134486335137 2.8953481972193895 0 0 0
994 1 29.96926962455682 31.60939396850936 1.0172802189716603 0 0 0
284 1 3.5571163495788025 32.610003297952645 2.4532809290852415 0 0 0
285 1 1.8245062702476547 34.606469967036006 1.3111900764244855 0 0 0
287 1 9.866232348581578 33.017581770298435 2.797317287259237 0 0 0
286 1 8.475445916351322 34.57119898833972 0.9836308278699726 0 0 0
289 1 15.836931782176663 33.43236616553146 2.658465264730125 0 0 0
993 1 20.73073219919816 34.75084051058464 1.2855800310140366 0 0 0
992 1 22.32701285936626 32.780369125866 2.7118027072147894 0 0 0
995 1 26.925727234443134 34.771386461905166 1.037532945137098 0 0 0
996 1 28.552459654282085 33.01378380647242 2.7873760680158433 0 0 0
998 1 34.87785428773384 33.12487059711303 2.6182225567687585 0 0 0
997 1 33.29482393697582 34.82257359956505 1.0638992438448107 0 0 0
291 1 6.798059180768278 36.1550471887946 2.3035546039378443 0 0 0
292 1 4.999915749026576 37.660469658745725 1.198347576144745 0 0 0
294 1 12.745287336662999 36.43802942458271 3.061484862977899 0 0 0
293 1 11.217224150253918 37.820352520726715 1.2081352398909988 0 0 0
288 1 14.31225497513062 35.23450299759254 1.321552209891498 0 0 0
845 1 19.347714850438592 36.23780313156389 3.0887630496577603 0 0 0
296 1 17.802159003997307 37.8572703104407 1.2624105407067496 0 0 0
999 1 23.96034715082286 37.93080813211701 1.0489690099856588 0 0 0
1000 1 25.55328333784626 36.273538388673515 2.841305158445742 0 0 0
1001 1 30.42321418792994 37.568842902112564 0.9254032157488541 0 0 0
1002 1 31.693590504919108 35.96946880726723 2.898919637768176 0 0 0
299 1 3.3322438359222404 39.00695824370814 2.5913836112974944 0 0 0
298 1 2.1544453532562864 41.044627233650274 1.1803939047412488 0 0 0
301 1 10.029999420837811 39.55555739483364 2.4368913110270443 0 0 0
300 1 8.459893439600405 41.06861219049286 0.8397613559206298 0 0 0
303 1 15.815501588720872 39.633758828586835 2.796704883596744 0 0 0
302 1 14.722315338315651 41.07558309157275 0.9106432130314972 0 0 0
1003 1 21.086956244461255 41.053490481015174 1.1547310658270569 0 0 0
1004 1 22.643511004617572 39.22480552940671 2.940800314143329 0 0 0
1005 1 27.34419227942942 40.61000249831909 0.8150638317339745 0 0 0
1006 1 28.7990979088078 39.10165298607171 2.562225249352893 0 0 0
1008 1 34.800511808302474 39.64239839776377 2.691855452527382 0 0 0
1007 1 33.12923038994871 41.039487447402195 1.0545312868825472 0 0 0
1597 1 15.730105926357139 49.07898710197786 24.468837452088454 0 0 0
308 1 6.109921275410216 42.70799834581622 2.4881493373803454 0 0 0
307 1 4.683241721719794 44.16984892236573 0.7488468989615911 0 0 0
310 1 13.020531035498458 42.47137333657362 2.2615043119317937 0 0 0
309 1 11.256892577628168 44.2221007783108 0.863232450455488 0 0 0
936 1 19.487268383044476 42.4225216716968 2.576408343400603 0 0 0
312 1 17.765493102525927 44.00561635973746 1.165314669247872 0 0 0
1010 1 24.15392682051121 44.16118674943017 1.3341942231220918 0 0 0
1011 1 25.655172296330022 42.15984781307587 2.612403685752935 0 0 0
1012 1 30.12766357862603 43.9133336807449 0.9963802056405362 0 0 0
1013 1 31.79363351953976 42.309189155087736 2.9673776720465477 0 0 0
313 1 3.1906647112898883 45.935300754072 2.468368165065547 0 0 0
314 1 1.558915637183701 47.49617962330842 0.9590296724123386 0 0 0
315 1 9.804121214300391 45.86706736214791 2.4104743779468745 0 0 0
316 1 8.221710718052112 47.6067004547552 0.9248113772037945 0 0 0
317 1 14.08921409714121 47.531677069641376 0.7866297581408079 0 0 0
318 1 15.793867844958132 45.888207102518365 2.3726667426638266 0 0 0
1016 1 20.80855370570285 47.223187276629645 1.2324347640978046 0 0 0
1015 1 22.375868094530635 45.990098041013425 2.773158910456098 0 0 0
1017 1 26.85228081124249 47.13485985464423 1.3857463987226266 0 0 0
1018 1 28.507639163297313 45.32951554959398 2.5887123391723685 0 0 0
1020 1 34.619967866236976 45.7727728812697 2.6653290859964 0 0 0
1019 1 32.66898132220672 47.329094595706806 1.3121565863572626 0 0 0
322 1 5.008026402977207 50.281715205905684 1.1090443611711789 0 0 0
321 1 6.932302103099213 49.072254048452876 2.592676809828011 0 0 0
323 1 11.077749670929842 50.371690347664696 0.8634369261645902 0 0 0
324 1 12.67137891922531 49.235409742921874 2.1959561664475005 0 0 0
326 1 17.376563527130156 50.48167662072795 0.4978855469112229 0 0 0
1049 1 19.160736519255828 49.120288530653596 2.134249007470059 0 0 0
1024 1 23.48798166532841 -0.23833894423138405 1.5171125524940148 0 1 0
1023 1 25.31926561161457 49.14153267539052 2.635185375893535 0 0 0
1025 1 30.261423667157583 -0.15879836161296956 1.3493418278208884 0 1 0
1027 1 31.013982504764794 48.88922235745089 2.940585153012658 0 0 0
932 1 28.565789562040408 49.171184196695165 0.03257191843303614 0 0 0
1593 1 8.175537634361634 50.48028237870466 22.897094826129702 0 0 0
331 1 6.389651104268328 1.10324810263165 5.836344818494517 0 0 0
336 1 12.607236121113196 1.0853799371712336 5.86192022016837 0 0 0
332 1 11.412030223408218 3.1506794610959816 4.200305469117922 0 0 0
120 1 19.060340311735548 0.8928940871514324 6.0603069084596015 0 0 0
1137 1 25.70920507084317 1.085222303268604 6.086190444882155 0 0 0
941 1 30.353336587119305 3.1580939989739667 4.164346329398988 0 0 0
1034 1 31.75340334359961 1.0083419754305551 5.726345421295007 0 0 0
327 1 3.339692436650346 4.8840780925616905 5.646166629303766 0 0 0
339 1 1.7235631649026595 6.249856649734605 4.180576999463198 0 0 0
330 1 4.824887147663157 3.239704184533226 4.073992964927299 0 0 0
333 1 9.805137042042936 4.805040355592037 5.75498288960431 0 0 0
227 1 17.482817829255907 3.3804067701459215 4.3372296109054 0 0 0
337 1 16.064963940492987 5.064150391627157 5.875756314365119 0 0 0
947 1 20.909809184178478 6.386622951779682 4.280193231681457 0 0 0
939 1 24.06020409716179 3.4150870794550636 4.384804096312198 0 0 0
1029 1 22.740214067149598 5.085145683964095 5.790181562315979 0 0 0
1039 1 26.990552293115762 6.268211917364443 4.360096759691818 0 0 0
1032 1 28.868575814465043 4.857888446489899 6.216747454851918 0 0 0
1035 1 34.75122483498864 4.9119980259198055 5.56683447427161 0 0 0
341 1 6.741418203820503 7.716896861668705 6.038328565899396 0 0 0
349 1 5.0357242051057804 9.343382407872564 4.492507555321498 0 0 0
343 1 8.395044174828827 6.425935537547596 4.439705981128797 0 0 0
346 1 12.822135900404005 8.162811375622393 5.9101799200684635 0 0 0
345 1 14.501826447716759 6.507027327564803 4.304182752401642 0 0 0
354 1 17.30569000102533 9.433037897665644 4.496219351987198 0 0 0
724 1 19.13770556313778 8.175971362781757 5.92530420071304 0 0 0
954 1 23.857780514579844 9.432662124035163 4.468795347814144 0 0 0
1037 1 25.429032833747826 7.963397655272942 6.193334627644148 0 0 0
1045 1 29.99458138716511 9.014790506285276 4.241052047858943 0 0 0
1041 1 33.448405818512704 6.592414664735939 3.8991119098857725 0 0 0
1042 1 31.629095567938286 8.141700480067891 5.913668741060043 0 0 0
348 1 3.230870285809015 11.030152568169362 5.938288068604373 0 0 0
351 1 9.481424305892205 11.064413882917986 6.268038754639103 0 0 0
350 1 11.334660909933676 9.887941137642853 4.480230172353563 0 0 0
355 1 16.05393784524186 10.973781263539186 6.031514107516205 0 0 0
359 1 14.359833037091878 12.622574315663337 4.516559552784373 0 0 0
1050 1 20.640461780452615 12.318084443050205 4.38052362089124 0 0 0
1044 1 22.312049224861994 10.82538377279207 6.11114703169698 0 0 0
962 1 26.888335430164474 12.722612561450273 4.37567298815765 0 0 0
1047 1 28.722180421894443 11.278179092406836 5.528538273767822 0 0 0
1048 1 34.64093208839592 11.346242381778302 5.641098127267387 0 0 0
1054 1 32.80417897958351 12.730621930366947 4.0867376606172074 0 0 0
356 1 2.0596296803943996 12.87902580369683 4.487710687442354 0 0 0
735 1 0.5351558575780992 14.741136255221678 5.948850833273719 0 0 0
357 1 6.898767039400506 14.45851215025905 6.057212383707857 0 0 0
244 1 8.483246995009939 12.82041272929197 4.419130698213693 0 0 0
360 1 12.784128408535146 14.088920861466695 6.04235544174505 0 0 0
366 1 11.548724972232257 15.879594763467228 4.215419385998196 0 0 0
80 1 19.00273284133901 14.053776317827817 5.765381131995989 0 0 0
958 1 22.014199712525265 14.023494897070828 3.305563839636233 0 0 0
1058 1 23.88953920288348 15.723586195571325 4.561400141908224 0 0 0
1051 1 25.397302309764513 14.083655940592445 6.260468841114162 0 0 0
1055 1 31.55399092662497 14.465898902216203 5.879571783377471 0 0 0
2382 1 28.4561382764913 48.953756184641165 24.692934209211664 0 0 0
363 1 3.6876394193096456 17.682511760918384 6.299793305964571 0 0 0
372 1 2.106248222884275 19.09887906461252 4.6966612633468605 0 0 0
250 1 6.441225016037481 17.788305522435675 3.172243697146189 0 0 0
365 1 4.970621007444851 16.059637685727157 4.563431246328625 0 0 0
367 1 9.908386581786308 17.482691424662786 5.847719847141816 0 0 0
370 1 17.49183097491463 15.988512857771433 4.685814257746383 0 0 0
371 1 16.166104731496738 17.783710899363495 6.0453889469407365 0 0 0
1063 1 20.678155435081024 18.627300789819518 4.424544793979433 0 0 0
1056 1 22.361430722867574 17.339968414147446 6.031643287758878 0 0 0
1065 1 27.17110767575945 18.723953114595815 4.4244611818695985 0 0 0
1060 1 30.036597406964713 15.96819212418087 4.031038212371065 0 0 0
1061 1 28.728919048057072 17.313604430743858 6.103536540413585 0 0 0
973 1 33.32310522648048 19.094878801470017 4.219373484376144 0 0 0
1594 1 9.975542073052004 48.922068486484406 24.33377782495247 0 0 0
373 1 6.697940385186702 20.77470508439893 6.284764824932699 0 0 0
381 1 5.1773250398101975 22.310877934818425 4.22003787002314 0 0 0
374 1 8.094717547932277 19.335268350415028 4.508020235588343 0 0 0
376 1 12.798571253031184 20.43703217527005 5.927087622782403 0 0 0
375 1 14.743156047325021 19.25968401605591 4.130610864926319 0 0 0
386 1 17.485648806217778 21.989855113370762 4.025123300439433 0 0 0
825 1 19.152004942738902 20.567917208106604 5.763566446000284 0 0 0
1069 1 24.205112656653604 21.557702021544902 3.981851630910855 0 0 0
1064 1 25.544644152564697 20.367045074641354 6.0058978706395845 0 0 0
1072 1 30.307418750569138 21.55813564337762 4.105457970174185 0 0 0
1066 1 31.947044398148446 20.385257104094404 5.95557403652075 0 0 0
379 1 3.388468481329587 23.5981351033034 5.7554194503622575 0 0 0
378 1 2.0420825501965156 25.24566716766281 4.205437166206395 0 0 0
383 1 9.597703096813563 24.181561851235745 6.070788360736502 0 0 0
275 1 7.980636209153852 25.284637140208396 4.0189650043756115 0 0 0
384 1 11.406752440238714 22.332818630733176 3.9853431238951575 0 0 0
387 1 16.055358533490406 23.64948794764011 5.742319810316103 0 0 0
392 1 14.547625500240535 25.37099711717988 4.255568975179456 0 0 0
1076 1 20.542259930896797 25.244605652862116 4.015130412763413 0 0 0
1068 1 22.448567531487353 23.598063208850384 5.480745772795374 0 0 0
1073 1 27.202364125824435 24.895912158719174 4.128324355007832 0 0 0
1071 1 28.829372562780023 23.392139533281835 5.7259711637567445 0 0 0
1075 1 34.890634945004486 23.53151027361414 5.913467014307923 0 0 0
1084 1 33.34428073320708 25.42015223862132 4.5094602167573505 0 0 0
198 1 13.147355577144827 39.2392640918185 -0.25728281113628426 0 0 0
389 1 6.505170518270797 26.968177643349158 5.503021601756704 0 0 0
397 1 4.900303537057604 28.59960619383592 4.328057264243141 0 0 0
393 1 12.850308522665404 26.818231906059886 5.619126818879855 0 0 0
399 1 11.210822474812053 28.512329483339396 3.9632191593040416 0 0 0
394 1 17.102698582917757 28.54081409702709 4.059132879385683 0 0 0
742 1 19.048138122690514 26.59178309052307 5.46721145060032 0 0 0
1080 1 23.956313170351585 28.075671610912707 4.16114116803178 0 0 0
1078 1 25.54312895040305 26.708567506158083 5.841441356950231 0 0 0
1085 1 31.189839064290858 26.659086513776277 5.410202636493347 0 0 0
1083 1 29.495733184617666 28.441193333318115 4.184811595327799 0 0 0
395 1 3.3203828806171445 30.118015179632877 5.89549871951047 0 0 0
396 1 1.9313687448232142 31.06903484412522 3.968803603842611 0 0 0
401 1 10.087421056976089 29.969832019418856 5.765658080486656 0 0 0
400 1 8.243653838452733 31.578326434160576 4.555970587589332 0 0 0
403 1 14.120404772486944 31.676193129434182 4.214147404445146 0 0 0
405 1 15.507786242953895 30.32310846348289 5.95469052442034 0 0 0
988 1 20.47319787075216 31.554604463655355 4.419805067465439 0 0 0
1088 1 21.927628728054003 29.79227540849654 5.419433228655515 0 0 0
1091 1 26.593145747935605 31.488348695156347 4.5391300474225185 0 0 0
1090 1 28.406350415990776 30.413845308110453 5.964330313781934 0 0 0
1094 1 34.68857111581327 29.76030935519791 5.71825243752546 0 0 0
1093 1 33.18293481133602 31.520526859029303 4.198664374369794 0 0 0
410 1 6.624915422787195 33.25591283024801 5.515192345854782 0 0 0
409 1 5.075489894781666 34.5363536805701 3.8881726930019074 0 0 0
413 1 12.580378988138277 33.37649506361177 5.614870658295629 0 0 0
329 1 18.82555746520032 32.9517121849734 6.246558645062536 0 0 0
415 1 17.8265851776093 34.74479944459705 4.322387119511128 0 0 0
1097 1 23.897195523930346 34.53134958530062 4.442564800127985 0 0 0
1098 1 25.1255866156535 33.06236251443681 6.19904110766126 0 0 0
1100 1 30.166020596329595 34.366529713841274 4.294903436092374 0 0 0
1101 1 31.730380124092505 32.762599879082885 6.053828522357938 0 0 0
417 1 3.691694677426735 36.11539427054372 5.631163312931642 0 0 0
416 1 2.0528721541482637 37.34338772401088 4.337781000609205 0 0 0
2383 1 26.71045628578096 -0.19312173434753166 23.2566531240684 0 1 0
420 1 9.517939884595219 36.33169556401951 5.839659064082968 0 0 0
419 1 8.066049827778714 37.889897977189975 4.128006280780092 0 0 0
411 1 10.994379329134064 35.088389893104605 4.3534936349783 0 0 0
422 1 16.29360419007834 36.73342699762591 5.786117564349605 0 0 0
295 1 14.360238208487816 37.9231488490382 4.53918030626907 0 0 0
1103 1 20.96795668953665 37.90082751172636 4.553148868486183 0 0 0
1104 1 22.151945364859966 36.05670095827013 5.910577634532155 0 0 0
1106 1 27.250543465001062 37.67707802332559 4.324058342821525 0 0 0
1107 1 28.56169989564134 36.10794593306947 5.766809946489521 0 0 0
1110 1 34.78199548465046 36.138254246944825 6.1834722715684185 0 0 0
1109 1 33.40596456022784 37.67676890909884 4.440504542795642 0 0 0
5 1 0.3792177174929402 38.96138993571897 5.6175392604144605 0 0 0
427 1 6.473142220779421 39.473399885074386 5.5065906186442275 0 0 0
426 1 4.853938870247325 40.827365582691456 3.9962574900250534 0 0 0
429 1 11.493816092165535 40.970969323792744 3.793808268494727 0 0 0
430 1 12.967436474773526 39.73334256851561 5.679083056883767 0 0 0
304 1 17.623471713764367 40.47189562637551 4.226025620637988 0 0 0
34 1 19.0833641084018 39.40199377328355 6.108356684115198 0 0 0
1112 1 23.86977714923831 41.038704634857666 4.516907596704841 0 0 0
1113 1 25.44102217287256 39.09763767498791 5.96489975517581 0 0 0
1115 1 30.18912516727333 40.80158465773232 4.225309117052945 0 0 0
1116 1 31.797780598325446 39.21977464991802 6.016596388368961 0 0 0
305 1 1.8794409131616439 43.92759476899353 3.822280179988991 0 0 0
433 1 2.9771220260420725 42.4368512012728 5.577535739561999 0 0 0
435 1 7.916160509795928 44.346033420572226 3.7607745129691894 0 0 0
436 1 10.128242750476653 42.72505740146299 5.393786224936401 0 0 0
311 1 14.226229319349828 44.246007311457475 3.8079419139660065 0 0 0
438 1 16.25329954392469 42.6945030331982 5.349252746015603 0 0 0
1118 1 20.723962211769482 44.4941985715938 4.380892188187977 0 0 0
1119 1 22.38676288095527 42.97583654095904 5.930000221321468 0 0 0
1121 1 27.12443162096787 44.120978171911574 4.3134999179444575 0 0 0
1122 1 28.7596723630513 42.57597387836087 5.872672995206723 0 0 0
1124 1 33.13287937329706 43.957467964780776 4.562596920828637 0 0 0
1125 1 34.93639199270565 42.68265731976777 5.83056453566849 0 0 0
443 1 6.2778387629547705 45.81375748441276 6.01841459206944 0 0 0
442 1 5.2247923507716365 47.40836912022496 4.20594952856141 0 0 0
445 1 11.289531903965893 47.555874531265516 3.7308645901181112 0 0 0
446 1 12.67367770689279 45.96616515224284 5.657702044972994 0 0 0
319 1 17.74080597054023 47.27039614657242 3.5462424087677964 0 0 0
73 1 19.066526732297156 46.44039100381114 5.780147628219619 0 0 0
1128 1 23.90399714993948 47.700542758647515 4.305041095868002 0 0 0
1129 1 25.600562880412596 45.86596140801166 5.781252293661324 0 0 0
1130 1 29.685692192905645 46.712851543388865 4.4223730351795085 0 0 0
1132 1 31.75172364162773 45.53569304337903 6.279765043713175 0 0 0
448 1 1.9833858996537654 -0.2647308602133013 4.0329395584308365 0 1 0
449 1 3.3065122708724513 48.815261464257745 5.595455575248791 0 0 0
451 1 8.147557782676316 50.542371689888085 4.194538491764708 0 0 0
452 1 9.80948193425423 48.609093047626814 5.570082567747508 0 0 0
325 1 14.288314154120883 50.485770263792475 4.118375077953293 0 0 0
454 1 15.950721177449447 48.62268971150482 5.321787758298823 0 0 0
1135 1 20.63877601064885 -0.15967900419090103 4.229825144997727 0 1 0
1136 1 21.94644433363246 48.8834087325738 5.9326909670581065 0 0 0
1026 1 27.185074889247637 50.40466602716067 4.050380216751517 0 0 0
1139 1 28.259575675594316 48.79005449207713 5.839709024389799 0 0 0
1028 1 33.23687624757886 50.33841179179976 4.095193795147341 0 0 0
1141 1 34.47184637229943 48.85071759114635 5.929283185195138 0 0 0
328 1 1.6546100886230573 2.9534759819449126 7.435138099388978 0 0 0
553 1 3.224078889487769 0.8511114900374293 9.23865754310996 0 0 0
334 1 7.928386122391994 3.228751838856953 7.2625172696945 0 0 0
459 1 9.369681182841576 0.8214900027300123 8.829504437645154 0 0 0
462 1 15.866812725430966 1.0650074542749701 8.502789326690243 0 0 0
1223 1 22.296476659719634 1.0008791417399119 9.029787475249083 0 0 0
1144 1 29.0633557305819 0.9106288738273649 8.993369583678607 0 0 0
458 1 6.720290079340493 4.883777377342362 8.874768000390922 0 0 0
342 1 4.877024384629395 6.3537474309750435 7.544650075086125 0 0 0
467 1 12.69566162741327 4.898429606373909 8.822385583403204 0 0 0
335 1 14.38906182868229 3.263169430955598 6.813652098678185 0 0 0
1030 1 21.096669186863014 3.547760730615961 7.310045708060434 0 0 0
820 1 19.14948064500764 4.8431175920991 8.80517884429461 0 0 0
1031 1 27.412163020197642 3.331951197242167 7.748594907789611 0 0 0
1149 1 25.847745877596353 4.905799364744301 9.264515818196983 0 0 0
1040 1 30.487537550267852 6.399430662661071 7.7558269430379525 0 0 0
1033 1 33.74867148152829 3.3556335654250695 7.2736641141565315 0 0 0
1151 1 31.943703538840335 4.844614510276863 9.005450055256523 0 0 0
464 1 2.9771312105655596 8.130636876664484 9.2066613914897 0 0 0
466 1 9.702260790311893 7.923972227101451 9.118473167750022 0 0 0
352 1 8.232270604200828 9.4221986266604 7.5973480403580655 0 0 0
344 1 11.297892454373653 6.464428276617756 7.273655584370372 0 0 0
347 1 17.646337548076115 6.588741716797237 7.489601069632959 0 0 0
469 1 15.6727191719031 7.98399746429369 8.946270970644596 0 0 0
1043 1 20.618097806453907 9.55844541574488 7.5236599121955505 0 0 0
1038 1 23.662553270723702 6.558697358331099 7.898402165025322 0 0 0
1148 1 22.283965985926102 8.210431160659283 9.187540883367166 0 0 0
1155 1 28.65456412685873 8.254740259732456 9.381145916186924 0 0 0
3317 1 34.96957358236341 8.197128565595975 9.045378637681775 0 0 0
470 1 1.7671495107699051 9.651977397641295 7.367007675755026 0 0 0
473 1 6.47923686529539 10.99476625507507 9.053026009386675 0 0 0
358 1 4.8381255089537145 12.39497322594924 7.438687813300232 0 0 0
353 1 14.136476844439322 9.809694224221188 7.545234612595732 0 0 0
361 1 11.424440346129144 12.427945423506616 7.691672889907904 0 0 0
475 1 12.680538492360153 11.255355027493534 9.52058531610249 0 0 0
787 1 19.221589102627952 11.40322639878021 9.177609735925074 0 0 0
1052 1 23.892066746584018 12.462939962457737 7.505436976494618 0 0 0
1046 1 27.236269575805764 9.629522227303923 7.294335478029735 0 0 0
1154 1 25.466068267477617 11.336298496715614 9.404972993047199 0 0 0
1157 1 33.52973460680671 9.99180076469413 7.436702380280315 0 0 0
1158 1 31.792233961546103 11.202771454740247 9.110945261760946 0 0 0
478 1 3.5238847731272944 14.097055460852006 9.110254337046529 0 0 0
480 1 10.002300532959117 14.22516516417199 9.215875800635828 0 0 0
362 1 17.487935709755714 12.788630831141765 7.336699000089821 0 0 0
482 1 15.727690387246113 14.425442322937343 8.980470285075098 0 0 0
369 1 14.481670108689743 15.667317638529129 7.2532103074400744 0 0 0
1057 1 20.578170862594217 15.670366323199321 7.521040489347193 0 0 0
1160 1 22.175148353330293 14.310708067434383 9.159076564674228 0 0 0
1053 1 30.207097711911018 13.006254994332535 7.5526071953442875 0 0 0
1162 1 28.79105812975141 14.497885899651617 9.090541332203744 0 0 0
1164 1 34.657047748824 14.275430697771307 8.878565221675254 0 0 0
1062 1 33.372686240723176 15.903922494301053 7.1949610070344985 0 0 0
364 1 2.2431570571613237 16.007945152952292 7.878341752640525 0 0 0
926 1 25.351345349447172 46.002737367639355 -0.16538020831265085 0 0 0
485 1 7.021607296621381 17.579900802008662 9.319754308267445 0 0 0
368 1 8.539332343043942 15.959471787398261 7.733228432888092 0 0 0
487 1 12.983869982229752 17.091530242741527 9.326050920017732 0 0 0
493 1 11.496449286864534 18.665199103195604 7.546039424057393 0 0 0
771 1 19.255516209857266 17.262977761607548 8.935023273645575 0 0 0
377 1 17.86682641045413 18.9751820141377 7.3558368715716265 0 0 0
1171 1 23.872532405922247 18.958795788139206 7.586104998282552 0 0 0
1059 1 27.184866460712378 16.084703808224198 7.71357368052143 0 0 0
1166 1 25.697396926856268 17.778585223818023 9.110618081840498 0 0 0
1172 1 30.46411461661743 18.93067940843466 7.276677521225891 0 0 0
1168 1 31.94844260427911 17.648605892074404 8.763405356727217 0 0 0
491 1 3.2254761188708554 20.414559668588478 9.183230054934711 0 0 0
380 1 1.921655228149754 22.12125422831306 7.30107540944637 0 0 0
492 1 5.197784598189108 19.139979175044655 7.852433753538669 0 0 0
495 1 10.03635090408095 20.67117321778791 9.162987254843214 0 0 0
498 1 16.12952272114469 20.269483400179375 9.015446794782036 0 0 0
385 1 14.522719743932496 22.159579163791317 7.479154959603564 0 0 0
1067 1 20.818991504603616 22.05831193704375 7.236199092816904 0 0 0
1170 1 22.519905967716802 20.50320877073817 8.875063885533125 0 0 0
1070 1 27.228053260658225 21.913613621648363 7.311290881820889 0 0 0
1174 1 28.82463339235162 20.189467246014974 8.75219338561375 0 0 0
1074 1 33.34625085735214 22.240398554452625 7.405407490940777 0 0 0