
# Define the lattice
#
variable	    lattice_constant equal 6.36339
lattice		    diamond ${lattice_constant}
lattice		    diamond 6.36339
Lattice spacing in x,y,z = 6.3633900 6.3633900 6.3633900

# Define region
# multiples of lattice spacing
#
region 		    simbox block 0 9 0 8 0 8

# Create Atoms
#
create_box          1 simbox
Created orthogonal box = (0.0000000 0.0000000 0.0000000) to (57.270510 50.907120 50.907120)
  3 by 1 by 2 MPI processor grid
create_atoms        1 box
Created 4608 atoms
  create_atoms CPU = 0.000 seconds
mass                1 18.015

# Define potential
#
pair_style          sw
pair_coeff          * * /data/emrosky-sim/Freezing_Simulations/Melting/mW_fancy/mW.sw mW
Reading sw potential file /data/emrosky-sim/Freezing_Simulations/Melting/mW_fancy/mW.sw with DATE: 2019-02-27

# Add velocity/set timestep
#
velocity            all create ${TEMP} 120598 rot yes dist gaussian
velocity            all create 272 120598 rot yes dist gaussian
timestep            5.0

# Define output
#
compute	            1 all msd
thermo              100
thermo_style        custom step temp press vol etotal ke pe c_1[4]

# Neighbor lists
#
neigh_modify        delay 0 every 1 check yes

# Set fixes
#
fix                 1 all momentum 10 linear 1 1 1 rescale
fix                 2 all nve
fix                 3 all temp/csvr ${TEMP} ${TEMP} 500.0 928347
fix                 3 all temp/csvr 272 ${TEMP} 500.0 928347
fix                 3 all temp/csvr 272 272 500.0 928347
fix                 4 all press/berendsen iso ${PRES} ${PRES} 1000.0 modulus 20000
fix                 4 all press/berendsen iso -500 ${PRES} 1000.0 modulus 20000
fix                 4 all press/berendsen iso -500 -500 1000.0 modulus 20000

# Run 0.5 ns equilibration
#
dump		    1 all custom 1000 eq.${NAME}.dump id type x y z vx vy vz
dump		    1 all custom 1000 eq.ice_272K_-500atm_mW.dump id type x y z vx vy vz
run                 100000
Neighbor list info ...
  update every 1 steps, delay 0 steps, check yes
  max neighbors/atom: 2000, page size: 100000
  master list distance cutoff = 6.3065
  ghost atom cutoff = 6.3065
  binsize = 3.15325, bins = 19 17 17
  1 neighbor lists, perpetual/occasional/extra = 1 0 0
  (1) pair sw, perpetual
      attributes: full, newton on
      pair build: full/bin/atomonly
      stencil: full/bin/3d
      bin: standard
Per MPI rank memory allocation (min/avg/max) = 4.778 | 4.778 | 4.778 Mbytes
Step Temp Press Volume TotEng KinEng PotEng c_1[4] 
       0          272   -4583.2148    148418.52   -52818.257     3735.265   -56553.522            0 
     100    216.51888   -1090.2946    141725.76   -51659.619    2973.3655   -54632.985   0.24613443 
     200    215.10907   -528.31151    141134.23    -50783.03     2954.005   -53737.036    0.3232616 
     300    224.01635   -472.11868       141284   -50217.332    3076.3251   -53293.657   0.33642127 
     400    243.29353   -500.64102    141473.83   -49833.033    3341.0507   -53174.084   0.30567386 
     500    260.68291   -519.25822    141612.74   -49561.692     3579.852   -53141.544   0.31795202 
     600    259.56269   -450.58599    141733.82   -49299.763    3564.4685   -52864.232   0.34150234 
     700    267.69787   -443.87671    141764.82   -49231.147    3676.1856   -52907.333   0.28867418 
     800    269.82403    -519.7801    141800.06   -49148.463    3705.3833   -52853.847     0.322196 
     900    265.68122    -505.4873    141870.99   -49133.544    3648.4917   -52782.036   0.31872494 
    1000    274.12564    -456.9477    141827.13   -49179.614    3764.4555    -52944.07   0.30246472 
    1100     272.7377   -486.74055       141854   -49119.182    3745.3955   -52864.577   0.29761065 
    1200    277.65603   -471.29513    141845.89   -49122.513     3812.937    -52935.45   0.31041248 
    1300    271.22969   -502.74409    141847.13   -49031.619    3724.6866   -52756.306   0.33229789 
    1400     273.2968   -508.46677    141853.28   -49124.645    3753.0735   -52877.719   0.29243419 
    1500    268.41878   -537.71736    141829.76   -49159.628    3686.0856   -52845.713   0.31844977 
    1600    276.45328   -488.33085    141843.56   -49103.153    3796.4201   -52899.573   0.32712288 
    1700    271.57274    -518.0882    141856.14    -49124.63    3729.3976   -52854.027   0.29640439 
    1800    271.77027   -502.22905    141857.88   -49122.151    3732.1103   -52854.261   0.29850374 
    1900      272.624   -477.91834    141884.39   -49027.454    3743.8341   -52771.289   0.31915856 
    2000    276.36725   -499.49239    141901.08   -48982.859    3795.2386   -52778.097   0.32121381 
    2100    268.63571     -512.796    141853.19    -49139.93    3689.0646   -52828.995   0.29339352 
    2200    271.32889   -544.00472    141861.81   -49083.581    3726.0489    -52809.63   0.31734332 
    2300    280.32039   -505.11945    141828.86   -49012.158    3849.5255   -52861.683   0.32984911 
    2400    274.55889   -468.28917    141845.05   -49031.701    3770.4052   -52802.107    0.2928819 
    2500     270.8839   -538.08676     141816.7   -49072.289     3719.938   -52792.227    0.3135251 
    2600    274.13697   -504.84576    141826.48       -49109    3764.6111   -52873.612   0.33026904 
    2700     273.9278   -499.63248    141814.71   -49083.402    3761.7387   -52845.141   0.31092018 
    2800    273.81757   -470.87731    141837.92   -48989.787    3760.2249   -52750.012   0.29779004 
    2900    275.73962   -516.36306    141850.26   -49010.402    3786.6197   -52797.022   0.33271294 
    3000    277.68083   -496.19748    141819.81   -49068.789    3813.2776   -52882.067   0.31967699 
    3100    275.51249   -512.48881    141837.31   -49041.434    3783.5005   -52824.934    0.2956658 
    3200    272.64203   -493.49215    141813.16    -49144.17    3744.0817   -52888.251   0.32293035 
    3300    272.62972   -485.69206    141756.33    -49199.28    3743.9126   -52943.192   0.32617154 
    3400    270.76946   -493.75643    141782.99   -49140.885    3718.3665   -52859.251    0.3026479 
    3500    271.03313   -511.41603    141785.09   -49106.002    3721.9873   -52827.989   0.32249394 
    3600    273.66341   -504.61475    141797.32   -49116.799    3758.1079   -52874.907   0.33653232 
    3700    271.87313   -463.81006    141774.59   -49073.008    3733.5227    -52806.53   0.31320977 
    3800    275.64834   -473.74337       141818   -49062.774    3785.3662    -52848.14   0.30691973 
    3900    273.47942   -491.47567    141808.49   -49063.561    3755.5812   -52819.142   0.33359619 
    4000    273.16499   -495.58168     141814.1   -49106.455    3751.2634   -52857.719   0.31971393 
    4100    270.96493   -508.63387    141802.77   -49128.864    3721.0507   -52849.915   0.31082221 
    4200    277.80828   -483.44558    141789.73    -49081.91    3815.0277   -52896.937   0.31978422 
    4300    269.22753   -538.81977    141778.22   -49212.378    3697.1918   -52909.569     0.325283 
    4400    269.37101   -516.96994    141773.68   -49106.268    3699.1622    -52805.43   0.31718129 
    4500    270.60379   -503.27828    141773.38   -49158.845    3716.0914   -52874.936   0.30659606 
    4600     269.0303   -479.64899    141761.14   -49191.714    3694.4833   -52886.197   0.33264047 
    4700     271.3143    -494.1591    141766.76   -49100.101    3725.8485    -52825.95   0.31512095 
    4800    274.38478   -456.32242    141791.57   -49001.648    3768.0142   -52769.662   0.30696055 
    4900    271.14417   -519.26944    141815.26    -48971.65    3723.5123   -52695.162   0.33863956 
    5000    274.27552   -521.88203    141835.04   -49097.892    3766.5138   -52864.406   0.32550725 
    5100     276.4538   -457.80869    141841.69   -49022.415    3796.4272   -52818.842   0.29230052 
    5200    270.86378   -520.10288    141815.42   -49092.029    3719.6618   -52811.691   0.32317069 
    5300    266.87037    -529.1748    141762.44   -49192.164    3664.8219   -52856.985   0.33734805 
    5400    269.11957   -473.63367    141768.65    -49163.58    3695.7092    -52859.29   0.29206766 
    5500    270.86726   -491.01226    141772.67   -49127.528    3719.7096   -52847.237   0.32197106 
    5600     272.5756   -518.49585       141765   -49165.695    3743.1694   -52908.865   0.33142398 
    5700    271.58574   -508.60684    141785.88   -49156.783    3729.5762   -52886.359   0.30969678 
    5800    274.55828   -528.68027    141786.89   -49101.387    3770.3968   -52871.784   0.31341102 
    5900    271.79422    -518.3965    141772.07   -49177.915    3732.4391   -52910.354   0.33087054 
    6000    269.28712   -507.71049    141744.21    -49150.91    3698.0101    -52848.92   0.31964921 
    6100    268.67905   -486.06425    141729.36   -49226.964    3689.6598   -52916.623   0.30569079 
    6200    264.39159   -496.73693    141732.83   -49203.845    3630.7818   -52834.626   0.33719032 
    6300    271.27456   -491.77835    141777.79   -49088.392    3725.3028   -52813.695   0.31614439 
    6400     267.5094    -530.5874    141784.41   -49140.712    3673.5975    -52814.31   0.30889955 
    6500    268.39284   -559.83944    141763.31   -49151.809    3685.7294   -52837.538    0.3242064 
    6600    272.39462   -511.62553    141759.27   -49160.862    3740.6841   -52901.546    0.3242849 
    6700    267.18226   -534.24427       141739   -49210.547    3669.1049   -52879.652   0.32355427 
    6800    271.58267   -470.09963    141723.42   -49160.002     3729.534   -52889.536   0.30587561 
    6900    268.65426   -487.46199    141768.55   -49093.505    3689.3193   -52782.824   0.32271234 
    7000    271.86259   -494.63772     141782.2   -49093.863     3733.378   -52827.241   0.32249592 
    7100    272.34534   -516.22571    141771.66   -49097.345    3740.0074   -52837.353   0.30136822 
    7200    269.32047   -494.66934    141769.21   -49206.725    3698.4682   -52905.193   0.32018241 
    7300    267.13218    -521.2864    141747.51   -49256.421    3668.4172   -52924.838   0.31860086 
    7400    270.16745   -502.54335    141781.44   -49151.722    3710.0993   -52861.821   0.31818832 
    7500    272.61168   -502.75976    141809.47   -49092.275     3743.665    -52835.94    0.3071896 
    7600    273.52319   -462.71201    141818.52   -49065.574    3756.1824   -52821.756   0.32293509 
    7700    266.90516   -541.26615    141799.82   -49160.029    3665.2997   -52825.328   0.32643339 
    7800    268.02272   -515.66678    141779.65   -49210.121    3680.6466   -52890.767   0.29175231 
    7900    268.68319   -497.92401    141788.15   -49160.733    3689.7166    -52850.45   0.33043257 
    8000    273.27074   -502.58479    141816.42   -49061.542    3752.7155   -52814.257   0.32045831 
    8100    268.90561   -530.17643    141842.14   -49033.542    3692.7711   -52726.313   0.31286397 
    8200    273.54494   -483.54099    141843.53   -49049.615     3756.481   -52806.096   0.32040039 
    8300    272.90566   -536.37266    141827.95   -49007.677    3747.7021   -52755.379   0.33252951 
    8400    275.42577   -480.41957    141852.29   -48988.853    3782.3096   -52771.163   0.31046515 
    8500    272.93756   -502.96262    141832.65   -49071.245    3748.1402   -52819.385   0.30330535 
    8600    271.71711    -500.2763    141824.89   -49084.185    3731.3801   -52815.565   0.33493757 
    8700    277.66779   -445.93889    141850.25   -49058.367    3813.0984   -52871.466   0.30221785 
    8800    269.48112   -489.97428    141824.79   -49099.485    3700.6742   -52800.159   0.30484085 
    8900    269.31628   -509.71067    141823.83   -49158.336    3698.4106   -52856.746   0.33277978 
    9000    270.90658   -500.82402    141842.42   -49091.261    3720.2495   -52811.511   0.31743835 
    9100    270.70564   -519.76121    141818.83   -49139.774      3717.49   -52857.264   0.30656539 
    9200     273.2168    -511.8167    141836.86   -49041.861    3751.9748   -52793.836   0.31892914 
    9300    272.39069   -489.18554    141799.02   -49180.169    3740.6301   -52920.799    0.3233717 
    9400    269.17077   -462.51137    141804.78   -49145.853    3696.4123   -52842.266   0.30578625 
    9500     269.5738   -517.65457    141804.76   -49187.622     3701.947   -52889.569   0.31253625 
    9600    267.35722   -515.95523    141783.27   -49178.005    3671.5076   -52849.513   0.32511835 
    9700    275.06631   -479.24742    141822.19   -49067.133    3777.3734   -52844.506   0.31261028 
    9800    273.91554   -474.00686    141865.31    -49020.36    3761.5703    -52781.93   0.31441331 
    9900    278.21273    -489.3932    141861.87   -49048.691    3820.5818   -52869.272   0.31213657 
   10000    271.05108   -491.53885    141846.64   -49100.026    3722.2338    -52822.26   0.32254961 
   10100    269.83115   -490.17609    141841.22   -49051.829    3705.4811    -52757.31   0.30832285 
   10200    273.86312   -467.83811    141867.59   -49025.539    3760.8505   -52786.389    0.3138853 
   10300    278.06095   -509.34033     141899.4   -49028.496    3818.4975   -52846.993   0.31887726 
   10400    276.93831   -519.84947    141860.93   -49029.333    3803.0807   -52832.414    0.3187375 
   10500     271.3187   -510.28495    141820.06   -49076.707     3725.909   -52802.616   0.30369666 
   10600    274.44815   -505.82251    141816.71   -49097.845    3768.8844    -52866.73   0.32779209 
   10700    275.95894   -521.77501    141814.94   -49121.359    3789.6314    -52910.99   0.31814195 
   10800     265.3252   -506.54383    141803.06   -49237.961    3643.6026   -52881.564   0.29963075 
   10900    266.41298   -511.49373    141787.59   -49230.237    3658.5407   -52888.778   0.32656716 
   11000    270.86039   -506.34452    141773.92   -49235.378    3719.6152   -52954.993   0.32164305 
   11100    271.62559    -470.0785    141785.56   -49150.186    3730.1233   -52880.309   0.29915178 
   11200    266.06988   -522.16154    141790.26    -49255.98    3653.8291   -52909.809   0.30854374 
   11300     271.4613   -467.16209    141787.96   -49169.734    3727.8673   -52897.601   0.32959289 
   11400     272.0817   -504.83585    141794.04   -49150.254    3736.3869   -52886.641   0.30050964 
   11500    273.86131   -482.17154    141794.16   -49052.995    3760.8256    -52813.82   0.30785486 
   11600    274.61836    -513.2908    141842.86   -49053.163    3771.2219   -52824.384   0.32715177 
   11700    279.35079   -450.58069    141875.96    -48930.77    3836.2103    -52766.98   0.31370818 
   11800    277.22953   -510.30986    141867.68   -48999.457      3807.08   -52806.537   0.30446284 
   11900    274.22448   -484.97984    141842.77   -49045.675    3765.8129   -52811.487    0.3268947 
   12000    272.30971   -492.13451    141850.07   -49009.442    3739.5181    -52748.96   0.32098701 
   12100    274.14338   -504.59956    141809.59   -49063.491    3764.6992   -52828.191   0.30809849 
   12200     275.7969   -484.31582    141793.01   -49069.883    3787.4062    -52857.29   0.31826987 
   12300    274.59172   -479.65875    141781.63    -49116.78    3770.8561   -52887.636   0.32251981 
   12400    270.43125   -514.52279    141779.71   -49108.279     3713.722   -52822.001    0.3109091 
   12500    279.97004   -445.57221    141810.89    -49043.11    3844.7143   -52887.824   0.30300293 
   12600    279.72311   -525.89274    141851.97   -49014.408    3841.3234   -52855.732   0.32739495 
   12700     272.7002   -521.06606    141835.55   -49080.393    3744.8805   -52825.274   0.31607691 
   12800    269.44784   -503.78086    141840.18   -49070.776    3700.2173   -52770.994   0.31227193 
   12900    268.78853   -532.59894    141801.01   -49125.517    3691.1632    -52816.68   0.32447457 
   13000    272.60009   -476.63127     141803.4   -49101.311    3743.5058   -52844.817   0.32653675 
   13100     275.7327   -487.21246    141822.16   -49177.969    3786.5247   -52964.493   0.30356775 
   13200    267.20496   -499.32655    141804.72   -49201.627    3669.4166   -52871.044    0.3118061 
   13300    265.38889   -505.57787    141796.21   -49282.059    3644.4773   -52926.536   0.32739534 
   13400    271.02112   -491.69999     141765.8   -49265.874    3721.8224   -52987.696   0.31019219 
   13500     269.3599   -498.97078    141812.04   -49184.464    3699.0096   -52883.474   0.30318374 
   13600    271.30789   -512.93757    141817.28   -49135.402    3725.7605   -52861.163   0.33084049 
   13700    273.52385   -472.67355    141835.82    -49170.63    3756.1914   -52926.822   0.30696831 
   13800    274.89034   -483.61611    141819.95    -49115.33    3774.9568   -52890.286    0.3102378 
   13900    269.84225   -495.07956    141795.29   -49105.253    3705.6335   -52810.887   0.32378948 
   14000    274.19157    -492.2244     141825.9   -49000.596    3765.3609   -52765.957   0.33237838 
   14100    272.05282   -518.46434    141800.24   -49085.375    3735.9904   -52821.365   0.30790401 
   14200    278.47877   -460.03877    141797.06   -49086.614    3824.2352   -52910.849   0.30580896 
   14300    269.30101   -513.28537    141791.12   -49122.004    3698.2008   -52820.205   0.34141012 
   14400    266.16897   -523.23061    141769.34   -49171.736    3655.1899   -52826.926   0.30948888 
   14500    270.81774   -517.77539    141756.16   -49191.822    3719.0295   -52910.852   0.31398953 
   14600    272.51782   -462.11566     141748.2   -49142.032     3742.376   -52884.408   0.32926524 
   14700    272.12592    -479.6527    141761.39    -49098.95    3736.9942   -52835.944   0.32815959 
   14800     272.6882   -443.22879    141788.62   -49068.732    3744.7157   -52813.448   0.30447359 
   14900    276.65555   -494.43034    141805.87    -49081.87    3799.1978   -52881.068   0.32091683 
   15000    270.90392   -511.24943    141780.62   -49143.778     3720.213   -52863.991    0.3290637 
   15100    270.35872   -473.70902    141771.49   -49163.278     3712.726   -52876.004   0.30717516 
   15200    273.97411   -473.43144    141805.46   -49094.919    3762.3747   -52857.294   0.32075688 
   15300    267.71221   -499.96833    141795.27   -49174.186    3676.3825   -52850.569   0.32973403 
   15400    273.53187    -492.2756    141771.85    -49165.48    3756.3016   -52921.781   0.30680307 
   15500    267.86768   -497.98672    141768.79   -49103.997    3678.5176   -52782.515   0.31309786 
   15600    270.14823   -493.49003    141819.44   -48989.195    3709.8354    -52699.03   0.33327237 
   15700    276.54964   -514.55681    141852.76    -49009.04    3797.7433   -52806.783   0.31971567 
   15800    275.86908   -498.81332    141844.42   -49010.598    3788.3976   -52798.996   0.30932289 
   15900    277.04103   -535.53351    141847.79   -49033.538    3804.4914   -52838.029   0.31529136 
   16000    268.79317   -493.47015    141818.32   -49068.924    3691.2269   -52760.151   0.33242704 
   16100     270.6805   -502.06016    141792.05   -49103.511    3717.1448   -52820.656   0.31032846 
   16200    270.10729    -481.7003    141792.88   -49110.965    3709.2732   -52820.239   0.31004947 
   16300    267.57643   -543.67171     141792.4   -49130.353    3674.5179   -52804.871   0.33272455 
   16400    271.97258   -521.88775    141776.57   -49138.626    3734.8885   -52873.515   0.32086172 
   16500    273.67295   -502.19175       141795   -49062.226     3758.239   -52820.465   0.30612315 
   16600    278.49507   -514.96847    141764.29   -48990.052    3824.4591   -52814.511   0.33238336 
   16700    273.09629   -504.32975    141760.54   -49024.336      3750.32   -52774.656   0.32909756 
   16800    272.79044    -498.3474    141762.46   -49079.017    3746.1197   -52825.137   0.31074049 
   16900    270.21693   -529.84064    141766.37   -49106.196    3710.7788   -52816.975   0.32772877 
   17000    267.61633   -509.61184    141739.66   -49145.398    3675.0658   -52820.464   0.33111818 
   17100    268.92706   -511.63341    141761.65   -49101.624    3693.0656    -52794.69   0.30970824 
   17200    275.12562   -487.96558    141755.87   -49160.479    3778.1878   -52938.667   0.31581647 
   17300    266.98353    -533.6798    141725.16   -49247.816    3666.3758   -52914.192   0.33070513 
   17400    261.62114    -495.1359    141739.45   -49242.462    3592.7363   -52835.199   0.31165577 
   17500      270.091   -459.88371    141751.67   -49145.464    3709.0495   -52854.514   0.31247175 
   17600    271.33555   -468.00321    141748.46   -49153.677    3726.1403   -52879.817   0.32844605 
   17700     269.1824   -515.34652    141748.18   -49209.299    3696.5721   -52905.871   0.32293487 
   17800    270.91353   -524.28327    141710.06   -49162.224    3720.3449   -52882.569   0.31359559 
   17900    269.69581   -491.18695     141733.7   -49105.916    3703.6225   -52809.539   0.32440431 
   18000    273.63843   -477.51242    141765.93   -49024.674    3757.7649   -52782.439   0.32842778 
   18100    271.92027   -503.43793    141792.44   -49020.931    3734.1701   -52755.101   0.31941933 
   18200    271.76119   -536.42807    141766.43   -49067.663    3731.9855   -52799.648     0.318188 
   18300    274.19542   -508.99056    141781.07   -49075.343    3765.4139   -52840.757   0.32708584 
   18400    270.84776   -522.37128    141771.85   -49167.253    3719.4418   -52886.695   0.31392478 
   18500    273.03015   -488.06519    141781.73   -49110.777    3749.4117   -52860.189   0.30860726 
   18600    270.72245   -509.39267    141785.35    -49061.27    3717.7209   -52778.991   0.33023764 
   18700    274.34777   -505.67743    141786.08   -49084.014    3767.5059    -52851.52   0.32098916 
   18800    274.44614   -481.11035    141759.47   -49096.423    3768.8568    -52865.28    0.3108308 
   18900    268.73574     -460.743    141781.72   -49056.306    3690.4383   -52746.745   0.31911657 
   19000    271.59711    -544.3978     141775.6   -49085.251    3729.7323   -52814.983   0.33607808 
   19100    275.28419   -513.51075    141797.11   -49000.803    3780.3654   -52781.168   0.31556367 
   19200    277.82112   -465.98271     141778.9    -49025.23     3815.204   -52840.434   0.31744156 
   19300    276.46559   -455.41128     141808.2   -48925.247    3796.5891   -52721.836   0.33207254 
   19400    275.51548   -499.62716    141802.05   -48989.917    3783.5417   -52773.459    0.3201337 
   19500    276.25913   -541.46796    141812.56   -48989.657    3793.7538   -52783.411   0.31911086 
   19600    279.70621   -474.92433    141827.02   -48982.373    3841.0912   -52823.464   0.32573669 
   19700    273.89633   -515.00157    141835.21   -49030.346    3761.3066   -52791.652   0.32330005 
   19800    275.64002   -487.46015    141822.34   -48985.445     3785.252   -52770.697   0.30507982 
   19900    271.22266   -523.77385    141811.05   -49065.841    3724.5901   -52790.431   0.32837845 
   20000    270.94672   -544.64285       141809   -49095.227    3720.8007   -52816.028   0.33379574 
   20100    266.96318   -513.02812    141772.59   -49136.405    3666.0964   -52802.501   0.31052585 
   20200    271.64754   -488.05957    141800.85   -49109.792    3730.4248   -52840.217   0.31386283 
   20300    272.79608   -509.36255    141799.46   -49074.517    3746.1972   -52820.714   0.33735992 
   20400    270.86578   -540.70242    141798.63   -49135.307    3719.6892   -52854.996   0.31924045 
   20500    268.37555   -495.74158    141765.06   -49167.304    3685.4919   -52852.796   0.30990785 
   20600    272.11075   -506.30568    141750.03   -49188.997    3736.7859   -52925.783   0.33318915 
   20700    269.53165   -498.39498    141746.73   -49134.929    3701.3682   -52836.297   0.33201933 
   20800    268.34862   -486.86484    141773.52   -49005.574    3685.1221   -52690.696   0.30850222 
   20900    272.85169   -498.45222    141782.05   -49109.463    3746.9609   -52856.424   0.32717082 
   21000    270.44077   -498.11058    141781.46   -49120.742    3713.8527   -52834.595   0.33033367 
   21100    272.88329   -479.01102    141808.94   -49010.427    3747.3948   -52757.822   0.31631259 
   21200    273.02035   -466.95336    141824.12   -49026.554     3749.277   -52775.831   0.31460114 
   21300    271.46195   -492.17039    141827.25   -49020.901    3727.8762   -52748.777   0.32963389 
   21400    272.94346   -522.11807    141825.73    -49059.79    3748.2212   -52808.012   0.32790011 
   21500    276.11058   -490.10487    141847.63   -48967.925     3791.714   -52759.639   0.30721553 
   21600    268.31259   -516.26008    141837.71   -48974.528    3684.6273   -52659.155   0.33516072 
   21700    271.66312   -498.31031    141800.45    -49098.53    3730.6388   -52829.168   0.33266877 
   21800    274.08402    -538.0801    141780.48   -49131.167     3763.884   -52895.051   0.31005599 
   21900    274.26176   -504.37989     141803.1   -49109.022    3766.3249   -52875.347   0.31655969 
   22000    269.45991   -500.45281    141800.99   -49141.993     3700.383   -52842.376   0.33607755 
   22100     270.4649   -505.99765    141777.61   -49180.524    3714.1841   -52894.708   0.31295976 
   22200    263.43222   -539.73201    141723.16   -49255.729    3617.6072   -52873.336      0.31067 
   22300     266.2864   -498.11982    141740.88   -49152.958    3656.8024    -52809.76   0.33873247 
   22400    270.09773   -487.29509    141782.12   -49097.855    3709.1419   -52806.997   0.32478377 
   22500    273.07969   -494.72723    141840.09   -49059.111    3750.0919   -52809.203   0.29929856 
   22600    275.45425   -501.54937    141812.86   -49089.335    3782.7008   -52872.036   0.32708799 
   22700    267.91046   -539.98882     141792.6   -49146.671     3679.105   -52825.776   0.33481485 
   22800    275.94025    -489.2184     141828.6   -49075.614    3789.3749   -52864.989   0.30286712 
   22900    272.56373   -502.54682    141805.02   -49110.461    3743.0065   -52853.468   0.31959947 
   23000     269.2894   -516.67274    141783.58   -49177.828    3698.0414   -52875.869   0.33142154 
   23100    266.36301   -514.29562    141786.99   -49121.339    3657.8545   -52779.193    0.3141029 
   23200    272.70628   -455.31023    141811.81   -49071.068    3744.9641   -52816.032   0.31591565 
   23300    279.91422   -478.30708    141827.94   -49072.066    3843.9477   -52916.014   0.32206157 
   23400    274.78379   -517.71386    141810.27   -49117.066    3773.4936   -52890.559   0.31572406 
   23500    275.92108   -515.60409    141814.29   -49006.918    3789.1116    -52796.03   0.31993428 
   23600    277.63344   -502.82098    141795.18   -49024.541    3812.6267   -52837.167   0.31993017 
   23700    277.85547   -477.46648    141823.86   -49017.585    3815.6758   -52833.261   0.33055351 
   23800    274.57655   -497.38644    141835.44   -49024.526    3770.6478   -52795.173   0.31742984 
   23900    272.04435   -519.47701    141826.82    -49114.27     3735.874   -52850.144   0.30771292 
   24000    276.85946   -491.08353    141816.58   -49056.818     3801.998   -52858.816   0.32850125 
   24100    276.61036   -505.20454    141831.53   -48999.624    3798.5773   -52798.202   0.32923552 
   24200    271.72495   -497.53956    141794.78   -49111.608    3731.4879   -52843.096   0.30465607 
   24300    269.90803   -520.66693    141764.44   -49154.065    3706.5368   -52860.601   0.33266591 
   24400     272.5661   -484.26977    141736.35   -49176.243     3743.039   -52919.282   0.33150416 
   24500    269.89794   -503.96063    141733.46   -49126.606    3706.3983   -52833.004   0.31045147 
   24600    269.01068   -507.40452    141754.82   -49172.205    3694.2139   -52866.419   0.32027604 
   24700    269.15336    -474.6006    141738.39   -49177.911    3696.1732   -52874.084   0.33926627 
   24800    273.81727   -468.92999    141772.94   -49126.886    3760.2208   -52887.106   0.30736819 
   24900    269.48658   -525.35836    141770.37   -49177.874    3700.7492   -52878.623   0.30371221 
   25000    269.41067   -499.65962    141774.08   -49169.103    3699.7067    -52868.81    0.3420989 
   25100    270.19399   -503.32764    141751.89   -49220.464    3710.4638   -52930.928   0.30586923 
   25200    264.46093   -533.32753    141701.38   -49339.741     3631.734   -52971.475   0.30791512 
   25300    269.39703   -538.46014    141719.27   -49185.497    3699.5195   -52885.017   0.33750865 
   25400    266.42017   -521.56326    141742.09   -49226.059    3658.6395   -52884.698   0.32972588 
   25500    267.45626   -458.36333    141771.03   -49109.936    3672.8677   -52782.803   0.30636635 
   25600    271.66458   -543.35458    141829.01   -49042.439    3730.6588   -52773.098   0.33432758 
   25700    270.65727   -501.31546    141807.35   -49126.898    3716.8258   -52843.724   0.33413713 
   25800    271.80283   -490.38161    141801.82   -48988.489    3732.5573   -52721.047   0.30443018 
   25900    276.67751   -510.88678    141859.77   -49013.492    3799.4994   -52812.992   0.32364544 
   26000     271.9274   -483.97731    141842.23   -49058.621     3734.268   -52792.889   0.33055837 
   26100    275.86801   -515.62624    141855.37    -49047.39    3788.3828   -52835.772   0.31157128 
   26200    271.60836   -493.69148    141830.43   -49145.079    3729.8868   -52874.965   0.30939814 
   26300    270.26471   -483.67996    141793.51   -49106.004     3711.435   -52817.439   0.32768057 
   26400     271.4291   -534.79153    141781.62   -49163.789     3727.425   -52891.214   0.31992097 
   26500    272.17104   -497.78701    141806.52    -49078.13    3737.6139   -52815.744   0.31024213 
   26600    270.67839   -480.13755     141836.2   -49034.516    3717.1159   -52751.632   0.32565703 
   26700    274.89345   -503.99382    141839.53   -49028.303    3774.9996   -52803.302   0.32234233 
   26800    272.20789   -501.66612    141837.35    -49081.85    3738.1199    -52819.97    0.3180444 
   26900    273.84017   -486.83798    141862.34   -49025.283    3760.5353   -52785.818    0.3097391 
   27000    270.70454   -519.95349    141840.11   -49054.781     3717.475   -52772.256    0.3242742 
   27100    272.11497   -475.24384     141809.3   -49001.537    3736.8438   -52738.381   0.33127955 
   27200    274.16822   -542.15726    141783.91   -49063.589    3765.0403   -52828.629   0.30882037 
   27300    281.76505   -475.23506    141846.09   -48906.716    3869.3645   -52776.081    0.3211717 
   27400    277.80624   -486.55884    141854.65   -49023.272    3814.9997   -52838.272   0.33285999 
   27500    272.62524   -523.54223     141810.6    -49126.81    3743.8511   -52870.661   0.30631459 
   27600    273.10371   -502.87112    141779.74   -49171.391    3750.4217   -52921.813   0.30910698 
   27700    273.09224    -471.0123    141815.74   -49077.544    3750.2643   -52827.808   0.33974417 
   27800    273.86822   -476.14513    141852.72   -49056.869    3760.9206    -52817.79   0.31370978 
   27900    269.41697   -482.16056    141830.64   -49113.585    3699.7934   -52813.379   0.30532974 
   28000    273.30931   -463.64108    141796.44   -49181.508    3753.2452   -52934.753   0.33299349 
   28100     269.5529   -512.70294    141774.89    -49157.43    3701.6599    -52859.09   0.31932787 
   28200    272.31926   -497.62473    141771.62   -49126.301    3739.6492    -52865.95   0.30643376 
   28300     268.9342    -520.6843    141774.44   -49145.439    3693.1636   -52838.603   0.33938383 
   28400    270.64527    -484.4398    141789.39   -49080.803     3716.661   -52797.464   0.33123667 
   28500    275.33925   -502.76588    141788.72   -49116.808    3781.1216    -52897.93   0.30601323 
   28600    272.15833   -484.69829    141739.35   -49115.606    3737.4393   -52853.045   0.33001187 
   28700    274.38959   -507.70605    141755.14   -49118.805    3768.0802   -52886.885   0.33170525 
   28800    272.85689   -498.01571    141738.56   -49155.948    3747.0323    -52902.98   0.31267633 
   28900    268.95326   -515.12477    141746.12   -49126.604    3693.4253   -52820.029   0.32428365 
   29000     271.9833   -481.70096     141760.2   -49069.975    3735.0357    -52805.01   0.33785865 
   29100    276.11295   -517.73853    141787.91   -49066.297    3791.7464   -52858.043   0.31720391 
   29200      275.646   -493.71978    141827.37   -49006.781    3785.3341   -52792.115   0.32125074 
   29300     277.0291   -504.18072    141832.08   -49011.686    3804.3276   -52816.013   0.32703527 
   29400    279.02884   -475.52057    141840.18   -49027.768    3831.7891   -52859.557   0.31773325 
   29500    274.11361   -518.07334    141802.51   -49063.238    3764.2903   -52827.528   0.32304638 
   29600     278.5456    -482.2226     141827.8    -49041.39    3825.1531   -52866.543   0.31239217 
   29700    272.38364   -515.47944    141802.59   -49111.286    3740.5333    -52851.82    0.3312632 
   29800    272.02764   -514.81895    141758.57   -49197.634    3735.6446   -52933.278   0.31534958 
   29900    268.36192    -512.8323    141741.91   -49178.042    3685.3047   -52863.347   0.31606423 
   30000    267.95509    -535.0536    141765.64   -49145.788    3679.7179   -52825.506   0.32885852 
   30100    271.17793   -499.81163    141796.79   -49113.712    3723.9759   -52837.688   0.32942942 
   30200    267.99344   -496.50675    141802.54   -49125.419    3680.2445   -52805.664    0.3215743 
   30300     275.8956     -492.234    141793.19   -49114.283    3788.7617   -52903.044   0.31999517 
   30400    268.11163   -498.23348    141778.55   -49138.935    3681.8676   -52820.802   0.34322263 
   30500    264.48132   -501.42356    141763.92   -49236.767     3632.014   -52868.781   0.31065898 
   30600    271.05413   -472.96378     141788.1   -49120.928    3722.2757   -52843.204   0.31350163 
   30700    271.05369   -472.85128    141794.84   -49157.216    3722.2697   -52879.486   0.33288472 
   30800     270.3392   -485.78195    141780.93   -49092.675    3712.4579   -52805.133   0.31903993 
   30900    269.43428   -510.21899    141797.53   -49067.978     3700.031   -52768.009   0.31864654 
   31000    268.39987   -553.27027    141800.89   -49104.082    3685.8259   -52789.907   0.33506782 
   31100    267.93715   -518.76431    141773.47   -49111.389    3679.4716   -52790.861   0.33466414 
   31200    274.29905   -482.73097     141805.9    -49063.78    3766.8369   -52830.617   0.30452865 
   31300    275.03394   -519.83324    141831.67    -48998.63    3776.9288   -52775.559   0.33349055 
   31400    271.09465   -518.73026    141841.34   -49110.163    3722.8323   -52832.995    0.3322889 
   31500    270.57254    -489.1726    141818.18    -49064.03    3715.6622   -52779.692   0.30572899 
   31600     277.1193   -484.51736     141807.4   -49089.057    3805.5663   -52894.623   0.32037107 
   31700    276.71096   -497.46961    141763.11   -49052.176    3799.9587   -52852.135   0.33336811 
   31800    271.92066   -520.62104    141774.26   -49117.623    3734.1754   -52851.798   0.31938456 
   31900    275.59969   -472.49654    141753.11   -49109.041    3784.6981   -52893.739   0.31027756 
   32000    271.78753   -476.13365    141774.25   -49062.366    3732.3472   -52794.713    0.3393205 
   32100    270.32744   -501.04139    141777.75   -49099.902    3712.2964   -52812.199    0.3253569 
   32200    268.61503   -493.07458    141753.81    -49211.53    3688.7806    -52900.31   0.30626117 
   32300    269.20529   -514.30064    141733.08    -49159.08    3696.8864   -52855.967   0.33092148 
   32400     272.0623   -486.05736     141726.8    -49247.25    3736.1206   -52983.371   0.32182057 
   32500    268.57055   -488.70938    141746.33   -49115.878    3688.1697   -52804.048   0.31457708 
   32600    269.21421   -476.88743    141758.12   -49062.089    3697.0089   -52759.098   0.31713666 
   32700    271.81589   -513.89241    141768.44   -49155.624    3732.7367   -52888.361   0.32455608 
   32800    274.84108   -495.76007    141777.36   -49026.375    3774.2804   -52800.656    0.3274053 
   32900    272.04151   -516.80088    141801.53   -49098.238     3735.835   -52834.073   0.31463442 
   33000    274.24935   -482.69151    141796.63   -49085.853    3766.1544   -52852.007   0.32686949 
   33100    275.93556    -504.8618    141793.78   -49118.503    3789.3104   -52907.813   0.32633596 
   33200    271.52163    -478.9147    141798.21   -49096.729    3728.6957   -52825.425   0.30678779 
   33300    272.26111   -505.67999    141790.67    -49097.27    3738.8507   -52836.121   0.31876784 
   33400    276.99216   -482.37022    141769.83   -49121.591    3803.8202   -52925.411   0.32688451 
   33500    268.86511   -506.00201    141747.49   -49137.841    3692.2148   -52830.056   0.31489618 
   33600    271.79206   -470.80187    141768.48   -49146.846    3732.4094   -52879.255   0.30940685 
   33700    273.99644   -484.72605    141799.67   -49057.628    3762.6813    -52820.31   0.33650896 
   33800    279.31907   -450.26281    141847.34   -48954.654    3835.7748   -52790.429   0.31332196 
   33900    278.07954   -533.14773    141882.18   -48983.978    3818.7528    -52802.73   0.30401016 
   34000    269.77681   -507.94511     141810.1    -49117.36    3704.7348   -52822.095   0.33208971 
   34100    267.49459   -512.85581    141792.22   -49132.999    3673.3941   -52806.393   0.31848596 
   34200     274.1127   -480.44248    141812.92   -49138.099    3764.2779   -52902.377   0.29161752 
   34300    266.77464   -480.88502    141797.28   -49167.879    3663.5073   -52831.386   0.32637377 
   34400    270.59229   -546.09973    141774.66   -49097.336    3715.9335    -52813.27   0.32786928 
   34500    276.07867   -517.31663    141819.77    -49027.52    3791.2757   -52818.796   0.30437491 
   34600    274.57633   -529.52998     141866.6   -49023.102    3770.6447   -52793.747   0.32146884 
   34700    274.53612   -522.31206    141821.26   -49137.638    3770.0924    -52907.73   0.32360086 
   34800    276.19161   -472.86718    141776.72   -49129.295    3792.8267   -52922.122   0.30407621 
   34900    270.85901   -503.10312    141798.24    -49108.33    3719.5963   -52827.926   0.31860423 
   35000      269.015   -470.90158    141809.11   -49082.401    3694.2732   -52776.674    0.3169759 
   35100    273.11117   -505.95492    141831.57   -49100.212    3750.5242   -52850.736   0.30855588 
   35200    273.63653    -484.7015    141833.79   -49045.106    3757.7388   -52802.845   0.31246467 
   35300    271.73902   -528.01728    141830.96   -49123.897     3731.681   -52855.578   0.30593602 
   35400    273.13013   -496.35862    141769.92   -49122.113    3750.7847   -52872.897   0.32447266 
   35500    267.10515   -502.08088    141769.55   -49106.446     3668.046   -52774.492   0.32075626 
   35600    274.10453   -495.57934    141794.62   -49087.053    3764.1657   -52851.218   0.31541789 
   35700    270.04914   -527.16004    141775.77   -49097.492    3708.4746   -52805.967    0.3283598 
   35800    271.48466   -493.51851     141836.8    -48938.89     3728.188   -52667.078   0.32426326 
   35900    272.52553   -551.82794    141788.11   -49049.457    3742.4818   -52791.939    0.3077518 
   36000    272.59755   -513.00103    141802.82   -49101.738    3743.4709   -52845.209   0.31491318 
   36100    269.42822   -484.53949    141782.24   -49144.751    3699.9478   -52844.699   0.33273429 
   36200    268.66759    -492.8249    141747.65   -49172.401    3689.5023   -52861.904   0.30450257 
   36300    270.95794   -455.62325     141749.7   -49106.548    3720.9548   -52827.503   0.31295167 
   36400    269.61524    -524.4856    141749.27   -49160.394    3702.5161    -52862.91   0.33873648 
   36500    271.95513   -521.17384    141741.37   -49133.265    3734.6488   -52867.914    0.3105626 
   36600    270.14946   -503.39286    141774.94   -49136.676    3709.8523   -52846.528   0.30352096 
   36700    267.57088   -521.19157    141744.58    -49166.88    3674.4417   -52841.321   0.33500873 
   36800    265.14887   -486.21643    141730.69   -49236.782    3641.1812   -52877.963   0.31037568 
   36900    269.74876   -479.88297    141754.19   -49163.634    3704.3496   -52867.983   0.29951005 
   37000    272.47015   -512.56954     141747.3   -49146.261    3741.7213   -52887.982   0.32881317 
   37100    271.60902   -506.71078    141767.93   -49197.837    3729.8958   -52927.733   0.31974714 
   37200    274.30506   -493.54362    141765.72   -49197.011    3766.9194    -52963.93   0.29816288 
   37300    268.19219   -535.85257    141743.15   -49197.332    3682.9739   -52880.306   0.32300607 
   37400    271.31924   -527.80623     141733.9   -49206.441    3725.9163   -52932.357   0.32350482 
   37500    270.70584   -466.15588     141738.2   -49174.805    3717.4928   -52892.297   0.30472522 
   37600    268.93278   -500.57872    141734.47   -49222.977    3693.1442   -52916.122   0.30451741 
   37700    265.30941   -489.73517    141710.68   -49298.703    3643.3858   -52942.088   0.31673322 
   37800    265.99409   -475.99511    141687.47   -49312.165    3652.7882   -52964.953   0.31140642 
   37900    268.40625   -488.00736    141714.93       -49228    3685.9135   -52913.913   0.30822014 
   38000    269.85565   -467.09927    141750.71   -49161.766    3705.8175   -52867.584   0.31845445 
   38100    270.60929   -502.38595    141769.01   -49101.526    3716.1669   -52817.693   0.32040402 
   38200    273.39529   -449.02761    141787.42   -49072.132     3754.426   -52826.558   0.31539987 
   38300    269.56922   -493.73108    141787.38    -49120.34    3701.8841   -52822.224   0.30821836 
   38400    276.00711   -489.33815    141806.51   -49061.589    3790.2929   -52851.882   0.32319376 
   38500    272.78258   -538.29102     141801.9   -49112.898    3746.0118    -52858.91   0.31345076 
   38600    272.93763   -488.34611    141815.14   -49078.795     3748.141   -52826.936   0.29625742 
   38700    276.95263   -466.61501    141828.79    -49050.74    3803.2774   -52854.017   0.32263176 
   38800    272.84704   -530.02161    141801.79    -49078.35     3746.897   -52825.247   0.32305376 
   38900    276.37998   -506.29974    141844.09   -49025.034    3795.4135   -52820.447   0.30351091 
   39000    274.45798   -504.24254    141822.98   -49075.247    3769.0194   -52844.266    0.3174205 
   39100     274.4889   -509.82283    141806.84   -49099.744     3769.444   -52869.188   0.32545177 
   39200    274.76956   -469.84677    141756.73   -49216.673    3773.2983   -52989.971   0.29887546 
   39300    269.33944   -517.60972    141712.78   -49226.383    3698.7286   -52925.112   0.30939451 
   39400    272.77542   -499.52737    141764.08   -49108.675    3745.9135   -52854.589   0.33231582 
   39500    268.66797   -503.10496    141793.33   -49095.532    3689.5076   -52785.039   0.31271572 
   39600    272.80639   -494.41495    141801.52   -49093.973    3746.3388   -52840.312   0.30040361 
   39700    274.97172    -542.3819    141791.05   -49076.952    3776.0744   -52853.026   0.33464432 
   39800    272.37581   -484.49573    141772.94   -49096.151    3740.4258   -52836.577   0.31021664 
   39900    270.99722   -503.07618    141794.67   -49063.377    3721.4943   -52784.871   0.30737493 
   40000    271.15063    -497.4059    141771.03    -49130.22    3723.6009   -52853.821   0.32631716 
   40100    268.73897   -517.03393    141780.69   -49142.357    3690.4827   -52832.839   0.31887821 
   40200    268.38579   -512.75121     141809.8    -49120.26    3685.6326   -52805.892   0.30599048 
   40300    269.97826   -510.53774    141785.76   -49124.729    3707.5013    -52832.23   0.31420099 
   40400    265.75228   -510.67688    141781.89   -49207.534    3649.4676   -52857.002   0.31837693 
   40500    275.15653   -499.51987    141805.48    -49076.09    3778.6123   -52854.703   0.30808945 
   40600    272.25012   -516.55789    141821.49   -49145.945    3738.6998   -52884.645   0.30476442 
   40700    271.02357   -478.59553    141785.24   -49149.972    3721.8561   -52871.828   0.31655755 
   40800     270.9001   -490.99213    141790.91   -49126.761    3720.1606   -52846.922   0.31188603 
   40900    272.28448   -471.52574    141757.56   -49112.289    3739.1717   -52851.461   0.30929429 
   41000    272.31364   -517.93166    141754.94   -49173.118     3739.572    -52912.69   0.31462172 
   41100    272.43733    -515.4259    141729.99   -49139.201    3741.2707   -52880.472   0.32634819 
   41200    273.27921   -514.30298    141776.39   -49031.241    3752.8318   -52784.072   0.31629006 
   41300    273.49469    -483.6489    141793.82   -49115.499     3755.791    -52871.29   0.29885477 
   41400    278.69779   -480.29081    141798.19   -49065.513    3827.2431   -52892.756   0.32068897 
   41500    272.68989   -480.82986     141777.5   -49076.017    3744.7389   -52820.756    0.3192311 
   41600      269.292    -478.3804    141765.08    -49081.24    3698.0771   -52779.317   0.30548264 
   41700    266.34907   -514.60868    141770.86   -49193.796     3657.663   -52851.459    0.3187332 
   41800    274.29583    -477.2893    141764.72   -49109.181    3766.7926   -52875.974   0.32532091 
   41900    271.33307   -514.41222    141730.69   -49184.961    3726.1064   -52911.068   0.30294701 
   42000    270.47792   -471.91614    141749.09   -49156.653    3714.3629   -52871.016   0.31407726 
   42100     271.0782    -451.8612    141744.18   -49222.976    3722.6063   -52945.582   0.32330739 
   42200    268.99349   -504.90924    141747.36   -49183.068    3693.9778   -52877.046   0.30611529 
   42300    270.78932   -483.99705    141762.29     -49148.1    3718.6392   -52866.739   0.30849654 
   42400    266.52655   -496.75234     141757.3   -49169.319    3660.1004   -52829.419   0.32469411 
   42500     269.4376   -532.21282    141772.24   -49141.704    3700.0765   -52841.781   0.31516146 
   42600    264.86445   -527.35054    141751.92   -49167.506    3637.2754   -52804.781   0.31006217 
   42700    268.07241   -517.41967    141722.81   -49238.411     3681.329    -52919.74   0.32555756 
   42800    266.93994    -506.6073    141751.75   -49157.309    3665.7773   -52823.086   0.31504888 
   42900    269.16813   -487.69985    141731.15   -49172.617     3696.376   -52868.993   0.30983608 
   43000    269.10508   -541.47924    141727.38   -49194.325    3695.5102   -52889.835   0.31612712 
   43100    272.83062   -489.60248    141751.68   -49118.985    3746.6716   -52865.657    0.3128413 
   43200    271.91096   -510.50343    141740.03   -49129.459    3734.0423   -52863.502   0.31345535 
   43300    269.33055   -469.85744    141773.19   -49124.679    3698.6065   -52823.286   0.30293712 
   43400    272.24695   -479.17381    141782.98   -49062.843    3738.6563   -52801.499   0.31646241 
   43500    273.76995   -518.15657    141796.16   -49114.622     3759.571   -52874.193   0.31897245 
   43600    267.37332   -536.39582    141776.44   -49155.128    3671.7286   -52826.857   0.31312112 
   43700    268.34431     -509.414    141754.14   -49196.274    3685.0629   -52881.337   0.30417316 
   43800    270.97453   -465.93957    141743.27   -49226.136    3721.1826   -52947.319   0.31821797 
   43900    274.76644   -498.40688    141773.58   -49153.086    3773.2554   -52926.341   0.30626814 
   44000    266.05032   -482.59042    141761.52   -49231.822    3653.5605   -52885.383   0.29665522 
   44100    270.55793   -499.75005    141720.47   -49187.678    3715.4616    -52903.14   0.32859194 
   44200    267.77469   -521.01396     141771.6   -49154.097    3677.2405   -52831.338   0.31316367 
   44300    272.54858   -493.77127    141770.15   -49153.079    3742.7984   -52895.878   0.29588796 
   44400    270.49328   -505.59924    141770.55   -49169.942    3714.5738   -52884.516   0.31533795 
   44500    273.26671   -478.90627    141779.58   -49172.467    3752.6602   -52925.127    0.3211233 
   44600    268.63148   -465.69118    141777.87   -49176.138    3689.0065   -52865.144     0.302331 
   44700    270.80746   -516.75766    141783.99   -49164.443    3718.8884   -52883.331    0.3063317 
   44800    273.05897   -526.61435    141781.63   -49126.066    3749.8074   -52875.873   0.33350035 
   44900    273.01918   -482.40622    141785.97   -49108.991     3749.261   -52858.252   0.29847131 
   45000    269.34234     -507.371    141794.82   -49152.536    3698.7685   -52851.305   0.31050871 
   45100    270.34244   -474.13885     141840.6   -49044.496    3712.5023   -52756.998   0.32204158 
   45200    276.40475   -484.39407    141820.75   -49080.351    3795.7536   -52876.105   0.29829947 
   45300    269.86255     -509.336    141808.29    -49103.63    3705.9123   -52809.542   0.31235485 
   45400    271.69545   -500.00698    141795.73   -49163.574    3731.0827   -52894.657   0.31031258 
   45500    271.30372    -522.0632     141791.9   -49102.787    3725.7033    -52828.49   0.32409329 
   45600    265.20789   -507.10816    141821.73   -49096.754    3641.9917   -52738.746   0.31071456 
   45700    270.57029   -524.23412    141812.53   -49051.552    3715.6313   -52767.183   0.31528252 
   45800     269.6996   -513.03224    141789.86   -49120.284    3703.6745   -52823.959   0.31894129 
   45900    274.95458   -498.43465    141821.09   -48991.797     3775.839   -52767.636   0.30817638 
   46000    275.61897   -500.10236    141835.24   -49053.901    3784.9628   -52838.864   0.30826754 
   46100    275.18527   -462.08604    141823.87   -48961.977     3779.007   -52740.984   0.31007475 
   46200    279.01687   -491.96621     141842.6   -49019.947    3831.6248   -52851.572   0.30941137 
   46300    276.80291   -518.14061    141864.29   -49006.078    3801.2213     -52807.3   0.30638376 
   46400    273.85007   -484.77331    141850.37    -49050.51    3760.6712   -52811.181   0.30463786 
   46500    272.69679   -497.29515    141850.61   -49020.367    3744.8337   -52765.201   0.31367878 
   46600    273.66313   -462.41664    141827.97   -49076.796    3758.1041     -52834.9   0.30573315 
   46700    277.95151   -478.15691    141842.44   -49023.115    3816.9946    -52840.11   0.30271934 
   46800    275.52437   -483.18859    141852.04   -49025.265    3783.6638   -52808.928   0.31931505 
   46900    273.90705   -509.72721    141849.98   -49081.951    3761.4537   -52843.405   0.31401641 
   47000    273.79996   -486.01243    141845.12   -49113.842    3759.9831   -52873.825   0.29482009 
   47100    266.85486   -531.71556    141825.84   -49127.101    3664.6089    -52791.71   0.32131858 
   47200    271.11848   -494.16205    141818.74   -49096.916    3723.1595   -52820.076   0.31559234 
   47300    267.44339   -510.87987    141825.48   -49212.563    3672.6909   -52885.253   0.29840156 
   47400    269.85533   -516.48496    141815.53   -49149.208    3705.8132   -52855.021   0.31159797 
   47500    275.19716    -468.9663    141803.34   -49151.317    3779.1703   -52930.487   0.31825717 
   47600    270.00026   -491.36025    141816.82   -49146.693    3707.8034   -52854.497   0.30105682 
   47700    277.01571   -501.93787    141826.21   -49076.372    3804.1438   -52880.515   0.30292054 
   47800    272.07322   -495.18981    141843.05   -49132.877    3736.2705   -52869.148   0.32342381 
   47900     267.6913   -519.25661     141818.2   -49182.378    3676.0954   -52858.473   0.30827466 
   48000    268.65222   -487.96273    141838.81   -49147.022    3689.2913   -52836.314   0.30717934 
   48100    269.06654   -481.70546     141808.7   -49189.057    3694.9811   -52884.038   0.32388001 
   48200    271.72417    -493.7399    141797.12   -49171.761    3731.4771   -52903.238   0.31274986 
   48300     271.5837   -503.95394    141807.72   -49127.642    3729.5481    -52857.19   0.31048482 
   48400    272.68706    -495.1665    141834.51   -49160.119    3744.7001   -52904.819   0.31296571 
   48500    267.22961   -508.19255    141767.71   -49238.264    3669.7552   -52908.019   0.31242918 
   48600    266.38139   -491.45731    141771.43   -49236.155    3658.1069   -52894.262   0.30984975 
   48700      273.278   -460.64519    141787.64   -49128.902    3752.8152   -52881.717   0.31121868 
   48800    275.42247   -484.84834     141809.9   -49121.889    3782.2644   -52904.154   0.30970623 
   48900     265.0055   -526.73495    141786.18   -49144.895    3639.2124   -52784.108   0.32455199 
   49000    268.96668   -460.70979    141777.17   -49177.507    3693.6096   -52871.116   0.31184968 
   49100    271.23466   -508.31632    141793.54   -49096.253    3724.7549   -52821.008   0.31657366 
   49200    272.66895   -498.67388    141805.51   -49132.506    3744.4515   -52876.958   0.31915402 
   49300    269.09984   -510.48479    141808.89   -49194.498    3695.4383   -52889.937   0.30436008 
   49400    271.68413     -505.831    141763.34   -49205.184    3730.9273   -52936.112   0.30999491 
   49500    270.76697   -515.76718     141796.4   -49153.799    3718.3323   -52872.131   0.31901836 
   49600    269.59235   -512.59513    141787.19   -49149.589    3702.2018   -52851.791   0.31928762 
   49700     269.7063    -519.6041    141787.12   -49156.627    3703.7665   -52860.394   0.30865045 
   49800    271.08094   -510.29407    141797.45    -49162.16    3722.6439   -52884.804   0.32254776 
   49900    271.82853   -462.86912     141799.4   -49140.635    3732.9103   -52873.545   0.31108982 
   50000    270.68644    -510.7665    141786.27    -49151.87    3717.2264   -52869.096   0.30527726 
   50100    271.48918   -467.54771    141808.77    -49013.47    3728.2502    -52741.72   0.33078766 
   50200    273.76715   -497.18073    141818.71    -49082.87    3759.5326   -52842.403   0.31372998 
   50300    272.17878   -506.68388    141803.44   -49097.286    3737.7202   -52835.006   0.30937282 
   50400    272.39709   -494.52481    141786.41   -49111.845    3740.7181   -52852.563   0.31781617 
   50500    272.73787   -554.51184    141787.73   -49029.834    3745.3979   -52775.232   0.32732389 
   50600    280.62112    -494.0995    141821.23    -48962.52    3853.6553   -52816.175   0.31518823 
   50700    271.25544   -468.51612    141770.98   -49179.116    3725.0403   -52904.156   0.31487533 
   50800    273.64307   -510.42356    141750.83    -49167.24    3757.8286   -52925.069   0.31184981 
   50900    271.32914   -538.51161    141728.94   -49192.044    3726.0523   -52918.097   0.31703882 
   51000      272.379   -471.15897    141759.25    -49154.13    3740.4697     -52894.6   0.31410754 
   51100    269.38252   -503.61233    141757.45   -49165.139    3699.3202    -52864.46   0.31948464 
   51200    271.11659   -495.07352    141736.76   -49215.542    3723.1336   -52938.675   0.31686636 
   51300    266.54671   -503.22952    141714.85    -49225.05    3660.3771   -52885.427   0.31044259 
   51400    266.66186   -491.54509    141731.14   -49169.528    3661.9584   -52831.486   0.32904169 
   51500    267.87277   -512.10876    141736.41   -49220.558    3678.5875   -52899.146   0.31544316 
   51600    273.49974   -475.43525    141730.43   -49139.108    3755.8603   -52894.968   0.31291351 
   51700    272.16103   -496.25784    141747.32   -49044.769    3737.4764   -52782.246   0.33132845 
   51800    274.27444   -522.18718    141765.61   -49092.471     3766.499    -52858.97   0.31940329 
   51900    272.00709   -527.80127    141778.87   -49153.218    3735.3624   -52888.581   0.32539851 
   52000    271.70333   -482.82916    141770.93   -49134.365     3731.191   -52865.556   0.31112703 
   52100    269.86563   -489.07895    141738.38   -49207.411    3705.9545   -52913.366   0.32260213 
   52200    266.33464   -500.81071     141736.4   -49262.975    3657.4649    -52920.44    0.3208159 
   52300    267.86878   -511.40609    141734.29   -49245.462    3678.5326   -52923.995   0.31554563 
   52400     269.7355   -507.51727    141738.37    -49327.84    3704.1676   -53032.008   0.32379664 
   52500    268.75288   -471.34812    141736.11   -49179.517    3690.6736   -52870.191   0.31392328 
   52600    268.32854   -495.82093    141777.65   -49148.796    3684.8463   -52833.642   0.32082126 
   52700    270.48057    -486.8445    141804.19   -49092.023    3714.3992   -52806.422   0.31928624 
   52800    271.24418   -522.72359    141839.98   -49067.407    3724.8856   -52792.292   0.32008232 
   52900    275.57213   -473.99487    141843.99   -49090.892    3784.3196   -52875.211   0.31322807 
   53000    273.52143   -477.25154    141841.37    -49040.13    3756.1581   -52796.288   0.31250815 
   53100    268.64712   -539.37363    141812.02   -49174.227    3689.2212   -52863.449   0.31881148 
   53200    269.31051   -503.82476    141760.22   -49215.492    3698.3313   -52913.823   0.32199233 
   53300    268.71801   -489.26102    141733.13   -49179.146    3690.1948   -52869.341    0.3124927 
   53400    269.51073   -485.56786    141779.54   -49111.263    3701.0809   -52812.344   0.32416715 
   53500    271.82527   -503.96613    141800.41   -49105.198    3732.8655   -52838.063   0.32657119 
   53600    272.19929   -464.55941    141800.38   -49161.716    3738.0018   -52899.718   0.30573131 
   53700    266.74406   -549.99918    141802.81   -49144.995    3663.0873   -52808.082   0.32514839 
   53800     269.0463   -547.38815    141748.09   -49171.896    3694.7031   -52866.599   0.31896809 
   53900    268.25952   -525.41021    141744.72   -49175.538    3683.8985   -52859.437   0.32209105 
   54000    269.68206   -492.19855     141757.7   -49188.933    3703.4336   -52892.367   0.31005017 
   54100    271.97517   -475.26945    141759.98   -49158.643    3734.9241   -52893.567    0.3186396 
   54200    270.85006   -512.50146    141776.03   -49112.926    3719.4733   -52832.399   0.32251639 
   54300    277.41766   -498.37776    141800.37   -49043.713    3809.6634   -52853.377   0.31271558 
   54400    272.33793   -515.61375    141833.03   -48971.744    3739.9057   -52711.649   0.33267059 
   54500    275.06201   -473.87975    141821.85    -49036.93    3777.3144   -52814.245   0.31166298 
   54600    276.19123   -537.06332    141806.46   -49045.327    3792.8214   -52838.148   0.32227541 
   54700    271.51519   -561.75898    141786.48   -49105.952    3728.6073   -52834.559   0.33519899 
   54800     273.7043   -503.08737    141825.62   -49036.005    3758.6695   -52794.675   0.31132917 
   54900    270.92437    -512.5114    141835.27   -49056.331    3720.4939   -52776.825   0.32249262 
   55000    275.74178   -499.40667    141834.01   -49081.877    3786.6493   -52868.526   0.31507983 
   55100    269.70579   -524.45985    141822.69   -49101.786    3703.7595   -52805.546   0.31385524 
   55200    267.70754   -505.59677    141788.12   -49211.175    3676.3184   -52887.494   0.31757451 
   55300    268.19224   -490.06634    141750.99    -49253.18    3682.9746   -52936.154   0.31477136 
   55400    272.14523   -477.19987    141758.13   -49221.982    3737.2594   -52959.242   0.31448561 
   55500     267.8375    -525.7966     141741.4   -49176.166    3678.1031   -52854.269   0.32142193 
   55600     274.5432   -511.92355    141784.76   -49084.637    3770.1897   -52854.827   0.31966739 
   55700    274.07356   -549.16463    141809.32   -49049.097    3763.7403   -52812.838   0.31661125 
   55800    277.68189     -518.314     141823.6   -49033.973    3813.2921   -52847.265   0.31490682 
   55900    274.30067   -472.99152    141821.29    -49045.13    3766.8592    -52811.99   0.32075925 
   56000     274.4372   -508.28069    141790.46   -49054.194     3768.734   -52822.928   0.32626965 
   56100    276.81795   -507.83651     141799.1   -49044.053     3801.428   -52845.481   0.31405171 
   56200    272.10165   -493.85959    141794.38   -49077.221    3736.6609   -52813.882   0.32298837 
   56300     271.3013   -508.27583     141792.6   -49139.559      3725.67   -52865.229   0.31647036 
   56400    269.76213   -490.41035    141765.44   -49185.858    3704.5332   -52890.392   0.31611242 
   56500     266.3216   -492.35297    141739.65   -49231.215    3657.2858   -52888.501   0.31773872 
   56600     268.8313   -464.02163     141751.7   -49285.449    3691.7505   -52977.199   0.30675414 
   56700    266.40215   -509.76909    141772.21   -49273.837     3658.392   -52932.229   0.31817997 
   56800    265.36407   -536.63877    141796.96   -49165.466    3644.1364   -52809.603   0.31442579 
   56900    266.63086   -529.25138    141811.48   -49257.773    3661.5328   -52919.306   0.31524803 
   57000    271.32613   -492.02995     141788.4   -49245.717     3726.011   -52971.728   0.30661609 
   57100    276.99398   -502.95199    141805.54   -49164.654    3803.8453   -52968.499   0.30507762 
   57200    272.60349   -528.02434    141832.91   -49121.177    3743.5525   -52864.729    0.3186856 
   57300    264.05324   -503.80926    141780.51   -49236.467    3626.1354   -52862.602   0.30917974 
   57400    274.34634   -507.63368    141808.82   -49131.714    3767.4863     -52899.2   0.30788373 
   57500    273.26774   -466.86798    141815.63   -49095.768    3752.6744   -52848.443   0.32271033 
   57600    269.70643   -505.55928    141794.65   -49199.027    3703.7684   -52902.796   0.30726699 
   57700    273.60844   -477.77438    141807.74   -49124.353     3757.353   -52881.706   0.30924614 
   57800    269.45589   -509.73556    141803.15   -49070.123    3700.3278    -52770.45   0.32831147 
   57900     273.5839   -491.91137    141809.02   -49110.234    3757.0161    -52867.25   0.31154792 
   58000    274.36434   -512.40615    141797.53   -49071.339    3767.7335   -52839.072   0.32180968 
   58100    269.88069   -501.58923     141775.1   -49111.343    3706.1613   -52817.504    0.3232612 
   58200    276.22203   -497.06674    141801.61   -49014.384    3793.2444   -52807.628   0.31902553 
   58300    274.32217   -504.97061    141787.25    -49075.46    3767.1544   -52842.615   0.31228557 
   58400    271.98417   -487.85616    141798.25   -49120.502    3735.0476    -52855.55   0.32062631 
   58500    273.08289   -485.22812    141782.84   -49119.128    3750.1359   -52869.264   0.31270235 
   58600    271.30935   -506.78184    141774.77   -49158.944    3725.7806   -52884.725    0.3101746 
   58700    272.26684   -505.77462    141799.09   -49117.643    3738.9295   -52856.572   0.32386483 
   58800    274.60757   -451.81456    141820.86   -49159.461    3771.0737   -52930.535   0.30604468 
   58900    273.18798   -523.16222    141827.02   -49082.936    3751.5791   -52834.515   0.30456473 
   59000     274.5161   -516.13018    141845.78   -49046.727    3769.8176   -52816.545   0.32445444 
   59100    275.05862   -496.65221    141853.51   -49010.208    3777.2678   -52787.476    0.3141997 
   59200    271.49199   -528.26817    141842.77     -49130.9    3728.2887   -52859.188   0.30595437 
   59300    271.56414   -498.13386    141809.16   -49107.625    3729.2796   -52836.904   0.32823261 
   59400    273.05606    -526.4228    141822.28   -49095.044    3749.7674   -52844.812   0.30791438 
   59500    269.90253   -522.55869    141807.57   -49196.017    3706.4612   -52902.478   0.31524656 
   59600    264.61584   -513.70093       141798    -49173.06    3633.8613   -52806.922   0.32501897 
   59700    266.92689   -511.68267    141835.39   -49114.502     3665.598     -52780.1   0.30675555 
   59800    268.16259   -514.71511    141784.29   -49219.452    3682.5675    -52902.02   0.31186207 
   59900    267.09066   -519.18025    141766.97   -49212.949     3667.847   -52880.796   0.32112975 
   60000     265.9922   -525.43294    141771.81   -49181.175    3652.7624   -52833.938   0.31779816 
   60100     270.0948   -473.59416    141757.84   -49138.538    3709.1016   -52847.639    0.3096895 
   60200    274.98341    -483.6379    141751.03   -49109.806    3776.2349   -52886.041   0.32991239 
   60300    272.34662   -522.39698    141752.38   -49066.835     3740.025    -52806.86   0.31890628 
   60400    270.50715   -506.80851    141787.61   -49021.717    3714.7643   -52736.481   0.31451744 
   60500    275.92854   -524.45074    141802.07   -49049.422    3789.2141   -52838.636   0.33583219 
   60600    274.44974   -493.40565    141787.63   -49103.157    3768.9063   -52872.063   0.30561621 
   60700    278.73539    -472.0227    141824.72   -48937.052    3827.7594   -52764.811    0.3083689 
   60800    271.92006   -504.56172    141833.33   -48961.756    3734.1672   -52695.923   0.33354125 
   60900     276.1209   -481.13308    141829.77     -49051.9    3791.8556   -52843.756   0.30757609 
   61000    274.71265   -481.55281    141813.92   -49092.217    3772.5167   -52864.734   0.30615427 
   61100     275.0795   -476.83556    141804.04   -49068.352    3777.5545   -52845.906    0.3290346 
   61200    276.41535   -505.43532    141811.35   -49016.274    3795.8992   -52812.173   0.31690686 
   61300    269.00602   -527.16858    141797.12   -49108.715    3694.1499   -52802.865   0.31221594 
   61400    268.09455   -514.35322    141774.32   -49154.243     3681.633   -52835.876   0.32822404 
   61500    271.62891   -506.76952    141784.57   -49099.949    3730.1689   -52830.117   0.31000718 
   61600    269.53125    -494.1323    141773.38   -49137.576    3701.3627   -52838.938   0.31645239 
   61700    268.53364   -484.90133    141770.81   -49200.964    3687.6629   -52888.627   0.31837222 
   61800    271.06488   -536.14515    141750.02   -49191.099    3722.4234   -52913.522   0.31430814 
   61900    272.43822   -482.87304    141779.94   -49093.264    3741.2829   -52834.547   0.31051213 
   62000    273.61569   -505.71427    141785.82   -49101.213    3757.4526   -52858.665    0.3229976 
   62100    269.58708   -539.61199    141755.65   -49167.801    3702.1293   -52869.931   0.31688397 
   62200    269.26174   -512.74158    141807.39   -49068.585    3697.6616   -52766.246   0.31461113 
   62300    271.84286   -500.90725    141761.25   -49112.196    3733.1071   -52845.303   0.32183507 
   62400    267.54196    -506.6017    141751.97   -49153.807    3674.0446   -52827.851   0.31344863 
   62500    265.94163   -512.02594     141756.4   -49141.343    3652.0678   -52793.411   0.32606709 
   62600    266.56277   -475.88589    141735.42   -49167.276    3660.5977   -52827.873    0.3214715 
   62700    266.38527   -523.10066    141703.82   -49199.119    3658.1602   -52857.279   0.31259921 
   62800    272.77834   -519.07334    141710.09   -49176.078    3745.9537   -52922.031   0.32288707 
   62900    268.35611   -479.08391     141759.9   -49090.288    3685.2249   -52775.513   0.32481196 
   63000    270.70321   -465.65392    141776.38   -49118.982    3717.4568   -52836.439   0.30289995 
   63100    272.06374   -489.69673    141765.16   -49191.063    3736.1402   -52927.203   0.31714111 
   63200    272.42175   -474.42713    141777.15   -49075.493    3741.0567   -52816.549   0.32640404 
   63300    269.52267   -524.20995    141743.94    -49163.93    3701.2449   -52865.175   0.31086371 
   63400    266.81744    -532.4698    141718.25   -49249.895    3664.0951    -52913.99    0.3145868 
   63500    264.28136   -499.05971    141748.68   -49229.385     3629.268   -52858.653   0.33057667 
   63600    270.13928    -476.1559    141735.76   -49275.535    3709.7124   -52985.247   0.30631474 
   63700    267.83916   -502.43825    141717.66   -49243.952    3678.1258   -52922.077   0.30766319 
   63800    264.45884    -494.2214    141715.14   -49312.557    3631.7053   -52944.263   0.32958834 
   63900    265.74774   -515.44158    141729.66   -49211.211    3649.4053   -52860.616   0.31238476 
   64000    268.11797   -500.33832    141747.97   -49126.695    3681.9546    -52808.65    0.3113872 
   64100    271.59753   -494.12543    141762.25   -49078.978    3729.7381   -52808.716     0.322784 
   64200     270.9825   -515.59107    141793.12   -49067.474    3721.2921   -52788.766   0.31707572 
   64300    272.33466   -485.73647    141789.43   -49101.247    3739.8608   -52841.107   0.31106626 
   64400     266.2644   -492.93699    141769.81    -49158.56    3656.5003    -52815.06   0.32147573 
   64500    272.58628   -518.89245    141772.41   -49151.175    3743.3161   -52894.491   0.32035829 
   64600    272.46261   -446.23286    141779.81   -49184.485    3741.6178   -52926.103   0.30691188 
   64700    268.55906   -508.53979    141761.75       -49191    3688.0119   -52879.012   0.31930432 
   64800     272.3366   -482.62487    141771.67   -49138.743    3739.8874   -52878.631   0.30972737 
   64900    274.14539   -490.16818    141792.76   -49057.979    3764.7268   -52822.706   0.31910716 
   65000    273.22202    -508.6255    141807.68   -49044.723    3752.0465   -52796.769   0.31790292 
   65100    275.31653   -466.71715    141821.04    -49107.93    3780.8096   -52888.739   0.30668112 
   65200    270.48835   -465.23643    141800.63   -49131.018    3714.5061   -52845.524   0.31792587 
   65300    268.60128    -488.1433    141786.87   -49064.384    3688.5918   -52752.976   0.32284982 
   65400     271.3361   -535.63849    141784.03    -49112.15     3726.148   -52838.298   0.31162048 
   65500    277.37505    -499.3908    141809.06   -49046.237    3809.0783   -52855.316   0.31888022 
   65600    270.74428   -511.09022    141812.82   -49058.699    3718.0207    -52776.72   0.32374345 
   65700    275.07386   -470.10979    141821.59   -49020.075    3777.4771   -52797.552   0.30925528 
   65800    272.00153   -504.15168    141799.94   -49084.404     3735.286    -52819.69   0.31876919 
   65900    273.21237   -492.68535    141816.45   -49092.162     3751.914   -52844.076   0.32343398 
   66000    274.37997   -501.80091    141827.67   -49105.656    3767.9481   -52873.604   0.30017648 
   66100    270.81211   -510.39456    141824.49   -49075.884    3718.9522   -52794.836   0.31680153 
   66200    270.71142   -502.31922    141801.69   -49203.425    3717.5695   -52920.994   0.31659618 
   66300    275.37043   -491.38845    141813.43   -49137.149    3781.5497   -52918.698   0.29786631 
   66400    268.43022   -505.33654    141815.37    -49143.67    3686.2427   -52829.912   0.31131481 
   66500    268.46865   -509.62128     141781.6    -49172.46    3686.7704    -52859.23   0.31799212 
   66600    265.63838   -521.31299    141764.18   -49175.967    3647.9035    -52823.87    0.3091738 
   66700    269.46819   -526.58082     141771.5   -49166.507    3700.4967   -52867.004   0.31288713 
   66800    270.66581   -473.79534    141781.41   -49187.666    3716.9431   -52904.609   0.31644765 
   66900    268.95866   -493.59187     141795.8   -49201.893    3693.4995   -52895.392   0.31071799 
   67000    265.98449   -501.83582    141756.32   -49300.007    3652.6564   -52952.663   0.30774638 
   67100    265.66304   -505.16621    141788.86   -49148.314    3648.2421   -52796.557   0.32245068 
   67200    266.94357   -534.91979    141806.77    -49246.48    3665.8271   -52912.307   0.30940096 
   67300    267.84095   -489.52148    141807.77   -49169.248    3678.1504   -52847.398   0.30871977 
   67400    268.95394   -480.40541     141812.2   -49144.748    3693.4347   -52838.182   0.31327025 
   67500    275.05372   -458.79818    141825.25   -49132.837    3777.2005   -52910.037   0.30471865 
   67600    273.54494   -510.89594    141855.38   -48998.936    3756.4811   -52755.417   0.31590137 
   67700    276.45001   -511.87462    141854.55   -49063.725    3796.3752     -52860.1   0.31054754 
   67800    271.83228   -524.37611    141852.25   -49107.317    3732.9618   -52840.279   0.30739403 
   67900    268.14279   -550.62199    141839.51   -49132.966    3682.2954   -52815.261   0.31785534 
   68000    272.20162   -515.64632    141793.22   -49160.712    3738.0337   -52898.745   0.30969994 
   68100     270.2969   -477.11723    141782.67   -49165.249     3711.877   -52877.126   0.30463599 
   68200     268.1535   -518.68656    141803.66   -49132.581    3682.4425   -52815.023   0.32065646 
   68300    271.69256   -521.64397    141801.24    -49084.05     3731.043   -52815.093    0.3097186 
   68400    270.78793   -485.24884    141839.43   -49057.091    3718.6202   -52775.711   0.30350937 
   68500    278.66069   -497.51702    141838.03   -49050.695    3826.7336   -52877.428   0.32116516 
   68600    270.91888   -540.17334    141811.86   -49138.949    3720.4184   -52859.367   0.30389048 
   68700    271.91003   -481.12581    141814.14   -49115.181    3734.0294   -52849.211   0.30298522 
   68800     272.8473   -500.71492    141842.67   -49115.607    3746.9006   -52862.508   0.31465864 
   68900    271.06743   -508.50558    141825.87   -49116.345    3722.4584   -52838.803   0.31625517 
   69000    272.29444   -508.34481    141811.74   -49117.889    3739.3084   -52857.198   0.30099047 
   69100    270.75576   -484.19752    141786.26   -49170.448    3718.1784   -52888.626    0.3139647 
   69200    269.14975   -518.30911    141803.76   -49186.697    3696.1237    -52882.82   0.31772406 
   69300    268.20805   -485.40038    141791.91   -49220.145    3683.1917   -52903.336   0.29077484 
   69400    265.99441   -508.49048    141733.62   -49264.456    3652.7926   -52917.249   0.31698933 
   69500    273.77014   -471.97164    141748.17   -49135.011    3759.5736   -52894.585   0.31400227 
   69600    272.73793   -534.62337    141804.32   -49034.579    3745.3987   -52779.978   0.30615714 
   69700    272.06635   -551.58888    141793.98   -49125.585    3736.1762   -52861.761   0.31993823 
   69800    274.63275   -497.51384    141786.72   -49117.757    3771.4195   -52889.176   0.30910493 
   69900    270.57296   -537.14445    141766.96   -49212.218     3715.668   -52927.886   0.31701898 
   70000    269.59502   -500.17287     141765.8   -49140.226    3702.2385   -52842.465   0.31578421 
   70100    266.54087   -548.22416    141770.73   -49253.018    3660.2971   -52913.315   0.31335963 
   70200    272.39279   -497.18083    141793.16   -49097.535     3740.659   -52838.194   0.31989595 
   70300    272.98691   -527.63657    141788.24   -49109.462    3748.8178    -52858.28   0.30916015 
   70400    274.78718   -487.28475    141837.54   -49007.913    3773.5403   -52781.453   0.31207454 
   70500    275.66568   -438.10905    141839.94   -49075.744    3785.6043   -52861.348   0.30690135 
   70600    266.34597   -491.87303    141809.99   -49131.555    3657.6205   -52789.175   0.31701171 
   70700    273.90122   -452.57538    141789.14   -49103.289    3761.3736   -52864.663   0.30463933 
   70800    269.08613   -473.46167    141775.53   -49138.586    3695.2501   -52833.836   0.31524119 
   70900     268.5685   -492.82165    141780.61    -49134.49    3688.1416   -52822.632   0.32422125 
   71000    270.48093   -456.22786    141794.17   -49147.987    3714.4042   -52862.391    0.3036043 
   71100    268.84228    -490.6519    141763.15   -49143.562    3691.9013   -52835.464   0.31483231 
   71200    272.55027   -517.31285    141777.13   -49172.152    3742.8217   -52914.973   0.32366943 
   71300    269.42403   -528.74099    141807.62   -49230.525    3699.8903   -52930.415   0.30580853 
   71400    274.80148   -503.89955    141796.44   -49168.126    3773.7366   -52941.862   0.30320649 
   71500    272.51616    -461.7183    141820.57   -49124.213    3742.3532   -52866.566   0.32113581 
   71600    272.24662   -534.83071    141799.49   -49140.781    3738.6517   -52879.433   0.31186702 
   71700    276.46595   -478.63353     141801.9   -49133.946    3796.5941    -52930.54   0.30355527 
   71800    269.04034   -502.63638    141750.81   -49287.036    3694.6212   -52981.657   0.31464983 
   71900    266.97114   -510.21614    141709.86   -49232.974    3666.2058   -52899.179   0.32177478 
   72000    269.19313    -504.7771    141735.98   -49205.908    3696.7194   -52902.627   0.30089316 
   72100    270.35186   -505.47561    141777.08   -49077.872    3712.6317   -52790.504   0.32240179 
   72200    276.40567   -484.27286    141836.05   -48973.952    3795.7663   -52769.718   0.32544603 
   72300    276.43391   -514.72264    141843.84   -48951.163     3796.154   -52747.317   0.30646532 
   72400    270.88334   -500.33755    141801.56   -49061.707    3719.9303   -52781.637   0.31254224 
   72500    271.71878   -473.04009       141785   -49058.102    3731.4032   -52789.505   0.32209417 
   72600    272.69758   -515.99605    141815.81   -49003.202    3744.8446   -52748.047    0.3129326 
   72700    273.47267   -477.12876    141800.38   -49160.721    3755.4886    -52916.21   0.29842534 
   72800    274.70288   -464.05267    141783.61   -49085.477    3772.3826   -52857.859   0.31950187 
   72900     271.3922   -521.84702    141795.54   -49096.882    3726.9183     -52823.8   0.31076717 
   73000    270.57401   -474.98889    141794.65   -49111.725    3715.6824   -52827.407   0.30993099 
   73100    276.13478   -487.47865    141776.02   -49067.029    3792.0463   -52859.075   0.31595901 
   73200     276.0017   -493.44961    141791.52   -49053.019    3790.2188   -52843.238   0.31493092 
   73300    274.84812   -513.56242    141821.15   -49028.962    3774.3771   -52803.339    0.3145823 
   73400    273.21176   -488.17783    141837.92   -49013.031    3751.9056   -52764.937   0.30725727 
   73500    274.90811   -513.74452    141843.17   -49019.536    3775.2009   -52794.737   0.31600362 
   73600    277.37295   -514.16644    141833.68   -49054.678    3809.0495   -52863.728   0.31159397 
   73700    274.79578   -482.63932    141811.03    -49106.77    3773.6583   -52880.428   0.30399262 
   73800    267.97095   -509.20072    141804.33   -49196.975    3679.9357   -52876.911   0.31023573 
   73900    267.16885   -501.07785    141791.58   -49182.463    3668.9207   -52851.383   0.32217188 
   74000    270.35299   -509.20065    141806.58   -49111.382    3712.6472   -52824.029    0.3031761 
   74100     275.6865   -494.94665    141874.32   -48959.299    3785.8902    -52745.19   0.30242075 
   74200    271.74382   -517.04256    141865.27   -49119.121     3731.747   -52850.868    0.3178886 
   74300    273.15393   -489.41352       141799   -49118.684    3751.1114   -52869.796   0.30619356 
   74400    271.35856   -523.65793    141815.78   -49148.538    3726.4564   -52874.995   0.30154795 
   74500    265.66852   -527.78338    141773.21   -49157.261    3648.3173   -52805.579   0.32456359 
   74600    267.92612   -560.82423    141817.97   -49167.042    3679.3201   -52846.363   0.31574348 
   74700    271.58782   -518.16949    141840.42   -49081.659    3729.6047   -52811.264   0.30085712 
   74800    267.74793   -485.17723    141824.35   -49134.319    3676.8731   -52811.192   0.31855452 
   74900    269.22416   -499.72001    141816.92   -49138.614    3697.1455   -52835.759   0.31637712 
   75000    272.36779   -445.34465    141826.09   -49123.041    3740.3157   -52863.357   0.29196517 
   75100    270.53877    -460.7772    141841.74   -49060.702    3715.1985     -52775.9   0.31354501 
   75200    274.77968   -508.05622    141814.96   -49104.106    3773.4372   -52877.544   0.31445504 
   75300    271.86108   -504.17978    141783.78   -49148.821    3733.3572   -52882.178   0.30552823 
   75400    271.75453   -514.27703    141747.69   -49155.743    3731.8941   -52887.637   0.31361164 
   75500    268.22166    -493.0243    141765.42   -49149.606    3683.3786   -52832.985   0.32564824 
   75600    270.60462    -518.9945    141818.63   -49086.102    3716.1028   -52802.205   0.30653381 
   75700    270.92237   -462.13648    141853.97   -49047.395    3720.4663   -52767.861   0.30409689 
   75800    271.68017   -542.39696    141859.15   -49066.111    3730.8729   -52796.984   0.31720213 
   75900    275.31461   -520.42665    141823.68   -49081.892    3780.7832   -52862.675   0.30341022 
   76000    278.99631   -524.17746    141824.47   -49091.699    3831.3424   -52923.042   0.31036855 
   76100    272.83248   -510.87015    141790.46   -49173.787    3746.6971   -52920.484    0.3112565 
   76200    265.89373   -509.90332    141767.75   -49218.716    3651.4101   -52870.126   0.31401644 
   76300    266.28307    -519.7258    141749.21    -49159.39    3656.7567   -52816.146   0.31980816 
   76400     271.1517   -471.07144    141728.16   -49153.708    3723.6156   -52877.323   0.31144529 
   76500    271.05959   -510.07727    141785.37   -49146.638    3722.3508   -52868.989   0.31497947 
   76600    266.82607   -538.78258    141758.37   -49183.151    3664.2135   -52847.364   0.31577053 
[...]
   81900    268.70655   -500.76534    141771.84   -49181.917    3690.0374   -52871.955   0.31300202 
   82000    268.55804    -514.2072    141804.62   -49096.706    3687.9979   -52784.704   0.32609556 
   82100    276.89685   -506.20581    141852.19   -49053.877    3802.5114   -52856.389   0.29478618 
   82200    274.49865   -501.45525    141823.16   -49063.175    3769.5779   -52832.753   0.31942888 
   82300    275.21223   -499.37048    141819.65   -49131.752    3779.3772   -52911.129   0.31604188 
   82400    273.66961   -487.05246     141807.3   -49015.007    3758.1931     -52773.2    0.3032686 
   82500    278.03773   -488.53043    141864.43   -48919.947    3818.1787   -52738.126   0.31697134 
   82600    273.57172   -499.83017     141874.7   -49019.498    3756.8487   -52776.347   0.31943256 
   82700    272.55313   -508.48696    141828.52   -49098.202    3742.8609   -52841.062   0.30087792 
   82800    272.17058   -488.34816     141840.1   -49107.724    3737.6075   -52845.332   0.30941201 
   82900    267.25938   -498.29958    141835.91   -49065.662     3670.164   -52735.826   0.33355781 
   83000    274.69389   -492.62545    141848.32   -49005.898    3772.2591   -52778.157   0.30524996 
   83100     272.9626     -508.037    141883.15   -49045.672     3748.484   -52794.156   0.30867533 
   83200    276.48521   -478.91389    141854.98   -49076.145    3796.8586   -52873.003   0.32550872 
   83300    277.20771   -487.86247     141827.5   -49063.797    3806.7803   -52870.577   0.30316488 
   83400    270.63232   -504.23747    141819.39   -49141.993    3716.4832   -52858.476   0.30675799 
   83500    269.77338    -484.8561    141782.11   -49239.159    3704.6878   -52943.847   0.32232378 
   83600    270.26346   -502.53545    141808.28    -49193.29    3711.4178   -52904.708   0.30409181 
   83700    268.46439   -489.43932    141808.11   -49218.645    3686.7119   -52905.356   0.30815342 
   83800    268.48694   -486.92072    141782.34   -49182.031    3687.0216   -52869.053   0.32284086 
   83900    268.30169    -484.1843    141796.71   -49179.129    3684.4776   -52863.607    0.3083928 
   84000     270.8718   -489.04688    141779.77   -49192.702    3719.7718   -52912.473    0.3098106 
   84100    267.56654   -504.13915    141776.26   -49125.102    3674.3822   -52799.484   0.31690056 
   84200    267.48353   -490.34062    141799.98   -49087.605    3673.2421   -52760.848   0.31002487 
   84300    269.67937   -495.78339    141760.39   -49131.555    3703.3968   -52834.952   0.32450031 
   84400    266.79678   -515.36278    141761.63   -49127.265    3663.8113   -52791.077   0.31802821 
   84500    270.89705   -524.21017     141754.5   -49176.652    3720.1186   -52896.771   0.31320997 
   84600    271.81705   -483.82455    141822.33   -49102.966    3732.7526   -52835.718   0.32173734 
   84700    272.37436   -511.43017    141834.21   -49111.018    3740.4059   -52851.423   0.31118379 
   84800    271.07618   -525.71095    141824.16   -49111.065    3722.5785   -52833.643   0.30194931 
   84900    273.73421   -501.05564    141823.21   -49029.249    3759.0801    -52788.33   0.32638395 
   85000     273.7258   -513.30864    141799.93   -49098.392    3758.9647   -52857.357   0.31449073 
   85100    269.72886   -464.10686    141778.38   -49115.672    3704.0763   -52819.749   0.29607757 
   85200    267.22821   -513.53177     141781.4   -49147.689     3669.736   -52817.425   0.33037344 
   85300    265.70899   -536.89626    141786.62   -49152.101    3648.8732   -52800.974   0.32560988 
   85400    267.48737   -522.49355     141737.7   -49180.651    3673.2949   -52853.945   0.29915611 
   85500    274.09284   -521.86842    141763.89   -49131.768    3764.0051   -52895.773   0.32212203 
   85600    266.58957   -501.95036    141774.37   -49163.023    3660.9658   -52823.989   0.32384061 
   85700    275.40193   -486.99415    141798.57    -49117.08    3781.9823   -52899.063   0.28971345 
   85800    269.46939    -510.8296    141806.08   -49106.001    3700.5131   -52806.514   0.32244807 
   85900    270.70224   -514.28695    141826.93   -49084.072    3717.4434   -52801.516   0.31707575 
   86000    274.20023   -481.53903    141787.65   -49127.222    3765.4798   -52892.702   0.29806071 
   86100    273.87816    -526.7199    141785.17   -49098.206    3761.0571   -52859.263   0.32137052 
   86200    273.09451   -473.06822    141812.83   -49067.829    3750.2954   -52818.125   0.32346349 
   86300    264.84527    -481.3805    141798.57    -49109.27     3637.012   -52746.282   0.30695938 
   86400    267.92753   -491.55379    141778.29   -49166.992    3679.3394   -52846.332   0.31216891 
   86500    270.75165   -508.13763    141781.96   -49194.984    3718.1219   -52913.106   0.31970155 
   86600    271.86265   -469.24808    141775.03   -49035.327    3733.3789   -52768.706   0.30507183 
   86700    274.14773   -529.50402    141791.93   -49040.967    3764.7589   -52805.726   0.32142284 
   86800    269.82022   -525.19501    141802.68   -49160.906     3705.331   -52866.237    0.3161639 
   86900    271.03721   -524.82311    141766.47   -49141.554    3722.0434   -52863.597   0.30869014 
   87000    270.12267   -559.68643    141790.16    -49124.77    3709.4844   -52834.255   0.32882766 
   87100    268.89608   -470.04235    141788.08   -49097.987    3692.6401   -52790.627   0.31577352 
   87200    280.26154   -451.18209    141813.87    -49032.57    3848.7173   -52881.287   0.29651482 
   87300    275.87913   -524.31046    141823.14   -49043.898    3788.5355   -52832.434   0.32216321 
   87400    273.53706   -490.44013    141809.99   -49098.696    3756.3728   -52855.069    0.3099896 
   87500    270.06973   -494.93461    141798.59   -49074.117    3708.7574   -52782.875    0.3018529 
   87600    270.35958   -523.98746    141821.08    -49095.82    3712.7377   -52808.558   0.32754695 
   87700    273.03079   -505.53212    141819.37   -49065.826    3749.4204   -52815.247   0.31443842 
   87800    266.68702   -505.89347    141812.04   -49149.854     3662.304   -52812.158   0.29879442 
   87900    271.27655   -493.97052    141812.37   -49173.416    3725.3302   -52898.746   0.32464995 
   88000    274.93311   -462.70771    141821.21   -49143.665    3775.5442   -52919.209   0.30548432 
   88100    273.23259   -491.58628    141831.53    -49118.02    3752.1916   -52870.212   0.29318332 
   88200    268.54448   -515.25503     141805.9   -49210.548    3687.8118   -52898.359   0.32199708 
   88300    269.84156   -505.37369    141782.55   -49152.115     3705.624   -52857.739    0.3148974 
   88400    273.48319   -478.13265    141790.15   -49088.783    3755.6331   -52844.416    0.2988496 
   88500    269.51411   -523.33548    141757.63   -49154.885    3701.1272   -52856.012   0.32563647 
   88600    265.92357    -516.3899    141758.54   -49143.377    3651.8199   -52795.197   0.32695121 
   88700    272.65977   -484.80434    141770.86    -49120.56    3744.3254   -52864.886   0.30216528 
   88800    264.54079   -515.36699    141775.42   -49175.347    3632.8307   -52808.177   0.32700997 
   88900      271.543   -510.64428    141743.61   -49114.826    3728.9892   -52843.815   0.32085652 
   89000    273.25844   -478.33023    141746.45   -49080.553    3752.5466   -52833.099   0.30506806 
   89100     267.0693   -494.53638    141727.76   -49130.053    3667.5536   -52797.607   0.33215046 
   89200    272.73707   -456.93765    141741.17   -49079.994    3745.3869   -52825.381   0.31684506 
   89300    269.89998   -535.70425    141723.93   -49194.075    3706.4263   -52900.501   0.30886712 
   89400    274.36534   -478.02278    141764.24   -49103.691    3767.7472   -52871.439   0.32797437 
   89500    267.38644   -513.96029    141782.26   -49198.898    3671.9089   -52870.806   0.31072691 
   89600    267.37379   -518.77871    141722.42   -49223.444    3671.7352   -52895.179   0.31480311 
   89700    271.74144   -470.57309    141763.04   -49147.683    3731.7143   -52879.397   0.32454691 
   89800    277.25263   -468.37113    141790.43   -49088.338    3807.3972   -52895.735   0.30964271 
   89900    273.62162   -530.86233    141781.63   -49068.222     3757.534   -52825.756   0.31277676 
   90000    272.05319   -487.21809    141769.79   -49087.953    3735.9954   -52823.949    0.3325035 
   90100    270.23335   -490.33142       141774   -49065.994    3711.0043   -52776.999   0.31576454 
   90200    268.82332   -557.09317    141765.45   -49140.345     3691.641   -52831.986   0.31343622 
   90300    272.03593   -481.31341    141771.34   -49118.127    3735.7585   -52853.886    0.3412898 
   90400    271.58207     -472.045    141781.09   -49106.345    3729.5257   -52835.871    0.3119254 
   90500    274.20556   -488.77011    141785.09   -49120.811     3765.553   -52886.364   0.30589679 
   90600    272.32963   -490.12091    141791.25   -49137.758    3739.7917    -52877.55   0.33391035 
   90700    266.15768   -550.73087    141762.14   -49161.255    3655.0348    -52816.29   0.31258955 
   90800    271.04472   -513.23535     141765.3     -49180.3    3722.1465   -52902.447   0.30915239 
   90900    273.63111   -536.62639    141791.78   -49156.629    3757.6643   -52914.293   0.33687109 
   91000    269.37242   -540.33124    141781.53     -49175.2    3699.1816   -52874.382   0.31418843 
   91100    265.74111   -500.03015    141698.28   -49266.983    3649.3143   -52916.297   0.31171258 
   91200    266.23585   -514.14325     141722.5    -49220.14    3656.1083   -52876.248   0.33013012 
   91300    272.43531   -504.69821    141735.54   -49159.073     3741.243   -52900.316   0.31445156 
   91400    271.83665   -523.24774    141760.71   -49135.491    3733.0217   -52868.512   0.31045695 
   91500    280.86456   -469.16601     141845.3   -48984.634    3856.9984   -52841.632   0.32434732 
   91600    270.28731   -526.20771    141847.88   -49051.003    3711.7453   -52762.748   0.31831163 
   91700    273.54474   -479.20319    141814.34   -49118.431    3756.4783    -52874.91    0.3040015 
   91800    271.53798   -526.78564     141806.2   -49086.151    3728.9203   -52815.071   0.32900327 
   91900    274.91464   -481.45539    141828.29    -49083.87    3775.2906    -52859.16   0.30820715 
   92000    268.89296    -496.0843    141812.88   -49125.926    3692.5973   -52818.523   0.31208867 
   92100    268.09277   -488.87745    141793.99   -49113.995    3681.6086   -52795.604   0.32631888 
   92200    272.50203   -499.93271     141764.7   -49141.025    3742.1592   -52883.184   0.31506961 
   92300    278.51035   -476.93517    141773.99   -49020.223    3824.6689   -52844.892   0.31923048 
   92400    272.96287    -506.7746    141776.21   -49065.736    3748.4877   -52814.224   0.32586676 
   92500     276.7546   -494.86218    141778.04   -49062.778    3800.5579   -52863.336   0.31363428 
   92600    278.02369   -431.61322    141834.36   -48975.678    3817.9859   -52793.664   0.31153039 
   92700    271.60573   -541.80051     141823.1   -49093.953    3729.8506   -52823.804   0.33081117 
   92800     271.8913   -516.23915    141807.14   -49111.092    3733.7722   -52844.865   0.30873954 
   92900    269.06063   -486.43619       141784   -49141.092    3694.8999   -52835.992   0.32140183 
   93000    267.81129   -477.35941    141785.23   -49150.742    3677.7432   -52828.485   0.32209721 
   93100    275.52629   -480.22204    141795.82    -49076.13      3783.69    -52859.82   0.30965375 
   93200    273.15025   -514.06455    141788.89   -49126.118    3751.0609   -52877.178    0.3179917 
   93300    270.65471   -492.84053    141746.39   -49173.164    3716.7906   -52889.955   0.32148783 
   93400    271.89673   -505.51979    141739.63   -49227.766    3733.8468   -52961.613   0.31471489 
   93500    266.44605   -481.91931    141745.96   -49227.626    3658.9949   -52886.621   0.30855694 
   93600    267.17157   -497.72419    141733.46   -49178.762    3668.9581    -52847.72   0.33651111 
   93700    265.39622   -539.51056    141774.36   -49158.836     3644.578   -52803.414   0.32262931 
   93800    270.41577   -507.51943    141767.78   -49159.118    3713.5094   -52872.627   0.30696562 
   93900    266.52673   -516.77261    141741.85   -49228.151    3660.1028   -52888.254   0.33770501 
   94000     268.6231   -477.19785    141759.02   -49204.512    3688.8914   -52893.403   0.30448001 
   94100    274.53482   -486.13937     141791.4   -49096.256    3770.0747   -52866.331   0.31509944 
   94200    277.72344   -494.76191     141794.6   -49077.924    3813.8627   -52891.787   0.32446912 
   94300     272.9168   -513.96847    141793.17   -49093.049     3747.855   -52840.904   0.31441471 
   94400    276.43857   -506.86476    141794.61   -49086.786    3796.2181   -52883.004   0.31813037 
   94500    279.59946   -516.97244    141777.15   -49084.198    3839.6253   -52923.823   0.32393623 
   94600    273.44805   -483.22086    141760.11   -49092.135    3755.1505   -52847.285     0.324371 
   94700    272.44155   -511.72653     141770.1   -49130.718    3741.3286   -52872.047   0.32257748 
   94800    269.87141   -503.81512    141751.59   -49172.089    3706.0339   -52878.123   0.32775396 
   94900    268.51859    -497.2661    141747.18   -49199.009    3687.4562   -52886.465   0.32078769 
   95000    269.73662   -482.95443    141753.12    -49158.19    3704.1829   -52862.373   0.31643323 
   95100     270.0873   -507.53575    141782.27    -49127.86    3708.9987   -52836.858   0.32823341 
   95200     271.0243   -524.02112    141755.13   -49154.439    3721.8662   -52876.305   0.32088102 
   95300    271.69428   -492.42054    141745.08   -49109.603    3731.0667    -52840.67   0.31837833 
   95400    274.42254   -501.71184    141750.53   -49075.486    3768.5327   -52844.019   0.33621814 
   95500    271.44847    -514.1179    141761.99   -49090.677     3727.691   -52818.368   0.31850944 
   95600    277.33111   -468.63355    141763.66   -49077.129     3808.475   -52885.604   0.31605256 
   95700    269.84711   -506.93273    141748.17   -49113.976    3705.7003   -52819.676   0.33728875 
   95800    278.68926   -478.14963    141787.26   -49057.371    3827.1259   -52884.497   0.30921427 
   95900    273.88043   -464.07933    141787.08   -49077.002    3761.0881    -52838.09   0.31847235 
   96000    272.89686   -528.62584    141815.92   -49048.273    3747.5811   -52795.854   0.33000769 
   96100    279.67301   -494.51403    141841.69   -49005.156    3840.6353   -52845.791   0.31140053 
   96200    271.85289   -515.25026    141837.81   -49021.915    3733.2447    -52755.16   0.31834865 
   96300    275.00208   -507.71572    141838.22   -49046.535    3776.4913   -52823.026   0.32762876 
   96400    273.19184   -512.18388    141801.81   -49087.695     3751.632   -52839.327   0.31675299 
   96500    269.77351   -521.01959    141797.69   -49086.883    3704.6895   -52791.572   0.32062562 
   96600    270.23725   -528.03965    141774.53   -49133.285    3711.0579   -52844.343   0.33293398 
   96700    275.57781    -493.7394    141753.81   -49102.496    3784.3976   -52886.894   0.31474926 
   96800    266.36638   -523.32063    141778.68   -49123.913    3657.9008   -52781.814   0.32291165 
   96900    273.55359   -478.78621    141775.89    -49131.47    3756.5999    -52888.07   0.33081971 
   97000    274.04812   -506.03208    141760.62   -49202.178     3763.391   -52965.569   0.31344499 
   97100    270.01736   -463.72147    141777.77   -49174.269    3708.0382   -52882.307   0.31792365 
   97200    274.95879   -467.50969     141756.1   -49118.791    3775.8969   -52894.688   0.32712916 
   97300    279.03618   -435.67751    141817.52   -49016.163    3831.8899   -52848.053   0.30162686 
   97400     270.6569   -508.42208    141808.57   -49102.153    3716.8208   -52818.974    0.3255109 
   97500    273.39604   -506.13811    141806.63   -49082.931    3754.4362   -52837.367   0.32730714 
   97600    272.47864    -511.5212    141780.24   -49015.648    3741.8379   -52757.486   0.31770306 
   97700     276.3955   -481.36197     141814.7   -48980.978    3795.6266   -52776.605   0.32458447 
   97800    272.63358   -525.77023     141803.7   -49084.024    3743.9656    -52827.99    0.3267707 
   97900    273.15806   -516.01276    141782.65    -49046.63    3751.1682   -52797.798   0.31452189 
   98000    272.59319     -474.675    141783.43   -49127.945     3743.411   -52871.356   0.31457627 
   98100    269.47601   -457.75417    141795.51   -49109.258    3700.6041   -52809.863   0.32638595 
   98200    269.78643    -503.5434    141807.43   -49106.454     3704.867   -52811.321    0.3072167 
   98300    272.40847   -489.09875    141818.11   -49047.618    3740.8744   -52788.492   0.31688173 
   98400    272.80743   -492.23915    141812.08   -49093.667    3746.3531    -52840.02   0.32627884 
   98500    271.12903   -496.58957    141791.89   -49066.331    3723.3043   -52789.635   0.30885337 
   98600    268.42959   -517.34451       141809    -49076.25     3686.234   -52762.484   0.32017684 
   98700    272.46065   -477.69749    141826.15   -49049.939    3741.5909    -52791.53   0.32059097 
   98800    275.14561   -503.88714    141826.51   -49057.349    3778.4623   -52835.812   0.31518315 
   98900    273.20598   -492.04058    141808.81   -49108.645    3751.8263   -52860.471   0.31472228 
   99000     272.8409   -511.64624    141794.05   -49110.872    3746.8128   -52857.685   0.32319844 
   99100    270.09568   -496.87234    141751.45   -49166.727    3709.1137   -52875.841    0.3222082 
   99200    269.34454   -533.62228    141756.57   -49170.234    3698.7987   -52869.033   0.31323159 
   99300    273.04009   -454.32826    141771.42   -49103.033    3749.5482   -52852.581   0.32385119 
   99400    277.89372    -490.9446    141771.67   -49136.886     3816.201   -52953.087   0.30961368 
   99500    274.47706   -464.72612    141777.92   -49088.466    3769.2815   -52857.748   0.32246358 
   99600    272.97263   -467.42117    141804.16   -49082.914    3748.6218   -52831.536   0.32229623 
   99700    268.44863   -528.08335    141756.29   -49120.796    3686.4955   -52807.291   0.31916689 
   99800      269.638    -528.1038    141766.89   -49131.878    3702.8286   -52834.706   0.32819467 
   99900    270.36709   -499.17162    141760.05   -49186.794    3712.8409   -52899.635   0.32065872 
  100000    271.03379   -503.21151    141776.38   -49106.459    3721.9965   -52828.456   0.32138972 
Loop time of 115.011 on 6 procs for 100000 steps with 4608 atoms

Performance: 375.616 ns/day, 0.064 hours/ns, 869.482 timesteps/s
98.9% CPU use with 6 MPI tasks x no OpenMP threads

MPI task timing breakdown:
Section |  min time  |  avg time  |  max time  |%varavg| %total
---------------------------------------------------------------
Pair    | 97.218     | 98.005     | 98.704     |   6.0 | 85.21
Neigh   | 6.3295     | 6.4985     | 6.74       |   6.8 |  5.65
Comm    | 7.1645     | 7.7707     | 8.7004     |  21.1 |  6.76
Output  | 0.16802    | 0.16882    | 0.17231    |   0.4 |  0.15
Modify  | 1.8598     | 1.9106     | 1.9506     |   2.6 |  1.66
Other   |            | 0.6573     |            |       |  0.57

Nlocal:        768.000 ave         774 max         753 min
Histogram: 1 0 0 0 0 0 0 2 1 2
Nghost:        1676.33 ave        1695 max        1650 min
Histogram: 1 0 0 0 2 0 1 0 0 2
Neighs:        0.00000 ave           0 max           0 min
Histogram: 6 0 0 0 0 0 0 0 0 0
FullNghs:      24209.3 ave       24478 max       23730 min
Histogram: 1 0 0 0 0 0 2 1 1 1

Total # of neighbors = 145256
Ave neighs/atom = 31.522569
Neighbor list builds = 6570
Dangerous builds = 0

undump              1
unfix               2
unfix               3
unfix               4




################################################
#######         Run Simulation         #########
################################################

reset_timestep      0
log                 log.run_${NAME}
log                 log.run_ice_272K_-500atm_mW
