LAMMPS data file via write_data, version 29 Oct 2020, timestep = 100000

8502 atoms
1 atom types

-0.2158490804976907 104.8315713800834 xlo xhi
-0.15405798186061403 51.15760171271097 ylo yhi
-0.15405798186061403 51.15760171271097 zlo zhi

Masses

1 18.015

Atoms # atomic

106 1 2.688978067503279 1.6335248343355866 0.7446088576502314 0 0 0
107 1 4.447596997507162 0.06059598701119334 2.2679930033389106 0 0 0
110 1 9.261963834644824 1.437639965192862 0.47853381766944025 0 0 0
108 1 11.028094390422265 0.19306138863486905 2.367710841909517 0 0 0
13 1 16.016976740596924 1.4442923033882313 0.3325182030890735 0 0 0
111 1 17.189819308865737 51.12824800491761 2.3374386676107233 0 -1 0
775 1 21.904077910523398 1.504048902465526 0.3819544350468096 0 0 0
851 1 23.778355805933433 -0.05804234573494094 2.0001802364451153 0 0 0
857 1 28.211237534479206 1.345044069456348 0.30822088737159414 0 0 0
852 1 30.204110043249866 -0.009428387146227263 1.9820334355544107 0 0 0
859 1 34.64561025279123 1.753334586978655 0.45451066492300707 0 0 0
113 1 1.2633563664522178 3.315038571081422 2.30868398013851 0 0 0
95 1 0.17907292557553978 4.789615378117795 0.33694994954835367 0 0 0
114 1 6.006932727360416 4.689540298457834 0.2586291520431729 0 0 0
115 1 7.704658904119875 3.131482807053794 1.8455969428471057 0 0 0
116 1 14.127118607879932 3.087492044753503 1.8595825858925936 0 0 0
117 1 12.77646281148362 4.968167075560923 0.0889438265345894 0 0 0
854 1 20.04439943093029 3.058808704343477 1.852135427651871 0 0 0
624 1 18.90531028989064 4.833800096534515 0.03457047304476249 0 0 0
862 1 25.240543330838328 4.5149432109157175 0.4191383076222368 0 0 0
855 1 26.62543864226616 2.8104270718355577 1.8887511669651804 0 0 0
863 1 31.30690966232143 5.024636865415523 0.17781179452419293 0 0 0
858 1 33.14075665090007 3.347564210009288 1.9205416401323436 0 0 0
19 1 2.659565597924846 8.098191010135762 0.45874031778516655 0 0 0
119 1 4.502182196302287 6.237717733529739 1.7659563198322106 0 0 0
22 1 8.691999429468058 8.23464042228543 0.4179078846840768 0 0 0
120 1 10.695815105179166 6.402909314438577 1.7676304418958808 0 0 0
121 1 15.30944313408418 8.076555694535921 0.6041072458363451 0 0 0
122 1 17.40931045073379 6.280061486761746 1.7565525562809658 0 0 0
861 1 23.83776420151018 6.265333585985043 1.8178161067231122 0 0 0
860 1 22.15982163543663 8.165661146164894 0.26243398533918055 0 0 0
864 1 29.70990612620996 6.529644156340049 1.8466477482366948 0 0 0
788 1 28.52415462944173 8.240913932551244 0.13252651855776582 0 0 0
870 1 34.646312173994 7.692024218628155 0.29620820101977285 0 0 0
123 1 1.4303914854799926 9.588966889125949 2.1677964414993744 0 0 0
125 1 5.953322468463753 11.273046282488679 0.4832631034082948 0 0 0
126 1 7.5189031134639865 9.74765991003311 2.317049761924353 0 0 0
127 1 12.153231788561397 11.293174597440212 0.2257059903775805 0 0 0
128 1 13.841720409830536 9.687556080466024 2.024950738532098 0 0 0
743 1 18.428184739608927 11.23319067515914 0.34887258641505836 0 0 0
866 1 20.411185349358522 9.946757252142913 1.7831278586574255 0 0 0
791 1 25.188280221540108 11.151861481039704 0.11371491961460295 0 0 0
868 1 26.866940458953934 9.510541035301939 1.9606213113957733 0 0 0
869 1 31.533067986315842 11.028452082673551 0.46945871713300047 0 0 0
871 1 32.86825653974534 9.235835290234188 1.8184259711311195 0 0 0
31 1 2.9321342875140655 14.295340654742457 0.5619816980793967 0 0 0
130 1 4.595732970251228 12.960290675415271 2.190780210975086 0 0 0
33 1 9.095476292393348 14.482371632290112 0.46615688425943125 0 0 0
132 1 10.890022636668345 12.896944149687153 1.956003478927761 0 0 0
138 1 15.42823392318204 14.45080602243087 0.5988773803146933 0 0 0
133 1 17.133850387867405 12.761310116895617 2.0407658464671563 0 0 0
872 1 23.707666038488775 12.663044466617174 1.8645902091350393 0 0 0
878 1 22.469907891361316 14.307689593020468 0.29726184384807836 0 0 0
874 1 30.294857427999403 12.88160516045605 2.115713845701312 0 0 0
794 1 28.509002952241037 14.367859908880835 0.6480273042347906 0 0 0
134 1 1.2706829408483287 16.019827158942633 2.4012603682369753 0 0 0
37 1 6.127008812498133 17.245322060864098 0.012242675787916685 0 0 0
136 1 7.723266345603765 16.136816636255997 2.094298444801702 0 0 0
137 1 13.83761025749201 16.36357545993427 2.049457160446096 0 0 0
876 1 20.920338420997023 15.809080993147 1.7787465295283498 0 0 0
1363 1 19.180977354765933 17.39390288167556 0.24937681722844734 0 0 0
879 1 26.908629896734663 16.230667127761254 2.1414709805585983 0 0 0
799 1 25.529989778697523 17.764459581701846 0.483332152153931 0 0 0
880 1 33.52392948569224 16.309323274939274 1.8826502891459045 0 0 0
139 1 4.934410840199282 18.806339108770732 2.0706271247511188 0 0 0
145 1 3.095783740554906 20.01929637804402 0.1450098999341951 0 0 0
51 1 9.26524296388663 20.654643058489974 0.1813159089466384 0 0 0
141 1 11.146617201409864 19.157741109904677 1.6775589710218795 0 0 0
143 1 17.3563004438519 18.96162925055642 1.7070269000914224 0 0 0
52 1 15.737918101464345 20.651125177520736 0.10608489009246996 0 0 0
882 1 23.847979251693012 19.301853017924348 2.098337168949886 0 0 0
887 1 22.10596666271231 20.757419398584876 0.6104270105931036 0 0 0
885 1 30.293699588748307 19.377851742482537 1.9824228193350248 0 0 0
801 1 31.81263209303409 17.918783197824652 0.453652929398523 0 0 0
144 1 1.6064017313404952 21.821829106953146 1.8065437390281902 0 0 0
150 1 5.7828771287290035 23.687222454174858 0.2513743389813859 0 0 0
146 1 7.608521246273262 22.20364626641671 1.9297193258231053 0 0 0
147 1 14.127993885437418 22.277199170074855 1.7886326967202453 0 0 0
886 1 20.38401796298945 22.208663376528634 2.326604940204117 0 0 0
888 1 27.075900886190514 22.437797938335528 1.9051587799807268 0 0 0
811 1 28.76650526579999 20.94807422055129 0.2128292726538486 0 0 0
891 1 33.42893664427495 22.305588540726152 2.108934114284082 0 0 0
812 1 32.166005648864996 23.829399254821865 0.20464601276565486 0 0 0
149 1 4.31497970872026 25.15781801972429 1.9996428017395877 0 0 0
151 1 10.985000004969372 25.546130381205714 1.8144384186165652 0 0 0
57 1 12.586970372635268 23.96180083609874 0.34583941991827055 0 0 0
152 1 17.616201080520433 25.639744242436766 2.102821102555488 0 0 0
832 1 19.031979420484546 23.959656552323032 0.46645499644055055 0 0 0
893 1 23.693695700223614 25.513649172492286 2.141923737844516 0 0 0
809 1 25.50257653953563 24.231572765523914 0.09738232623768867 0 0 0
896 1 30.646717961414225 25.485463456160595 1.9507335240414654 0 0 0
155 1 1.1913586718772158 28.81377040126569 2.048194017395692 0 0 0
59 1 3.2400158419078444 27.23857294661918 0.6090101607474732 0 0 0
63 1 9.204633117664132 26.935300076702397 0.3344803222176776 0 0 0
156 1 7.640836125905834 28.685471436209824 2.249121846820623 0 0 0
158 1 14.02023166701604 28.67907729759774 1.7035482661176518 0 0 0
157 1 15.883756259902988 26.91514566720799 0.17970435168489696 0 0 0
898 1 20.320710083343265 28.65791972551044 1.8851278009710648 0 0 0
815 1 22.061090862642 27.266707200480226 0.4772243551839994 0 0 0
900 1 27.220960995385205 28.920210036995538 2.1723175633824954 0 0 0
895 1 29.084373066132994 27.16525879308937 0.7498406308917377 0 0 0
901 1 33.532599644538614 28.829495025096794 2.1818800812381425 0 0 0
24 1 -0.14960721472623295 30.400523615298642 0.04534960133683599 0 0 0
161 1 4.450877202594237 31.832778759274532 1.698017136518555 0 0 0
162 1 6.343965123749422 30.069499143244517 0.21665995751224332 0 0 0
163 1 10.568263145100342 31.750962671607542 1.356338153354185 0 0 0
70 1 12.684678775583356 30.189017426383305 0.0022531724195555547 0 0 0
164 1 17.410431240583623 32.06877221424571 1.8068225230834027 0 0 0
97 1 18.82310040413751 30.345964739877754 0.24173439913726819 0 0 0
905 1 23.64495003688991 31.6959442477798 1.988371869249014 0 0 0
820 1 25.40654100590841 30.27358282679248 0.5693242703357569 0 0 0
908 1 30.14633496802985 31.942402298699175 2.2313138487317605 0 0 0
909 1 31.978824172845727 30.42229644117765 0.7229432849645109 0 0 0
166 1 0.938465281999386 35.25811765815364 1.9012161216519092 0 0 0
75 1 2.6693929719320137 33.61094520001406 0.4683756313458126 0 0 0
169 1 7.725120060241496 34.71550280714088 2.3084859464943768 0 0 0
171 1 8.964053026642944 33.52218931579249 0.29840435298220264 0 0 0
72 1 15.684896345154307 33.25539518522946 0.07628456165703151 0 0 0
274 1 12.73682780403868 33.23616847844535 3.0247025986836302 0 0 0
172 1 14.55474094204269 35.069837117278794 1.7838120578508223 0 0 0
910 1 20.831040697149298 35.31723918481198 1.8857566726916635 0 0 0
904 1 22.26483192428874 33.3102501936133 0.46813543929226087 0 0 0
913 1 26.80175603141832 35.11018286747877 2.2361809101555195 0 0 0
907 1 28.74747565470932 33.607518351056626 0.5439510369130863 0 0 0
914 1 33.36906247973048 35.20340983933882 1.9927636731098683 0 0 0
82 1 5.890308440710307 36.553689524315814 0.8793489241997015 0 0 0
174 1 4.288877093643242 38.31404347586178 2.0462174186320774 0 0 0
176 1 11.122472912159422 38.17251485568315 1.7396073881770635 0 0 0
85 1 12.779020221406581 36.66906507768243 0.32872062106355143 0 0 0
179 1 17.457030082682753 38.69334710941756 2.0338105915056848 0 0 0
1277 1 18.978650404263593 36.83702807563748 0.6884694286448959 0 0 0
915 1 24.254482391410892 38.7290147956104 1.7922306702139459 0 0 0
912 1 25.61646791269183 36.65905807000787 0.46166574537038807 0 0 0
918 1 30.258809220471832 38.08579465470214 1.7762566857087998 0 0 0
833 1 31.888768443936478 36.61151268241909 0.20658852330669603 0 0 0
80 1 2.8179667145408405 40.16422554488189 0.811674736663224 0 0 0
181 1 1.0495199227081602 41.919399650172764 2.139966918061005 0 0 0
184 1 7.836484337884553 41.4738718185412 2.3150290968703433 0 0 0
90 1 9.213536109486332 39.955113069868275 0.21375714217544184 0 0 0
185 1 14.028385752935396 41.616292679885575 2.1617004241322975 0 0 0
178 1 15.475069898285438 39.78045137652879 0.38041121445365234 0 0 0
921 1 20.708511794766313 41.61382098732567 1.9257962515491367 0 0 0
835 1 22.262132454706368 39.87958786294389 0.39772589904305844 0 0 0
923 1 27.165269736740175 41.255936981531306 2.0106741768375653 0 0 0
917 1 28.531862288354674 39.622232930692405 0.3094003157416623 0 0 0
926 1 33.328113100835374 41.38415606031927 1.7276736705968168 0 0 0
189 1 4.869776396129886 44.66954836517644 1.9473979973740856 0 0 0
183 1 6.400945190390984 42.81537363427158 0.3644637234488016 0 0 0
91 1 12.270309071250875 42.969320116971474 0.8184235514032113 0 0 0
191 1 10.854971303705 44.564541768232544 2.0641812128211816 0 0 0
193 1 17.515580402397543 44.831905480705174 2.0366843887324673 0 0 0
341 1 18.843897420125284 42.97046581928623 0.18271056867541102 0 0 0
928 1 23.710245624182868 44.68911767132309 2.010589821436504 0 0 0
929 1 25.56361242056961 42.97546446902433 0.5126052764959682 0 0 0
930 1 30.492563109236354 44.599796557414564 1.7279580472580758 0 0 0
925 1 31.939323111180975 42.96017579615997 0.14460363033842893 0 0 0
187 1 2.922021715544565 45.81918848468585 0.2644375270009719 0 -1 0
190 1 9.362263960099895 46.246493725761525 0.6644185409169819 0 -1 0
192 1 15.532208602712279 46.925455045542805 0.8082200329682714 0 -1 0
847 1 22.178454092588787 46.55585009973153 0.5523298175433107 0 -1 0
848 1 27.036381473912733 47.637007586137784 1.7821726409592775 0 -1 0
768 1 28.8846327404782 46.1818565466113 0.3026223329681503 0 -1 0
100 1 1.882514276592655 48.09742907469118 1.84849481906949 0 -1 0
83 1 -0.041008455039987735 49.53280135466214 0.5010776689743812 0 -1 0
103 1 7.852029495823066 48.41766289333222 1.7994081562615578 0 -1 0
102 1 6.225909183392042 49.63863970019628 0.4458625502033696 0 -1 0
109 1 12.33448972381488 50.015306957347676 0.5763874377629604 0 -1 0
105 1 13.968891652809766 48.45632622114552 2.136009180265061 0 -1 0
846 1 20.648188354025464 48.1005728135121 2.0378199816794234 0 -1 0
797 1 19.001874121248154 49.67364958546666 0.7130700014223145 0 -1 0
770 1 24.89715095409309 49.198936305125585 0.4960684442981912 0 -1 0
850 1 33.4520187044233 48.12756226425773 1.636552200253731 0 -1 0
853 1 31.779377380009734 49.72675686609928 0.369123360130601 0 -1 0
26 1 -0.06160149549828273 1.159969467040871 3.5911404866119803 0 0 0
202 1 6.153742377912925 1.611532262788441 3.4754496616371022 0 0 0
203 1 7.7855622178440935 0.12066566053978317 5.069251382265544 0 0 0
212 1 12.497009034394885 1.6192018073550174 3.9815162413886247 0 0 0
205 1 14.209965950927788 0.04446352873822507 5.534728513361759 0 0 0
354 1 18.550220424989238 1.44879774691279 4.103895459321922 0 0 0
934 1 20.47638761836776 -0.04325276955949123 5.159284025748111 0 0 0
941 1 25.471827788042585 1.2693654961463325 3.894391020033784 0 0 0
856 1 31.62642671223557 1.7919857582593313 3.819460713495439 0 0 0
939 1 33.376513003754525 0.20885614026351712 5.135618413050351 0 0 0
209 1 4.532468251452276 3.0090619597452415 5.393709634390287 0 0 0
208 1 3.139951783380759 4.631927272823319 3.581351608179911 0 0 0
210 1 9.323977351527285 4.7299722187665925 3.513984187128787 0 0 0
211 1 10.997663044303739 3.373868963628366 5.322280947081495 0 0 0
222 1 15.797384739008418 4.539384749875004 3.3146085802582546 0 0 0
213 1 17.210891701385986 3.505569836470739 5.571406003914215 0 0 0
948 1 22.214102415801324 4.410995036175319 3.22018853804838 0 0 0
942 1 23.69400250401318 2.8548747199283855 5.14272745614889 0 0 0
950 1 28.023314732935138 4.862129543725514 3.420094624285793 0 0 0
943 1 29.92827139504208 3.73906195898699 5.087515874906774 0 0 0
216 1 1.2231260993151032 6.031847071746447 5.2179903957915075 0 0 0
62 1 -0.1356010825497463 7.885083808565382 3.7561949434813955 0 0 0
218 1 6.0267574506362145 8.046081053011962 3.7002509026796626 0 0 0
219 1 7.871928891718952 6.472996669402321 5.183389504240024 0 0 0
221 1 12.273241677138705 7.914123360581359 3.4110945641460764 0 0 0
223 1 14.056810244177843 6.309645652786134 4.821805634116597 0 0 0
745 1 18.86902544051867 7.951527285242259 3.324873001348571 0 0 0
946 1 20.808950109761792 6.399846606419828 4.671802887860904 0 0 0
867 1 25.240370969866177 8.361232412291239 3.715042647892177 0 0 0
949 1 26.703727903703275 6.404489516679257 5.110938078609768 0 0 0
956 1 31.37475933405052 7.93941291917362 3.453721482776859 0 0 0
951 1 33.14677195982855 6.427562658058279 5.126213451973948 0 0 0
3042 1 34.791666124968295 33.623916932298 6.88044100978197 0 0 0
124 1 2.991186584179519 11.287507325050708 3.5586550962340544 0 0 0
225 1 4.271699980174202 9.473180107484895 5.12786538685247 0 0 0
227 1 9.205943529421953 11.212684332828804 3.7957800660042906 0 0 0
228 1 10.81378994489367 9.52770627398546 5.115690705157828 0 0 0
229 1 15.2493584436461 11.214835052708372 3.5740679056710185 0 0 0
231 1 17.101328174572362 9.388561502788134 4.859992233793878 0 0 0
952 1 22.01349015844482 11.374930588103409 3.5954232551759375 0 0 0
953 1 23.528523695282423 9.649224727107782 5.224873248928389 0 0 0
873 1 28.499754623966354 11.069511987304661 3.5503728504315433 0 0 0
955 1 29.966907274091948 9.697410449130116 5.082102236377935 0 0 0
875 1 34.7352043142365 10.685954969649375 3.5227080073327883 0 0 0
232 1 1.0029496704350953 12.80544855957667 5.1300267392934895 0 0 0
131 1 6.369941344336638 14.536230864097137 3.7263081229500616 0 0 0
234 1 7.669559380861238 12.84853246769717 5.5323603618381085 0 0 0
239 1 12.279455005519166 14.815577796821898 3.725834928607863 0 0 0
235 1 13.827164876593669 13.202466907902643 5.203857618540911 0 0 0
724 1 18.912274650043916 14.499557343127579 3.175671473380213 0 0 0
957 1 20.236849374463183 12.932276177369767 5.269404510249098 0 0 0
961 1 25.662823735469154 14.015937046569341 3.5468815325240115 0 0 0
958 1 27.104535637122662 12.7372600551032 5.308297378806192 0 0 0
966 1 32.15577409605223 14.49037094084791 3.4282484595541334 0 0 0
960 1 33.49950373627043 12.849890223764694 5.1273654899518935 0 0 0
135 1 2.9664647296386044 17.445770885368155 3.8527029122600442 0 0 0
237 1 4.731470133024206 15.984681083974564 5.391463022464289 0 0 0
140 1 9.60111478393317 17.647550303121378 3.202960723084716 0 0 0
240 1 10.869795560148392 16.487123226793237 5.246328585302897 0 0 0
241 1 15.847595674755176 17.745238314072544 3.500991502412557 0 0 0
242 1 17.368180526221476 16.076585045567285 5.067468975286248 0 0 0
877 1 22.261266683176963 17.5079268644509 3.37386390284014 0 0 0
962 1 23.96333664364879 15.908216786645927 4.69800735871189 0 0 0
883 1 28.83929301653211 17.643662048002493 3.5001113428231214 0 0 0
964 1 30.246823773664552 15.707844303591537 4.9781188981070255 0 0 0
129 1 -0.10287914405033963 20.758253677924397 3.446533392135327 0 0 0
244 1 1.3466982121017754 19.017222312189425 5.291286893921655 0 0 0
250 1 6.247514672442227 20.617810583485564 3.713966025191938 0 0 0
245 1 8.246501759859054 18.997172947502918 5.0393652265278615 0 0 0
247 1 13.863072501853864 19.187269522141293 4.934851962585124 0 0 0
728 1 18.86067195317003 20.264645555053853 3.7214369484841385 0 0 0
968 1 20.6556715054099 18.783964584306215 5.218712674390404 0 0 0
884 1 25.65652682675235 20.771561371022862 3.7617880651112223 0 0 0
969 1 27.321451391274927 19.07870618963913 5.2364602369804665 0 0 0
890 1 31.72838239451031 20.771064482561982 3.6634514061125847 0 0 0
971 1 33.268410934008664 19.36668928484077 5.2249248269268715 0 0 0
255 1 2.770780574596727 23.575217697204327 3.5338863697331444 0 0 0
249 1 4.477255088417691 22.137585161583754 5.164513053157924 0 0 0
142 1 12.370179116874175 21.05163372717701 3.499848264664703 0 0 0
251 1 10.82167260201915 22.430101194829394 5.372539931401662 0 0 0
252 1 17.218732373012358 21.804706733552962 5.270020722237818 0 0 0
892 1 22.121520712149 23.851570852676204 3.902783180388843 0 0 0
973 1 23.877502602301714 22.122089464895826 5.120514370543846 0 0 0
974 1 30.238379288340962 22.4155171478082 5.130965468226628 0 0 0
254 1 1.3503050119000393 25.541929956721052 4.999590789959374 0 0 0
257 1 9.256725239859435 23.927068701354983 3.511327061436105 0 0 0
256 1 7.709755496136541 25.551767304835224 5.13021271832011 0 0 0
258 1 14.173390043343248 25.359061986164747 4.889720884078008 0 0 0
153 1 15.862789862847293 23.885907651688374 3.46952528617297 0 0 0
976 1 20.485283511170955 25.251787875225432 5.348002131906795 0 0 0
977 1 27.072439101490204 25.500216768213303 5.467548359572622 0 0 0
889 1 28.68349813081167 24.00496388852316 3.425829040771829 0 0 0
979 1 33.58989967036251 25.711170781899927 5.360257381712313 0 0 0
262 1 5.789318552407719 27.027298593422096 3.5943461710744553 0 0 0
261 1 4.368238841320858 28.683716370999 5.104496757368896 0 0 0
263 1 10.729724674491333 28.831155031752886 5.285018171691118 0 0 0
159 1 12.522966983027004 27.214371129402114 3.5103129965542026 0 0 0
265 1 17.334231116360137 28.509084238147892 5.185019737243481 0 0 0
845 1 19.148791159453133 27.15420454688475 3.843541157024155 0 0 0
983 1 23.841990316703683 28.401538591057612 5.336054555099609 0 0 0
894 1 25.620310837834033 27.314489260826402 3.837202153592249 0 0 0
985 1 30.308273143567227 28.621958246675792 5.187648041471547 0 0 0
897 1 31.89175107927754 27.208747607755264 3.855464992821066 0 0 0
266 1 1.405415599971188 32.1489654351421 5.002741277221998 0 0 0
160 1 3.143656590075359 30.4463209907701 3.6018855716118843 0 0 0
267 1 8.03333812276092 31.76780415417128 5.1532310846882154 0 0 0
268 1 9.46415954047389 30.135174229331817 3.322715281698088 0 0 0
269 1 14.099752708732337 31.862078033327162 4.96532922406993 0 0 0
270 1 15.77536076492804 30.080846716850594 3.3114152256308036 0 0 0
987 1 20.675511047949307 31.67378984446932 5.112396718105838 0 0 0
899 1 22.266009337631086 30.06541210550057 3.656766601352506 0 0 0
989 1 26.520104832907332 31.681337091021156 5.308594593195007 0 0 0
990 1 28.557175877482425 30.522263897201938 3.735346453335167 0 0 0
992 1 33.45794819651338 31.829967322595152 5.800109155093929 0 0 0
271 1 4.746661516313388 35.04168130746447 4.933900547103612 0 0 0
170 1 6.1662121770567015 33.02941250698994 3.5468397340796924 0 0 0
273 1 11.460682008414052 34.67282697685708 4.9629958191995796 0 0 0
275 1 17.490056645055713 35.1919476829175 5.1976726815557885 0 0 0
1035 1 19.29730622460911 33.67097106750512 3.6447298476005003 0 0 0
906 1 25.103920680751862 33.24654996542823 3.6518410946372395 0 0 0
993 1 23.76708264313477 35.08407361142103 5.317194128109322 0 0 0
994 1 30.416665860009953 34.907951643782795 5.471318322661741 0 0 0
991 1 31.914400427672142 33.07410829852547 3.9190369801779745 0 0 0
168 1 2.6373779196892224 36.604977846777246 3.4588776168209336 0 0 0
277 1 1.0388914729235417 38.23800495614765 5.225487025216436 0 0 0
278 1 7.9083181905980116 37.982331591104156 4.691148928880522 0 0 0
279 1 9.519765520740666 36.21390497638775 3.3422482535274565 0 0 0
280 1 14.166143739453357 38.16460292668734 4.976644900662344 0 0 0
173 1 15.979659989206361 36.706058957766516 3.451643655797767 0 0 0
997 1 20.745825612740937 38.04001159997125 4.964540207286593 0 0 0
916 1 22.723263059973856 37.00764091038309 3.115154496044068 0 0 0
998 1 27.076422462357996 38.214550036326216 5.300961245529747 0 0 0
1000 1 28.914385577738468 36.63866858825831 3.718469979272908 0 0 0
1001 1 33.53402367769871 38.446353017481925 5.224401485265053 0 0 0
175 1 5.978632641760732 39.83358956233927 3.5489439512636354 0 0 0
282 1 4.3179618040630885 41.50849247371586 5.133563084453356 0 0 0
177 1 12.428853478120596 39.619602308652546 3.546575176073598 0 0 0
285 1 10.91592525444281 41.57080911265126 4.922735008667201 0 0 0
286 1 17.42928005507064 41.21729736912023 5.2774402005205285 0 0 0
1124 1 19.208857058580534 40.08049191585454 3.5345850184675336 0 0 0
924 1 25.511842856739218 40.16306948060398 3.9275419703057315 0 0 0
1006 1 30.29659940180453 41.12810226564369 4.840906857549512 0 0 0
919 1 31.91466638524242 39.58127425200884 3.3191565998359 0 0 0
289 1 1.5485750432609038 44.891155705959406 5.210622189841938 0 0 0
182 1 3.1010274435862026 43.35933172806692 3.312473678996792 0 0 0
284 1 9.164689306765775 43.16380132397825 3.740538473061055 0 0 0
291 1 7.631257129322338 44.99019471385354 5.006766550768675 0 0 0
292 1 14.14500066901596 44.671015563153915 4.898927552946635 0 0 0
186 1 15.871754920119326 43.03689431935652 3.5925601010148034 0 0 0
922 1 22.022858760897204 43.26378394031684 3.576176566375439 0 0 0
1007 1 20.460840713846736 44.89337136366328 5.261144725480894 0 0 0
1004 1 23.856769836818007 42.029170055937826 5.063790954212414 0 0 0
1009 1 27.057963854306376 44.18833275130592 5.265105055197635 0 0 0
1008 1 28.708062073017693 43.10449612226013 3.335538045883254 0 0 0
1010 1 33.566624114929276 44.44407155910274 5.208692915603223 0 0 0
47 1 -0.12868633255041434 46.82107521223766 3.710556010024501 0 -1 0
290 1 5.991038430375844 46.936183189709595 3.421595847281474 0 -1 0
104 1 12.485787221148605 46.768913041706014 3.827259891153064 0 -1 0
199 1 17.224863888854557 47.55293060373904 5.400363818648645 0 -1 0
818 1 19.186595283082305 46.5860526743531 3.4845128998452877 0 -1 0
932 1 23.9015564241004 47.96155225144295 5.216973276706008 0 -1 0
931 1 25.554266969029268 45.798327112957224 3.6323448448797335 0 -1 0
933 1 30.272812891591673 47.57998791306062 4.969319732671163 0 -1 0
849 1 32.25077881608436 46.44180339979792 3.3646473038014886 0 -1 0
201 1 1.4934241760196685 50.9796838328988 5.465011628244818 0 -1 0
12 1 15.822272724046947 49.48271335056042 22.69794764132699 0 -1 0
196 1 4.571576136164208 48.33290392231062 5.2659978296670555 0 -1 0
101 1 2.9927566790741884 49.73546586467137 3.748612702619572 0 -1 0
204 1 9.178265069571651 49.91479901451099 3.497286671338246 0 -1 0
197 1 10.540164666264737 48.27502682491769 5.286790422492018 0 -1 0
206 1 15.823151991696026 49.527698702441754 3.9199898153946036 0 -1 0
935 1 22.28764429551471 49.55989953710366 3.7928039094804324 0 -1 0
937 1 27.16169973254372 50.82622060605857 5.423217223129728 0 -1 0
936 1 28.641814065862437 49.430847588541894 3.545498232905579 0 -1 0
309 1 2.7103548535225963 1.34656073730297 6.990023599517549 0 0 0
300 1 4.700263075078289 -0.08837546065186094 8.388017412398137 0 0 0
301 1 9.429768797919303 1.660677468747825 6.51928034559793 0 0 0
214 1 16.05720464327715 1.3449596327205813 7.071900764994988 0 0 0
940 1 21.958808401776334 1.2524061239527866 6.671077811089453 0 0 0
1016 1 23.76140600073578 -0.14405999128990568 8.342736087730048 0 0 0
1022 1 28.487355482296838 1.6952056895768748 6.831382522031755 0 0 0
1018 1 30.245805911734376 0.013332999640490895 8.161356873961749 0 0 0
307 1 1.173228360919311 3.1933427372385355 8.578307896086118 0 0 0
45 1 12.667351670996338 17.503554434098223 -0.12768456128911979 0 0 0
310 1 8.051964723699781 2.9943600149356335 8.365148014100324 0 0 0
308 1 6.4475845516138115 4.690945022738455 6.969829044462962 0 0 0
311 1 13.025203713286356 4.531964873805709 6.6964535420915325 0 0 0
312 1 14.5610402284102 3.083170832506173 8.659771990913798 0 0 0
804 1 19.245161416445004 5.031732576584515 6.668623268028597 0 0 0
1019 1 20.09226109425302 3.1075030464578908 8.422999412925948 0 0 0
1020 1 25.16306470611724 4.5290232573503655 6.581270400956737 0 0 0
1021 1 26.733429724041535 2.9498634050224446 8.438966315567493 0 0 0
944 1 31.492012818347696 4.922119514240535 6.853497598739809 0 0 0
1023 1 33.25692297690373 3.3453685672562616 8.285986284504604 0 0 0
217 1 2.6869148543402406 7.746548683464619 6.947972673540706 0 0 0
313 1 4.333092997295568 6.091945239942134 8.341402258463436 0 0 0
220 1 9.554299607878354 7.9455220930938 6.860760142008137 0 0 0
314 1 11.291258936820771 6.459842341335433 8.381596886465474 0 0 0
224 1 15.715224556030387 7.809114716371034 6.399025291733365 0 0 0
316 1 17.419931894556083 6.610046363422094 8.176353709646065 0 0 0
1024 1 22.091653718776843 7.764193941323298 6.556117379361241 0 0 0
1025 1 23.716790022756303 6.18963959580566 8.298885176655853 0 0 0
954 1 28.362216655895818 8.100950601215194 6.6092587222795665 0 0 0
1026 1 29.91213356072714 6.321004716138448 8.784036148664338 0 0 0
319 1 1.2794594445808316 9.38941726565875 8.396355870486117 0 0 0
226 1 5.962835856668086 10.851355283329953 6.7934138527978165 0 0 0
320 1 7.537101301680251 9.286811112159926 8.24873789302524 0 0 0
321 1 12.428045564626053 11.067880701162455 6.6033462227094 0 0 0
322 1 14.140988403305327 9.50508926540559 8.078185470334908 0 0 0
725 1 18.65305680337165 10.816435666344342 6.677487933366894 0 0 0
1027 1 20.631166807086817 9.580254467240218 7.891042601302752 0 0 0
1029 1 26.805897838418172 9.315821001102012 8.595103060340337 0 0 0
1033 1 25.488286323929163 11.206785745435607 6.950705853607058 0 0 0
1031 1 33.304395780501835 9.28262495359793 8.250102037833011 0 0 0
959 1 31.68809125345153 11.243153337866158 6.7938880883541755 0 0 0
323 1 2.7992291145046 14.33248582439567 6.838672356293015 0 0 0
324 1 4.460318025142918 12.75598530596409 8.493361420540467 0 0 0
328 1 9.11763049897592 14.77170599696135 6.838725897597855 0 0 0
327 1 10.584387098053073 12.613997985011498 8.135004387931545 0 0 0
236 1 15.592607577674904 14.660448965709062 6.775584965398698 0 0 0
329 1 17.146292436648515 12.559088233038295 8.133116512616702 0 0 0
1036 1 22.086178287917804 14.53249029656369 6.5689639950821075 0 0 0
1032 1 23.733501970260622 12.920266294876003 8.120575748285777 0 0 0
965 1 28.995659677618775 14.434951426609135 6.767535421522141 0 0 0
1034 1 30.04674049677674 12.623439117280087 8.444212851749766 0 0 0
331 1 1.091800117699942 15.693185901332777 8.410925088519035 0 0 0
2764 1 34.74614783748287 49.86999979012529 22.910090177271883 0 -1 0
333 1 7.866635235464171 16.47265366562038 8.399635606387907 0 0 0
335 1 13.824974971701343 16.116743011448026 8.312121634778633 0 0 0
840 1 19.116003412113137 17.385603459300604 6.823629742427555 0 0 0
1037 1 20.703248246463932 15.780629011486525 8.33074063699104 0 0 0
963 1 25.585765855226917 17.54746144012699 6.621935263760334 0 0 0
1038 1 27.080198333868122 15.822863601920194 8.550900030005968 0 0 0
970 1 31.683356927272786 17.315170106157954 6.683881450411115 0 0 0
1039 1 33.077657514215815 15.730639269700939 8.383623670538705 0 0 0
248 1 2.7839454656329856 20.60920074212524 6.940007737301269 0 0 0
336 1 4.440537384441577 19.14374314021573 8.43762650244441 0 0 0
238 1 6.4086502717580585 17.855312019643815 6.783076950473137 0 0 0
246 1 9.046398591042939 20.79153876924826 6.948096548051845 0 0 0
337 1 12.236407403488442 17.96184074388229 6.815236423953354 0 0 0
338 1 10.613232633733015 19.1383360789828 8.789672906207016 0 0 0
339 1 15.299293124924505 20.572400028095334 6.811369528282197 0 0 0
340 1 17.131991332877465 19.07081360425543 8.356313601790028 0 0 0
972 1 22.14117074023945 20.519588992903625 6.898446235438043 0 0 0
1042 1 23.958802210820906 18.881340865802137 8.220200040204189 0 0 0
1043 1 28.671057377992767 20.86269491489251 6.836679319025034 0 0 0
1044 1 30.14465247703563 19.148134152969273 8.340325599513603 0 0 0
342 1 1.5197937122858252 22.347814296417273 8.519041697259745 0 0 0
349 1 6.148287965436207 23.63648532979601 6.470787134282481 0 0 0
344 1 7.07752280935268 22.313326784021122 8.402270286485331 0 0 0
346 1 13.832744018670303 22.058865427804687 8.652362319493685 0 0 0
838 1 18.977160143977603 23.493623216681847 6.9065460947017 0 0 0
1047 1 20.584718814239803 21.679299820680875 8.431053078874228 0 0 0
1052 1 25.635273904243633 23.82072312088406 6.491510944819706 0 0 0
1048 1 26.853725385253703 22.299468193768742 8.329954249071143 0 0 0
1050 1 33.534523928679405 22.283650203677453 8.76279099578365 0 0 0
38 1 -0.07493961059665635 23.93316476678838 6.715898927162813 0 0 0
2159 1 30.54095909743241 48.12771393887577 24.049822788041926 0 -1 0
348 1 4.478907755848577 25.405682427708857 8.065119404151057 0 0 0
351 1 11.029811729840885 25.174729313736442 8.272868623350517 0 0 0
259 1 12.734089301776125 23.887234152385112 6.841416806477661 0 0 0
353 1 17.35875467469185 25.548081265810584 8.244413797053083 0 0 0
982 1 21.83514848158491 26.857643825205123 6.631782501293182 0 0 0
1051 1 23.832944763168953 25.23245483461176 8.101874540513016 0 0 0
1053 1 29.989166181334376 25.230147603015592 8.583998225471882 0 0 0
975 1 31.728264211142836 23.91519133435585 7.062177835598866 0 0 0