LAMMPS data file via write_data, version 29 Oct 2020, timestep = 200000

4608 atoms
1 atom types

-0.3146287827644727 53.71462878276397 xlo xhi
-0.12332916657737414 51.03044916657642 ylo yhi
-0.12332916657737414 51.03044916657642 zlo zhi

Masses

1 18.015

Atoms # atomic

1654 1 2.928220837845913 23.218053872549063 1.0253058368430816 0 0 0
1401 1 2.547006645355225 2.281054139250138 0.8532084372679148 -1 1 1
1300 1 4.257023038574263 3.8373508839673534 2.5857720038507104 1 1 1
266 1 10.975041300198262 1.1040954898782858 1.504874300085661 0 1 -1
3547 1 8.323587489875301 27.991428056949527 24.2947204643188 1 -1 1
1080 1 0.21990158422906525 35.27070311649912 17.717900977463223 -1 0 0
1864 1 8.701256567440135 6.534435890688376 3.8607206584161045 1 1 -2
1788 1 14.043590003708994 1.6185520340385249 1.792048667237982 1 0 0
4074 1 11.531945068345172 5.8160373461928145 5.769347647284997 0 0 1
526 1 10.354210770009622 48.88196232591939 24.15382121178789 0 0 -1
2519 1 14.529872742866864 12.599911166804086 0.568249342849151 -1 0 1
1850 1 -0.2040934908908842 2.055707418323992 14.20496954074356 1 0 0
2318 1 8.930964997498517 48.1504147118514 0.05393847928643611 1 0 1
404 1 3.254663450226869 5.8207932312751876 1.1671988315193662 0 1 1
3105 1 5.150480878560735 27.24994595300963 0.29099750661341256 1 0 0
3246 1 5.919374636687458 36.39379146964038 0.7785829527926036 1 0 0
1030 1 14.315770068382557 9.757410500230174 2.9997806362176975 0 1 1
1675 1 3.3451963688995194 38.20709421882387 1.0016004624142776 0 -1 0
917 1 7.1157222633097374 29.01591098502014 1.165216365195954 0 0 1
2884 1 10.501309026568412 13.887635041369398 2.1248253378668407 -1 1 0
2623 1 6.169812604574399 9.835583963157838 1.8123474558909942 0 1 1
2337 1 11.734062031087682 11.321972066434961 5.284361769188786 1 0 0
1861 1 1.277318425937669 2.9209180950068596 18.74715746365664 1 0 1
912 1 5.470777619390406 40.2416771781363 0.9990442222977614 1 -1 0
758 1 3.8528344231028075 12.941361605791688 2.554384787501355 1 1 -1
1204 1 16.512414097380855 22.31322704899553 23.03999961438161 0 0 1
3443 1 12.742210336052517 12.326649499474199 2.8039841381199446 0 1 0
4340 1 1.3499021979118073 16.12861345746021 7.308287673415727 1 0 1
3911 1 4.39140520355288 42.66839870664076 0.6572759878180037 1 -1 0
2814 1 0.923669729957995 13.48486542355997 3.9958702639550703 1 1 1
725 1 8.581653543432083 13.255172095573114 5.137911129975996 1 1 1
4169 1 12.47305984148148 16.79552262378323 5.090027585357701 1 1 2
2691 1 0.7827163741207206 28.475376881458196 0.9610347254053124 1 -1 0
3231 1 5.387484786562167 38.393399959817586 3.328275113340511 1 0 0
2457 1 1.288819618900804 44.935333605770225 16.38814322131111 0 -1 0
2728 1 -0.3137285322151655 34.736407967477405 14.981930543910284 1 0 0
2907 1 0.011791105501359533 48.432735784103144 18.88270412799222 1 -1 0
1463 1 14.978283583791683 19.73758743296435 2.446667814561603 0 1 0
1058 1 5.845594711995396 0.6735036612850569 24.2883553019398 0 1 1
3480 1 12.758697771175648 1.023443227127767 25.023184967266655 0 1 1
4344 1 12.351784823952709 18.720049434653944 3.2040743500882853 1 0 1
215 1 17.337087864697107 19.53503805572965 4.488323509569085 0 0 -1
2276 1 6.510326968805066 0.5992724414827144 0.6114893185062636 0 -1 0
148 1 9.9405720555515 22.50097977959632 0.8352229749541666 1 0 1
2706 1 1.399091354184605 37.31081700649196 25.08124002912946 0 -1 0
3485 1 17.164665846845818 28.57789670472516 8.290697973393517 0 1 -1
783 1 16.373850031304585 23.762474177806315 4.461179873615597 0 0 0
3781 1 12.844322245786051 23.773303161798356 1.3896153709574446 1 0 0
3484 1 10.053712971672544 27.64512187995394 4.004351546721587 0 -1 0
2395 1 1.004509196640263 5.515977675455529 9.581395045887382 0 0 -1
1621 1 10.894910435551154 30.87081561881038 4.312918066740576 0 -1 0
1419 1 1.3122686914480806 40.01315615258132 0.3958104012513566 0 0 1
4504 1 13.918657474310637 50.33797532703326 21.714008117680702 -1 -1 1
690 1 8.89755906766815 36.17468124063356 2.3211763182856737 0 -1 0
2738 1 3.7162910034775107 15.24026307035414 0.43107890494829426 0 0 1
557 1 8.348214476579802 38.873232197593225 2.583160834177915 1 -2 2
4465 1 12.959018015495293 48.77350486009945 0.15608437104736217 0 -1 1
1094 1 16.524893404813067 21.673521443082944 0.848900979037116 1 0 1
1179 1 6.702351028770777 46.362938524483624 0.45368795003397366 -1 0 1
3471 1 2.837089111378765 35.34054041842289 0.10946319836736607 0 1 1
3723 1 3.448934752487757 33.38354208475582 1.8132813213720804 0 0 0
3022 1 2.1868755870289935 49.81779173852922 15.922624818177638 1 -1 1
967 1 -0.27034394293316116 19.805752833595704 24.575565720848555 0 -1 0
2829 1 1.51849958872692 39.48337841005248 3.392555395122301 1 0 0
723 1 -0.2836364921484665 23.739558317428802 4.882197962137623 0 -1 -1
273 1 4.459740925224422 34.68057226016798 4.435682981351706 0 0 0
393 1 13.154767762043567 35.17792726063209 3.7336727523639492 0 -1 -1
3285 1 11.582724447310099 39.7279329715428 4.034064052589307 0 1 1
3721 1 14.189657509663096 36.55347017803423 1.4610843800921016 1 1 1
2144 1 2.4252091470189923 44.16734591108775 2.2914939240730163 0 -1 2
1515 1 4.565133526260291 44.958943261240165 5.097756281198436 1 0 2
1307 1 14.20759274606213 40.38013966664697 3.6481441499114258 0 0 -1
812 1 9.985206704778925 1.7759361355139864 21.414705857576962 0 0 1
3235 1 0.7124817554016727 42.07195565090005 20.09459101525356 1 -1 0
1305 1 9.213690343171407 44.52601963025218 5.5432125075308205 1 0 1
54 1 2.1138796641334214 43.40757204482273 5.043267955125006 -1 -1 0
210 1 8.336036138527172 43.66970762209783 2.4705323892297715 0 -2 -1
2818 1 17.31694040469193 42.0867924751105 13.153201950070942 0 -1 1
3253 1 8.30671517365058 24.59834234456815 -0.08465136823014496 0 1 0
321 1 10.097616748495456 46.29698974173907 2.2424263481663322 0 0 0
2485 1 11.688861621224246 48.57283506695302 5.130369820964552 -1 -1 0
123 1 12.311009448158146 49.854034157913404 2.6624215310391715 0 -1 -1
4301 1 15.971962096554524 14.856962352384237 -0.008834511936641032 -1 1 2
2407 1 1.9302672113221604 49.133360363828984 4.032065261266661 1 0 1
1283 1 8.977529301322223 2.3976521162451903 3.1441916193208397 0 1 0
2384 1 9.00446877335317 1.7489166614001532 5.5814971762184085 -1 0 1
2627 1 15.709640645774023 48.601891390443214 2.6241851711240285 0 -1 1
2322 1 0.5498068914859713 3.0057396650902097 25.43705299009437 0 0 0
2181 1 3.8290258646044864 2.90164874712819 5.412884012505582 1 0 0
3779 1 11.768241794884664 4.454459133450871 8.40666486611473 0 1 0
4251 1 7.23711662729259 2.9878483357534664 7.441044242035158 0 1 0
2886 1 11.860753509566429 2.6113337334430793 6.060603641694689 0 0 0
3833 1 14.452666224261584 2.2024221700417512 4.6084935839920895 0 1 0
3462 1 0.0705582690976066 13.474973966404159 1.3374048618267549 1 0 0
897 1 1.1076515800305373 3.101143513615422 4.336134080548431 1 0 0
4380 1 7.337057184823169 15.020424563600711 25.403724955727483 0 0 0
2461 1 10.936341244802795 4.291381916604693 3.0577385631579372 0 0 0
1632 1 0.02662217730039229 5.890074546937393 20.036157368567302 0 0 0
3201 1 14.869866988212772 6.025058921064698 5.537019851539106 1 -1 0
1890 1 15.481986876116027 0.4165466932513058 23.77607368400429 0 0 -1
2052 1 4.449437239741523 9.62692154602848 5.780891909657531 0 1 0
2190 1 5.128131271582274 5.129823440443256 6.566370567570669 1 0 0
3952 1 6.959226606552424 9.07675979039066 4.68970421947935 2 1 1
2290 1 9.135291796257155 7.501704867952358 6.5497125409817425 1 -1 1
1567 1 16.61036005944613 1.29213302510582 8.912930421870973 1 1 0
2904 1 1.7804133666566124 7.9602610715525834 2.1332949295167136 0 0 0
4536 1 4.925932232821075 12.294981629141871 5.348087273763205 1 0 1
4404 1 8.242987127559632 12.216235645950206 1.2931937605170594 1 1 0
4362 1 8.94297199175243 10.683656288390699 5.8917549565756255 0 0 0
57 1 11.980272144865724 8.65781492873609 6.800157691226027 0 0 0
3715 1 0.7395685546293251 19.455106974417532 4.818530431803943 2 0 2
3364 1 -0.08693654009625165 24.119803454889578 10.91457523008702 1 0 0
2811 1 11.774118356681551 44.58053942274762 -0.014611943681138079 -1 -1 2
2469 1 6.759702560580476 13.42661919914429 7.579879243178857 2 -1 1
2922 1 13.806626961186437 14.220143866864856 4.3690818991160185 0 1 0
1932 1 9.799978078896672 15.703221604255278 4.417673349850426 0 0 -1
4334 1 15.951788925842589 15.703334588187655 4.08194587456421 0 0 1
728 1 15.802826132295085 10.58123738812084 9.092139442691165 0 0 1
4240 1 6.370928457459198 33.45876453120269 -0.03450067978769775 2 -1 1
3089 1 3.0424083016362555 16.12706584467506 3.518548920094608 0 0 0
83 1 6.856427214481086 13.685642668756326 3.1102040563424063 0 -1 0
29 1 16.65592521629775 17.094257939083928 6.3849137325995455 0 -1 1
283 1 1.5575145736611593 38.653861835992814 22.430047330841635 0 0 0
1957 1 7.346364045963009 16.173001843112477 1.4295148138505545 0 0 0
2137 1 14.271149377567085 17.7375041107933 7.048900355916359 0 0 1
923 1 5.461622162707221 17.429800531562265 3.159216885188612 1 1 0
1714 1 14.397442751453728 19.92282533936833 5.598350420533104 1 0 0
891 1 0.7963861614271459 17.46340604775088 3.2795537946706372 1 0 2
2077 1 15.641363915793793 42.990881652113444 22.437199335759733 1 0 0
1745 1 10.416828529567972 20.745255155072204 4.326137816234515 1 0 -1
733 1 12.61050290752052 26.138600195004013 3.1288195450488643 0 1 1
4022 1 11.121812413768316 22.021871435504522 6.773217952705138 1 0 0
3313 1 12.90162214795517 22.08567588656519 3.639908155915211 -1 1 -2
976 1 14.574663287523753 8.597255146329989 5.426006914595397 0 1 0
346 1 13.591170945577536 23.234184376072193 6.206154545007843 -1 1 0
2859 1 3.26507099916514 40.182086772068786 8.369578498832926 1 -1 0
1884 1 4.078331806339895 27.422451116881756 2.5949431317074882 1 0 2
3978 1 8.768553704461798 22.71282864469738 3.4626334998132613 1 1 -1
4157 1 9.57996539672101 25.123063959861863 5.264241419809037 1 0 2
4353 1 15.60841133489485 26.11667849794023 6.841243460065223 2 1 1
983 1 13.136349527301919 25.86585247409204 5.954236757823056 0 1 1
78 1 14.549756623149513 24.661330801385517 22.801003010625458 0 1 1
418 1 1.7486598808258838 25.839202767673722 4.385591133734206 1 0 0
780 1 8.641725323883199 26.86058018546263 1.873931707595559 0 -1 -1
3273 1 13.554247262102752 30.824029842571584 5.552254913804273 2 -1 0
491 1 14.098460967313637 33.29899337403724 6.518403166075191 -1 1 0
873 1 2.3475702390982636 2.2544765712033654 13.26408895217938 1 2 0
1207 1 0.41610809310869246 29.868561173954134 3.6167877329201468 0 0 1
137 1 12.920867921714432 9.863747580388493 0.2094447638057424 -1 1 0
185 1 7.817343727030826 28.609674111595627 5.874478172251325 -1 1 1
837 1 5.877203744457389 31.67272846741272 2.004185675738216 -1 0 0
603 1 7.659058259058507 31.671126629497373 4.690570198325489 -1 1 0
1215 1 5.677319918095332 27.02183217904985 8.072853821166815 0 0 1
1919 1 14.73306091215755 32.59614514694927 2.8196502177932157 1 0 0
3757 1 1.4407024205708014 36.04772274181377 2.8577531950001793 0 0 0
3035 1 5.56438272471637 30.851800708479004 7.026291234513281 0 0 1
3049 1 7.049082772948558 33.65386886335645 6.583565166769148 0 0 0
177 1 11.722581544163784 32.39859683734137 2.2368796739968877 0 1 0
541 1 16.202585880589417 34.9327640539029 1.6020377758075457 0 0 -1
2598 1 3.122545983421746 37.13170239977087 4.908955108547141 -1 -1 0
4487 1 7.009914990715743 35.563214338924595 4.327834891774373 1 0 0
2578 1 11.174060826746203 36.933507992391526 3.8728795940572063 1 -1 1
89 1 9.7815096691958 35.43687311212149 5.877170378815388 1 -1 1
1340 1 15.82611277506242 38.551147134201855 2.482032493918611 0 0 0
4386 1 0.5464266474952607 27.160327661597425 21.032026074583566 0 0 0
140 1 5.307637567333271 40.89011280833327 4.957892701857358 0 0 0
3773 1 6.368561530935744 40.60610231760174 7.639356795664963 1 -2 0
2654 1 5.7277100713296205 42.99317243488203 3.0924443194338487 0 -1 1
3786 1 14.508070187885352 43.08038078253175 2.912747089073302 1 0 0
3678 1 11.025276546277686 40.08654950610219 6.698774264411737 0 -1 1
3703 1 15.59915158099361 30.336827504981738 1.4293723938087979 1 0 0
3999 1 13.978773829813976 44.40084697058043 5.422846132172405 0 0 1
1952 1 1.7512169301784994 46.618784012606184 5.296939523477236 1 0 0
3223 1 11.444668125342487 42.22905227037579 8.263920022246369 1 -1 0
455 1 8.70543939504219 41.85689005689042 6.382007994653775 0 0 1
4239 1 0.2283070989007605 42.87382343698259 0.7758758126176309 1 0 1
2596 1 11.24197258819128 44.192567439389876 3.7978742389652687 0 0 1
3795 1 4.7844610741611815 47.36277421137807 6.829308618748243 1 -1 0
1553 1 4.639838294620782 49.051687362612014 4.6168775503855946 0 0 1
2413 1 8.931877428133262 47.44288304680589 4.582712839933015 0 0 1
3344 1 10.766970953415347 45.129704925683455 7.590454241346398 1 0 0
2038 1 0.6697190008475369 43.27662739239386 10.657813229051078 1 0 0
4351 1 4.100249440823181 49.65031861461311 8.48109686600458 1 -1 1
23 1 5.118628894005929 0.15662617867278011 5.892050207546544 0 0 1
2888 1 5.910398201415173 0.8198465157580367 9.00775748061676 0 1 1
1484 1 6.997947386614757 4.440992820665499 2.227273109937834 -1 1 1
1085 1 14.165708475059589 50.39987039743765 4.950506287123404 0 -1 0
4257 1 2.399977541707966 2.8538749487489556 8.14615264664047 1 0 1
2453 1 3.0349453486399804 3.9288911427557824 10.710494519490801 0 2 1
2148 1 7.345024247498442 4.680264953571704 12.80188533527354 0 1 0
2854 1 16.399994710194854 4.536710673759558 9.597744959127752 0 1 0
3033 1 14.834821026229108 3.823917612283751 11.773377532233493 0 1 1
3013 1 1.0884360134157 32.01288631762203 2.1208919934390997 1 -1 0
3919 1 15.123675208331155 46.61879564705603 0.4472545869149118 1 -1 1
3708 1 15.616495494535123 26.162548383561727 0.46533223864435413 1 1 0
3341 1 10.661556315675591 2.3817111606645573 10.581202386978648 1 2 0
2719 1 5.708416878354729 4.988560604378824 9.665079003163644 0 0 0
4231 1 14.34955862807517 5.799241942157454 8.23436365900577 0 1 0
2648 1 13.053986168506194 5.378228831808001 13.486715470236636 0 1 1
1331 1 11.21888422011693 27.441832206086584 0.7080559063693969 0 -1 1
371 1 3.9418010172155853 7.137822142219068 9.283129318925608 0 1 -1
3503 1 2.5554868233276884 6.529702230788706 7.006240575203381 0 0 -1
2679 1 7.493652633861207 7.320701539221429 9.220157493771078 0 1 0
1605 1 7.29703210638392 9.811099677444757 8.20755373336193 0 2 0
1671 1 15.846654104909536 9.058289666871193 13.17397727805232 0 0 0
3350 1 13.924074913043357 8.369876379960825 9.31942102563621 0 0 0
1000 1 4.508533592031218 10.05739941851039 8.621145862688225 0 0 0
3797 1 1.5025029036172777 10.718570288987916 8.804848785616757 0 1 -1
392 1 2.2158210326081886 8.150682914569014 4.9349023664929055 1 1 1
3081 1 11.2037649538269 9.115046202380555 9.713089480261857 1 0 -1
2415 1 9.528860951092101 13.531044849469017 8.276615102752949 1 -2 1
4460 1 14.525326539804071 15.150691316430377 10.440323149471102 0 0 1
2770 1 1.7997076100303002 11.15048153762076 5.561310119666333 0 0 1
412 1 5.283885460798648 12.804691007272691 9.842255942969082 1 0 3
1377 1 9.373254922080854 13.52704125874063 12.2187661904439 0 0 1
1490 1 12.13790389891755 13.45270860236081 7.087267043520309 0 0 -1
3922 1 13.657592345430373 12.453169002247876 9.11611204176747 1 0 -1
2568 1 16.64095312155643 19.965183501216384 24.78464289977572 0 -1 0
3084 1 0.0729672771339464 31.599817366454893 24.1731809518264 1 -1 -1
1247 1 2.956655178650286 14.887024584935403 5.9108700898382445 1 -1 1
945 1 10.997889052096454 16.505108817420204 7.984909226496466 0 1 0
2316 1 8.89422078587119 15.907633546289954 9.93772072900859 2 1 0
3853 1 11.752776098782222 15.439697744782832 10.861546607848583 0 0 0
1380 1 16.12170685132888 43.64751793829957 0.06825813459568272 -1 -1 1
302 1 3.477536313298314 18.52318796376266 7.873875527885445 -1 1 0
1185 1 6.265022554746219 17.738433618402627 5.924521456822452 1 -1 0
828 1 9.863477801211573 19.36809784090396 7.714415040099694 1 1 1
2864 1 8.478708717253125 18.256276560946525 3.872995028352809 0 0 0
628 1 12.86807727803828 18.36546847873944 9.645993854677906 1 1 1
3887 1 5.1956129066933405 19.889720426291348 2.394219583429516 1 0 0
3112 1 7.632477616368363 49.008324015694654 22.917691699636407 1 -1 0
3152 1 3.013820687225716 23.15654950578287 3.9268217662024725 0 0 0
3257 1 7.5814285294346195 21.46412111318042 7.667371593830393 1 -1 0
246 1 9.412800540629803 23.650822554317187 8.510263914284666 0 0 0
2672 1 5.773076305961741 23.398737922971904 3.7590312668635146 0 1 1
468 1 5.212141889253389 24.544661569509717 0.800655933967621 0 -1 0
3429 1 5.7972761252372775 21.032977691837097 5.460014715680048 1 0 0
61 1 10.843568315636245 25.92169438679404 7.547034739584601 0 0 1
4416 1 14.974546397136066 27.66713948442817 10.44829722812881 1 -1 1
3015 1 17.20387622335714 26.70701120176585 11.391455464896161 0 0 1
4589 1 3.4080376879684264 25.500736550083573 6.777893148246934 2 -1 1
1507 1 6.769110968416644 25.584651636063693 5.145192705797428 0 0 1
317 1 17.462509879681672 43.526948577823475 5.7072116245833175 1 0 0
2222 1 1.383930351345546 30.393667627518493 7.081464046779446 -1 1 -1
2688 1 2.1654198464498906 28.96063703365417 5.176498282643542 1 0 0
791 1 4.864063693391948 28.358712158078465 5.592723018475796 1 0 0
4475 1 5.435727979861403 31.523502121297902 11.791967426868107 1 1 0
3046 1 8.930157790721255 31.308708843737353 10.425769071358456 1 -2 1
1055 1 15.693544159086823 37.36792824099231 6.942851399490953 0 0 1
2124 1 13.927954435200359 15.703833121421614 19.10305620704014 0 0 1
3577 1 3.1484984068444177 32.40244978400631 7.413035906068534 1 0 1
3650 1 9.612573007154083 32.9560253724477 7.645020275083499 0 0 0
4171 1 12.675383508213155 37.85211249088864 8.208953873292279 1 0 1
1043 1 12.113400924409563 35.0467291970574 7.652061749476397 0 -1 0
1069 1 16.046268088493946 35.34031218179118 9.039459216409858 0 0 0
1983 1 1.4687269103242504 34.76108706307154 5.785576166525699 1 -1 0
564 1 6.377424519486813 29.854320511140134 9.497670621716313 1 0 -1
1658 1 10.53808804123421 36.884432767155076 11.133954984671796 1 0 0
1832 1 15.860481182311812 40.352693343910744 5.859712545929319 0 0 0
444 1 3.4991534677360376 30.091242766508454 1.6578642601923737 1 0 0
3124 1 2.5223414709001015 40.67322637356666 5.700074234408792 1 0 0
415 1 6.918107589604214 37.874106875933876 6.246164240681341 -1 0 0
2245 1 4.552673835101203 37.40757624559129 7.535627850043238 1 -1 0
1670 1 4.678452473718775 42.896981642678284 7.342525152486853 0 0 0
598 1 9.61377900487309 37.609583681144116 7.602327177164627 -1 0 -1
2571 1 0.9480100746287734 46.68579938016086 8.014253644826129 0 1 1
2550 1 8.70177938902518 41.730824732050024 9.750882399844764 1 1 0
2447 1 14.05912226732329 42.153761587278765 6.856895038413632 0 -1 0
3310 1 15.964337760055983 40.68391673101759 9.006166613633699 1 1 0
4414 1 -0.2554466053296518 0.08869745764559234 9.675068481665756 0 0 1
2720 1 7.899878955775673 50.45392584317176 5.475048540110025 0 0 1
2561 1 6.7251565962491515 45.29432299429659 7.438173598520424 0 1 1
1258 1 13.068337033125552 46.53911577342032 6.598612135826931 0 0 0
2764 1 9.90358931165664 46.07553483502839 10.636194136923578 1 -1 1
713 1 5.11429500508195 50.55907853821208 11.625092711294057 1 0 0
3495 1 1.8343631371584 0.08142960788236639 7.908142625621132 1 1 0
1508 1 7.92654099958947 0.5335183689272751 11.558384092213638 0 0 0
3349 1 7.291704772425163 46.54529830886426 9.750336480096069 0 0 0
2765 1 7.669009871380537 49.565609876949466 8.417553663499309 0 0 0
1113 1 10.486233216152984 50.119709772650026 7.0849950755215865 0 0 1
1887 1 14.514013206645846 50.95017838998636 7.8222209356664285 1 0 -1
4561 1 13.862248559382127 48.40904996090744 8.915489364810892 1 -1 1
4150 1 2.2358402310380843 5.109009917738782 14.439460663007907 0 0 0
1492 1 15.306411443566333 50.54614051866257 13.474371256034338 0 -1 0
2828 1 16.924149774111154 5.572026198263735 13.283741345033217 0 0 0
3735 1 0.43632850850732396 4.031779155496588 7.067067121263282 1 1 0
2812 1 7.761421749092548 3.215984109710864 10.279437953268951 1 -2 2
3255 1 7.423532352304141 7.362108086383439 12.159922757825605 1 -1 -1
3671 1 13.64924367903796 9.106905538989311 15.821608037684529 1 0 1
2538 1 10.733418369250321 4.599548977114922 12.432825328842515 1 0 0
2433 1 12.49942418671151 1.581066730911968 12.776693774448228 0 0 0
107 1 3.0657980768750472 6.727449408610954 12.090964538803348 -1 0 -1
129 1 4.882536773656317 8.479116640731673 13.015049789307755 0 0 0
448 1 10.163429848042595 6.404808164428588 9.533100508814924 0 0 -1
2766 1 14.529961580503464 13.022618791326117 13.784600182858194 1 0 -1
2989 1 13.181329145796756 8.366198181491594 12.284652204046965 0 1 0
1 1 1.2135604167322644 1.226603145314319 23.071830103434408 0 0 -1
1504 1 13.654410602936242 7.139816659068326 0.7158551304361805 0 1 1
737 1 4.290681645204145 10.52307879510478 11.779275547373274 -1 1 0
4552 1 6.769497069936996 11.64316547876071 12.150289264344185 0 1 1
574 1 8.986818658816139 11.269584708333971 10.156052053737055 0 -1 0
82 1 -0.03349279260235283 12.60176364172771 24.860550313763856 0 1 0
4217 1 16.08126895477562 0.044244695818617286 2.3382080573397386 1 3 1
3750 1 0.8717232942182256 12.969318492655683 7.959543873178989 0 -1 -1
2206 1 3.0421000431462684 48.20633258990253 0.3582012272461802 1 0 0
2938 1 4.222336417196054 15.379503819225851 10.693335262339682 0 0 1
2106 1 6.955369867684182 17.979261171725536 9.80373510239256 1 0 0
535 1 8.939107931293917 12.291006372663636 14.771712676154948 1 1 0
2383 1 0.6284649592141466 48.416012890324865 1.6646065803823766 1 0 1
4278 1 7.166349312780846 18.965326221433898 12.637882106035516 -1 0 0
4419 1 9.305431908759768 16.586232857579443 12.983261423394957 0 0 1
3390 1 11.68694531418803 12.593499848266337 10.882768645375387 1 2 -1
1536 1 13.051376521539249 17.627368428189726 24.845569201656602 1 0 -1
2154 1 10.44342036790064 34.29326192531343 1.0462060449641184 1 -1 0
3228 1 5.302185958845619 15.934796462431759 7.540559607514361 2 2 -1
1469 1 2.132803267334845 17.13023522050639 10.20588552375016 1 0 0
3058 1 9.110620020898015 19.99999219442037 10.314325364769816 1 1 -1
1808 1 6.986897215721512 21.74141863258642 12.820693977142454 1 0 0
3842 1 13.486768007743223 20.799681034675448 8.43622738585326 1 2 1
1102 1 16.3886956198163 21.286411898517898 8.456695498663496 -1 0 1
785 1 1.5818480599047888 25.803658489169404 9.235743370867102 0 0 2
4392 1 5.128088509621791 20.990745876892948 8.875078515230978 1 1 0
1394 1 6.4375076035357885 24.565765703278664 7.954018991244386 -1 1 1
3711 1 10.112682270856792 22.687244284261464 10.838627083189216 0 0 -1
1217 1 16.182731786584203 24.8198158503555 13.27283295996662 0 -1 0
908 1 15.751650909466736 22.595708259687374 11.114691966402075 0 0 1
1871 1 4.345197479565791 26.62915041301103 12.91985113076755 -1 1 1
2399 1 9.419774343864958 25.903048251103595 16.10738589128208 1 0 1
3778 1 8.66591211191905 25.090959922812214 11.896641779727055 0 1 0
1138 1 12.329703558298533 25.867602121459605 10.123797683895134 0 0 1
356 1 12.901283103699333 23.091197285954486 10.438448194482323 -1 0 0
106 1 11.412214900623844 30.220853138890433 0.24728685114720422 0 1 1
1684 1 1.496820538233126 29.327185467438706 9.65275055513964 0 -1 -1
3717 1 3.8231054578905255 27.784422995841858 10.354084698936637 1 2 0
2191 1 6.90610215309847 27.28376985452635 11.243173410686074 0 -1 1
2119 1 11.234459014486692 29.57507509737019 15.032215870732252 1 0 0
4420 1 11.373094726401275 29.451134238870242 12.144664568915976 1 0 0
721 1 16.72108960780774 30.19606392382008 14.161103665611906 -1 0 1
2442 1 14.199975087969893 28.685333636352865 14.153311061224183 0 0 1
687 1 3.308126921986678 32.78706332030693 10.374275170373465 -1 0 1
3269 1 8.511979915774036 27.796305379529993 8.41672331534784 1 -1 0
2296 1 17.486551973079713 26.230485500010374 23.889858660917007 0 0 1
1841 1 2.9910712769720997 35.653490110881705 10.683779608056607 1 0 0
10 1 0.7077960501304519 31.538786056528266 11.149866399080864 1 -1 0
2668 1 7.12575045032752 33.62983045439026 12.031365266635772 1 0 0
560 1 10.355459224606358 32.606951300198375 12.471631080016799 0 -1 0
3856 1 14.243866281101166 36.427572156672795 12.892147984068433 1 0 1
1392 1 14.20800481511096 30.378849654168633 11.970431265646791 0 0 1
1560 1 0.4946103493033628 43.01980443631952 22.57081018369389 0 -1 -1
2980 1 15.843179879831737 32.90843500341407 14.978740248601076 -1 -1 1
738 1 1.9100588836355001 40.51286888262037 11.151811508993777 0 0 -1
471 1 7.798186304832523 35.56405094190629 8.595159363220297 0 -1 0
3088 1 9.68194858222147 34.638066390314904 10.463222625527369 1 -1 1
2116 1 13.435037378505719 35.16705259581083 9.974149197433462 1 0 -1
4409 1 8.715730502082149 1.73536346147171 24.38906807074091 1 0 1
516 1 4.743892847037319 41.40948998425935 11.27196834519142 0 0 0
3917 1 3.5270985118211304 43.32347811645319 9.697159174633057 2 0 0
1892 1 5.929555033731832 39.13226240047521 9.958977975444245 0 0 1
1395 1 15.690292725459695 39.12244176241313 11.57772775897457 -1 -1 1
986 1 9.904024633546397 40.97628422549978 12.206790588275535 0 -2 2
2793 1 14.993803263431518 40.94464082807174 13.522900514557477 1 1 1
245 1 3.229837541894541 41.370269619262174 15.542327964023874 1 1 0
3128 1 6.563853155466877 44.10965843894833 10.537546347815322 1 -1 0
1682 1 10.911748768512952 44.92405218516066 13.140415916441546 0 0 -1
3300 1 13.156063991466716 38.596500664576084 10.684787893961309 0 -1 0
495 1 15.920642438946459 45.086700106535915 11.156701116312206 0 -1 0
1338 1 3.724410221763332 45.32717569950604 11.551330104562735 0 -1 0
4576 1 5.54765827273738 47.92534018752454 11.58129365511434 0 -1 1
2043 1 12.535171086033522 41.01807462628635 11.099463489913004 0 -1 0
1499 1 14.324382449688775 43.126505186381536 9.75428921459701 1 0 0
768 1 -0.2517594510596409 25.330047094236836 24.975716738826744 0 1 -1
2079 1 3.621832890335535 0.09454242136784616 14.004036492228346 0 2 0
4149 1 8.222112181572916 50.93536092248203 14.409431040854496 -1 -1 0
4423 1 10.398381120181613 50.55750217049328 11.020523541506847 1 -1 1
3674 1 12.024943082235543 0.8259870793617771 8.346809903811634 1 0 0
764 1 13.4057771223433 49.07947201055181 11.85756500542706 0 0 0
2987 1 11.102286541121858 48.44705685773262 9.16065474500846 0 0 1
1294 1 -0.08253178061992344 21.123190705167744 16.057941724395228 1 2 1
3675 1 3.6855007662945525 50.990826331106135 1.2115678543628614 1 -2 0
4121 1 5.093423547175429 4.166028212019998 14.486137216704492 0 -1 0
3329 1 15.830158036421842 2.188685634535493 13.895970730682933 1 -1 0
1972 1 15.169572273153314 5.0724839963389465 17.865841117530724 0 2 0
887 1 3.3256209741727965 10.319315103407469 1.3410212094044447 0 -1 1
4246 1 -0.2700382430845107 35.0746373963985 23.628629011177136 2 0 1
3114 1 1.741449135224669 6.6893795497804 17.75869127189518 1 0 0
3449 1 1.982222655402853 8.043126152120912 15.424158731354321 0 1 0
2940 1 5.899595583515452 5.7423754890678165 16.923054875897748 1 1 1
1054 1 12.043699877722217 4.849793523063367 16.07789357909843 0 1 1
120 1 9.55610391175239 4.008606658122994 14.976957689392666 -1 1 0
1473 1 11.870210131944242 7.477142341514064 17.357244868693915 -1 0 0
2694 1 15.234061805438452 6.674491023290165 15.444300625249664 0 1 0
782 1 2.525297175764713 11.132051967771385 15.99512368236216 -1 -1 0
1733 1 4.795916108472649 8.176210185057148 15.874826815025731 -1 0 1
4183 1 7.38109839111203 9.937778342775244 14.607976827482155 0 1 1
437 1 10.360980296804364 7.378254882468262 12.471608375109836 -1 1 0
1320 1 15.145534049423981 17.187378952734978 1.6331381356755856 0 0 2
697 1 15.201706197956142 10.404625530194856 17.5258608884149 0 -1 0
1669 1 2.345664861484491 11.95629383438143 13.226076134519962 1 1 0
1349 1 0.14474385732352824 49.38342213127703 13.930709436804532 0 -1 0
2026 1 7.235447425914429 8.762485924527217 18.112726154688545 0 1 -1
2533 1 11.870395739289973 42.065494448313174 1.6715771166776505 -1 -1 0
2655 1 2.0915313168351086 14.783478495005662 12.42748893675809 0 -1 1
1408 1 5.906411961125037 16.21915300904811 13.09165624104318 0 1 1
4001 1 6.7952524346798215 12.865413120208094 16.309243084621077 1 0 1
1297 1 12.575495541242185 11.175747116854406 12.999755209989518 -1 2 0
2695 1 11.14799676195691 16.037704733637252 15.395683061799776 -1 1 0
2885 1 15.456602095752501 15.86743784174037 13.889048274334552 0 0 1
2525 1 17.336530652903836 3.5395870420643667 18.50831831720317 0 0 1
4550 1 3.886526797684539 18.33240314109791 16.653814870221215 1 0 1
3702 1 8.638530016272478 18.229307392446927 15.495096558886692 2 0 0
1730 1 9.221408452397691 16.14343877543977 17.52916702976405 0 0 0
521 1 16.855548047994418 32.94645184188492 4.877049102781115 0 -1 1
2463 1 2.828492701765841 19.5592368964759 11.577657945161278 0 1 1
3816 1 0.5796300809532102 16.051698809893082 14.515301430724188 0 0 0
2786 1 4.226616625479248 21.115243896766817 13.380751024283462 0 0 0
4553 1 5.156697521134974 24.113469155755013 12.340832716713745 0 1 1
2070 1 10.09526468448655 21.051085986267235 14.125667599533484 0 0 0
3609 1 11.987861292198255 18.72934799569776 14.875832257683019 1 1 0
2254 1 14.337972423580245 17.78474832255441 15.98953592882269 0 1 -1
2659 1 14.991811698178667 17.885066114676146 11.583221608345594 0 0 0
814 1 10.510125590178552 23.812598961379162 23.748264882516562 0 1 0
674 1 16.614168197467972 47.49585824762967 9.393758824346055 -1 -1 0
3967 1 1.8530298669700738 21.640077299520676 9.786801311052523 1 0 1
4280 1 0.5293168694132128 19.282651160770882 13.329575467914449 1 1 0
959 1 7.111059045993258 24.720829725101368 14.436066778456901 0 -1 1
3612 1 12.207137186084706 22.53088925629814 13.420356224353045 0 1 1
595 1 14.296113113629191 20.695906274656913 12.694656211247977 0 1 0
905 1 4.0057124339689345 23.504450974863147 9.559864561795717 0 0 0
1908 1 10.074886875330806 23.099741747352795 16.3198416925317 1 -1 0
4085 1 13.487265012285615 25.649636559764666 14.023268209843701 0 0 0
3057 1 15.86301944318432 20.205398869979557 15.220404496122786 0 -1 1
1328 1 0.45678397607679233 28.097642914931487 18.473548863417513 0 0 0
3125 1 7.243651654504398 30.644785414805618 16.978028473452834 1 0 0