LAMMPS data file via write_data, version 29 Oct 2020, timestep = 200000

4608 atoms
1 atom types

-0.054238348604911835 57.32474834860284 xlo xhi
-0.048211865426608824 50.95533186542683 ylo yhi
-0.048211865426608824 50.95533186542683 zlo zhi

Masses

1 18.015

Atoms # atomic

138 1 0.1626041728556018 28.638234759886135 15.691961131298545 0 0 0
29 1 4.894683553791497 1.4696474249291918 1.7432514937940986 0 0 0
1183 1 6.391238769285792 25.503777964863737 25.29822090869126 0 0 0
285 1 11.292730433970375 1.6336686648519871 1.6797602997367305 0 0 0
178 1 0.20913470594190714 35.23826454491704 9.687742474406852 0 0 0
541 1 17.488525960665626 1.6127672692722017 1.855285286510048 0 0 0
740 1 17.457470627297912 49.36928632468456 23.9902545292272 0 0 0
30 1 1.710415366257359 4.987712846593313 1.7127052435664354 0 0 0
286 1 7.66590520228708 4.880454712381633 1.503858618682031 0 0 0
992 1 3.0966465778794454 41.40418492830924 25.06674654567354 0 0 0
542 1 14.107254353909367 4.767763823188848 1.607245923425018 0 0 0
1312 1 15.977661659970604 3.0146440271878028 25.379393722538428 0 0 0
569 1 16.17176658977362 6.277811213692836 3.0827806989217423 0 0 0
61 1 4.602750843620346 7.800818015592631 1.4202922291496416 0 0 0
317 1 10.732950958129022 8.241458173904585 1.7909009439122414 0 0 0
573 1 17.522246597637388 8.070908972465318 1.1780453767701728 0 0 0
192 1 3.8665293119346 35.46043952376419 0.2220170578850067 0 0 0
62 1 1.6960376731322204 11.503496926893432 1.4378724262462057 0 0 0
89 1 2.8554549996949405 12.911236472635395 3.208614439524915 0 0 0
194 1 0.3178017208831676 41.33633436842419 22.201660825848762 0 0 0
318 1 7.294028456547188 11.270666721253756 1.4013589872177987 0 0 0
345 1 8.8693275749533 13.047266042217247 3.167907644147558 0 0 0
574 1 14.207859517131153 11.454042427639694 1.3808316648567365 0 0 0
186 1 0.05492575910455985 35.14494680645674 2.7964956891262167 0 0 0
93 1 4.71143793764887 14.158316385029085 1.646228712569617 0 0 0
55 1 0.14266069265045578 5.994363213138567 6.331376494789945 0 0 0
349 1 10.569499657716031 14.79254422369197 1.5741819213833577 0 0 0
605 1 16.90315432663474 14.237086454006699 1.333178815352957 0 0 0
170 1 0.31725516990248415 35.200349421143144 15.784626131447176 0 0 0
94 1 1.4700531936641588 17.332736008344174 1.7457460111698344 0 0 0
121 1 3.1271850199437012 19.08931804521684 3.3115381553783396 0 0 0
350 1 7.766329209215404 17.748088115731665 1.6524793568155574 0 0 0
377 1 9.271562975863922 19.27577354526924 3.2160081858911402 0 0 0
606 1 14.225584157680402 17.50370555368042 1.6362454157825028 0 0 0
543 1 12.873029974880819 0.04406454731865035 0.17017849281659678 0 0 0
125 1 4.5297915513632026 20.385261984558305 1.260201475535214 0 0 0
378 1 6.312229203392105 22.030222623901267 2.763490630609109 0 0 0
146 1 0.12936361773248647 28.697487439387448 9.446520334689875 0 0 0
381 1 10.582427292660908 20.909777304992062 1.4138456742348104 0 0 0
637 1 17.332655625163543 20.717618948556506 1.7064106720621757 0 0 0
126 1 1.2872775270560641 23.70068644388182 1.2380454197684927 0 0 0
257 1 9.261776903510734 0.15531255517490145 22.348045712406137 0 0 0
382 1 7.9410252947276865 23.613680086230644 1.4315166985702337 0 0 0
199 1 0.27103402657693665 38.15580499866689 18.992753021749426 0 0 0
634 1 12.832448015215865 22.287660439351367 2.6239939370537746 0 0 0
638 1 14.394889077479165 23.982340304291668 1.0294195545717826 0 0 0
23 1 0.07578226960757917 0.36119550999811495 6.450424587378276 0 0 0
106 1 0.14086163128464335 22.01055140157688 15.867748275748149 0 0 0
157 1 4.613834897407255 26.6576586740146 1.3546423039292157 0 0 0
413 1 11.360076827196457 27.007220182528133 1.4454271981795705 0 0 0
409 1 9.440807290579729 25.429053447484414 2.932043640637523 0 0 0
665 1 15.893566588973277 25.42554639071868 2.857044100861958 0 0 0
669 1 17.451556921859428 27.294384672060254 1.3409176575623214 0 0 0
158 1 1.9814668122507002 29.98890030515405 1.9529780117436362 0 0 0
414 1 7.848046812542952 30.070558783319157 1.439233790645081 0 0 0
670 1 14.017266482730923 30.58257212127384 1.2429513087072577 0 0 0
666 1 12.7523140428795 28.726035398088516 3.0960609275653797 0 0 0
738 1 12.719111966671045 47.89724540028019 22.46155478311999 0 0 0
185 1 3.434119250488573 31.99272517556892 3.358421915696545 0 0 0
189 1 5.098363011840084 33.34060208298764 1.6051372990038713 0 0 0
143 1 -0.050436641424468576 25.43491611750778 12.57918956566679 0 0 0
87 1 0.06888879567178106 12.698784982755791 6.4959230939420625 0 0 0
441 1 9.380383935401857 31.69038544899457 3.0847367807864146 0 0 0
445 1 10.920343113295969 33.89085884986496 1.4228271345335062 0 0 0
701 1 17.337033447628233 33.678512603096756 1.2203719556619446 0 0 0
32 1 3.530432081004168 3.256868866454991 0.15724237418044976 0 0 0
190 1 1.668718733222762 36.611965543801524 1.2439408661360152 0 0 0
446 1 7.605909932054333 36.867587965842915 1.4153998034526425 0 0 0
130 1 0.26813302231378466 28.651532394443922 21.870136653047744 0 0 0
698 1 12.849721805860773 34.93409140306254 2.753531864043295 0 0 0
702 1 14.208649309246852 36.8811369583099 1.1692741502098836 0 0 0
729 1 15.840707975838523 37.991034193360555 2.8273354653563683 0 0 0
484 1 10.905863957548744 49.3720545483123 23.825256099206737 0 0 0
221 1 4.634061955577625 39.84213258286715 1.9218025416828715 0 0 0
217 1 2.8652521357562053 38.3454902127306 3.21822010609207 0 0 0
477 1 11.10086332536847 39.83498524492361 1.611301258500732 0 0 0
733 1 17.633475621157306 40.034440291085495 1.376854472207661 0 0 0
222 1 1.6058519232279762 43.24055511052951 2.0087067055046157 0 0 0
1023 1 0.042023914004452934 44.7238431270537 25.14669142681745 0 0 0
249 1 3.0133687303232684 44.87860670344347 3.56046291094218 0 0 0
478 1 7.846301112864167 42.71145045560508 1.6379272530876234 0 0 0
474 1 6.076257137357273 41.27917997744659 3.627928871090572 0 0 0
26 1 0.1631903701755956 3.0645779150053962 3.2508215224920916 0 0 0
734 1 14.35205568712941 43.11899338834332 1.2280290799893443 0 0 0
730 1 12.943772971540952 41.394200530613126 3.078994801714596 0 0 0
2463 1 18.930728406891262 25.391820019280033 25.416289534923337 0 0 0
1791 1 19.042400246806597 44.221241140236316 0.23031543074595429 0 0 0
253 1 4.685551364199618 45.74046923538199 1.3373801740752953 0 0 0
509 1 11.057828706482239 46.33713808994985 1.641382754156174 0 0 0
505 1 9.389259533519228 44.6701376487071 2.9643850551097213 0 0 0
762 1 12.436627079835748 47.67507025184915 3.5671909601859815 0 0 0
288 1 9.450712146304241 3.466901303263877 0.2777292493092786 0 0 0
765 1 17.17925899514438 46.092845362775016 1.4772517792074815 0 0 0
254 1 1.4385373393100935 49.00948397910456 1.5745968799190913 0 0 0
58 1 0.3825945801792003 9.612841030232632 3.087198809296346 0 0 0
510 1 8.040938911498348 49.59057862804198 1.541063664172487 0 0 0
1722 1 18.969256063212264 35.09055580378885 2.9922762285685867 0 0 0
766 1 14.310866629833887 49.48090896059836 1.8345146330195077 0 0 0
228 1 4.867171531433742 49.186139123069786 23.500049177842225 0 0 0
27 1 2.080794595383145 1.6336221464277993 4.594092791215977 0 0 0
24 1 3.1876208818578866 3.2666188445439936 6.488364182953517 0 0 0
282 1 6.4108252667406465 3.1700906054698654 3.195776295675556 0 0 0
283 1 8.031942153239747 1.9528706344134088 4.545157163654259 0 0 0
535 1 12.651442222849095 0.3091938377730887 6.566769381162274 0 0 0
539 1 14.129983275578535 1.9914149986426843 4.8807224965840055 0 0 0
57 1 2.8847769697500882 6.4664614931653475 3.493603387606036 0 0 0
28 1 4.637984787493347 4.898372406419711 5.012300217306283 0 0 0
284 1 11.198234581843936 5.030430223916283 5.111711233057204 0 0 0
538 1 12.50061025430444 3.5455988913511534 3.3258995698964626 0 0 0
313 1 9.437538250923684 6.271179344144641 3.2283470365901668 0 0 0
540 1 17.341000426957113 4.65511551942883 5.081532203515543 0 0 0
1730 1 18.848604060971887 40.90968960650187 22.186979338960125 0 0 0
59 1 1.4635417784391114 8.142801363393726 5.052865991630322 0 0 0
314 1 6.1925225815672755 9.513073872590619 3.0091189978393693 0 0 0
315 1 7.885025007590892 7.959810383940974 4.5912038314979755 0 0 0
571 1 14.287723380540259 7.915954977260114 4.605146441978036 0 0 0
570 1 12.941223430537688 9.79084334016313 2.839955778814548 0 0 0
111 1 0.0077579596303232815 18.91472466588985 12.828602671212888 0 0 0
60 1 4.692402032541922 11.056487704952755 4.5118082555166525 0 0 0
316 1 10.866977690072721 11.221171006225928 4.51347722645721 0 0 0
601 1 15.466410000526535 12.889667726955704 3.353534086613532 0 0 0
572 1 17.559816214324773 11.098701170265302 4.502433426500085 0 0 0
91 1 1.6300629454302962 14.397425368340581 4.9124119512748 0 0 0
88 1 3.186055618004139 16.090739548126887 6.29899105903606 0 0 0
346 1 6.139077276615332 16.076323000892383 3.2330617707424723 0 0 0
347 1 7.6998407707940855 14.555630105097055 5.061206032657925 0 0 0
602 1 12.319910033414693 16.096389382828896 2.9762971377814815 0 0 0
603 1 14.003203327074743 14.495711209606977 4.770005771686507 0 0 0
151 1 0.10151005171009095 25.532345266363222 6.187214343335414 0 0 0
92 1 4.785664959174137 17.758375894588067 4.935325001759537 0 0 0
375 1 6.554414253681885 19.32946705706509 6.46612823246944 0 0 0
348 1 11.0605876624564 17.695224280422316 4.701270656598433 0 0 0
604 1 17.285203717293605 17.560007581349776 4.785772217957399 0 0 0
123 1 1.4708458096248682 20.808498459561015 5.14515753050973 0 0 0
120 1 3.161409830385777 22.230054685402568 6.592134116381403 0 0 0
379 1 7.903575195650878 20.925127970775197 4.839140101302065 0 0 0
635 1 13.999105821305028 21.151189077948956 4.794436789544918 0 0 0
633 1 15.584835281051735 19.244305059952186 3.3483203129180152 0 0 0
124 1 5.123300747780542 23.586436562764575 4.815541615774001 0 0 0
376 1 9.775645663247133 22.43121324603764 5.944391125478331 0 0 0
380 1 11.316392708802537 23.93675733154894 4.423682897397306 0 0 0
663 1 12.53618983431243 25.824822611593515 6.240365170797835 0 0 0
636 1 17.506969314466573 23.741248890752598 4.453060156299831 0 0 0
155 1 1.8055316235964667 26.592648169464216 4.55227079087461 0 0 0
153 1 3.2903309383378327 24.795661671625073 2.8958493419495026 0 0 0
411 1 7.789183156669768 26.973290511872843 4.675067377468727 0 0 0
667 1 14.288595964948057 27.046617099862377 4.534414859232854 0 0 0
1642 1 19.039066779026903 22.13208072283855 15.805578540030373 0 0 0
156 1 4.505775550175352 29.918372544423804 4.744775705139372 0 0 0
410 1 5.969156381859254 28.452301869147785 3.001886507184808 0 0 0
412 1 11.155272793937693 30.305490103694822 4.560141179244028 0 0 0
668 1 17.766070260253482 30.398815923496112 4.8476365356043996 0 0 0
664 1 16.018054131180246 28.65037573018128 6.210135493383254 0 0 0
1055 1 6.4725351972258265 50.58260830737006 25.337224766776185 0 -1 0
187 1 1.3917656142941752 33.56307588933413 4.79317753307205 0 0 0
443 1 7.8213986063247045 33.43517168865417 4.993487125639111 0 0 0
697 1 16.038956016517382 31.67029305280483 2.9304370419926333 0 0 0
699 1 14.181165321178831 33.428797224231715 4.449592225769767 0 0 0
695 1 12.688507585943906 31.968597825168295 6.250797703648315 0 0 0
184 1 3.33805648740629 35.1906032675208 6.342088518129453 0 0 0
188 1 4.6412548996847045 36.57279503018497 4.4440781149590505 0 0 0
442 1 6.528517959588801 34.81494086692734 2.96727893874528 0 0 0
444 1 10.739818195901735 36.49123068326134 4.103450447291884 0 0 0
700 1 17.560933555605757 36.80806235452131 4.552548717136272 0 0 0
1551 1 18.927635854763725 50.84575398926186 12.762602285612731 0 -1 0
219 1 1.1396503546293808 39.9875944693824 4.6466518750927 0 0 0
739 1 14.183497573579446 45.95962387249264 23.962157503519094 0 0 0
216 1 2.833335590949576 41.330310490354364 6.199520585952146 0 0 0
475 1 7.905423206575886 39.44664919545771 5.0526685673178475 0 0 0
471 1 6.351311942724313 37.76574684349624 6.287212051688321 0 0 0
473 1 9.140544087680507 38.25700742238103 3.0487718140634925 0 0 0
731 1 14.714029959244666 39.799893250793524 4.529609053035588 0 0 0
728 1 16.134564658672073 41.43108058385454 6.192308883176413 0 0 0
220 1 4.479753250497056 43.034117478223415 4.791207016124805 0 0 0
503 1 6.16430957278567 44.54898805807946 6.289309794385164 0 0 0
476 1 11.292322709358743 42.893024328882646 4.485540397154158 0 0 0
759 1 12.59468365982674 44.335659223925006 6.286948307703213 0 0 0
761 1 15.63152714607241 44.49601337368673 3.1305263477986878 0 0 0
732 1 17.607389017259408 43.4122540286211 4.778838363689677 0 0 0
1216 1 9.383337797214104 34.60556232020812 25.43120337893226 0 0 0
251 1 1.2503632901980253 46.62838029589062 4.8846680567766265 0 0 0
248 1 3.2955585069665116 48.063881832302954 6.053567119875674 0 0 0
506 1 6.585322703690197 47.52159744863213 3.1146279257886995 0 0 0
507 1 8.016444826353247 46.184223313322484 5.059191585008805 0 0 0
763 1 14.189294317709015 46.32620595848645 4.906334690804825 0 0 0
760 1 16.026991603776402 47.74243653449486 6.332791741167132 0 0 0
25 1 3.1171035634486697 50.51616983094042 3.014909500950151 0 -1 0
639 1 12.24581325455554 18.794840854661366 0.14846521553445 0 0 0
252 1 5.058865178081317 49.370067050671935 4.692691653337255 0 0 0
281 1 9.537529761914637 50.94216029222793 3.413659809264406 0 -1 0
508 1 11.025644179291561 49.26538354958042 4.809115537335157 0 0 0
537 1 15.688490039845824 0.465254175946175 3.5570188370595393 0 0 0
764 1 17.665759182906616 49.531924607959155 4.7817033185008375 0 0 0
1775 1 19.019535690389255 44.58284318472073 12.758648192679043 0 0 0
17 1 3.2537776221493937 0.21362024994313727 9.48861972281809 0 0 0
21 1 4.7615824534926015 1.8683724591256696 8.001080452453111 0 0 0
277 1 10.711806173557928 1.810673444349694 8.021809068339984 0 0 0
529 1 15.646199618507584 50.557504603249534 9.594932378658205 0 -1 0
533 1 17.37593717792608 1.090799048291981 8.135033009372435 0 0 0
419 1 7.842704972574494 33.19795593866719 23.53948473970179 0 0 0
22 1 1.6929016900510414 4.507008466002166 8.19948190347371 0 0 0
311 1 6.338880512030602 6.444536590782448 6.216041640076964 0 0 0
278 1 7.965679389095946 4.958257250966336 7.804939376172698 0 0 0
280 1 9.354097019421863 3.4454002024141754 6.237811459263459 0 0 0
534 1 14.3703158097653 4.882289586270899 8.26898427600611 0 0 0
536 1 15.97853822219112 3.059490963184508 6.659213983767821 0 0 0
15 1 0.17988560557945332 50.851998643686116 12.854510284432747 0 -1 0
56 1 3.3343630800686963 9.45563811705399 6.321617735856365 0 0 0
53 1 4.7225949002242285 7.8377662145686395 8.12839929944082 0 0 0
312 1 9.499360957792486 9.553381387517813 6.25445759830019 0 0 0
309 1 11.167896870239712 8.20145074011509 8.057190391777741 0 0 0
567 1 12.662629507584677 6.452182536849124 6.720551098483317 0 0 0
565 1 17.362007981621115 8.332746381217916 8.305548913219225 0 0 0
561 1 16.211870714816875 6.178784180718897 9.801426786889042 0 0 0
483 1 7.848838672345683 46.288713560047164 23.581916866936343 0 0 0
54 1 1.4234352962152736 10.851250488677984 7.953220733133312 0 0 0
81 1 2.882720104908368 12.560676117773493 9.677880011024737 0 0 0
343 1 6.212286305952959 12.859286853162446 6.440151187921664 0 0 0
310 1 8.051780320484292 11.291042708702808 7.918726305412499 0 0 0
337 1 9.728974533278292 12.759037304118976 9.590935824606612 0 0 0
599 1 12.439550662359094 12.727735182681442 6.151884557432502 0 0 0
568 1 15.95285025302276 9.363380339124634 6.055695452238159 0 0 0
566 1 14.217631349348661 11.128194308471732 7.558254996333911 0 0 0
593 1 15.870942869537085 12.62304964062439 9.130621690934081 0 0 0
85 1 4.462628989461084 14.281994852211774 7.863373030739785 0 0 0
338 1 6.148561392979976 15.655929507007258 9.523796753870606 0 0 0
344 1 9.381690315140357 16.01614677952136 6.535386416603879 0 0 0
341 1 10.98458953181732 14.336353246602563 7.851235809445781 0 0 0
600 1 15.406510185276328 16.018290881829863 6.31435644464459 0 0 0
447 1 6.563143090976832 31.60511590360113 -0.021638437858286143 0 0 0
597 1 17.2527815719249 14.197636611350436 7.596324099278422 0 0 0
86 1 1.203936330402115 17.604010214012494 7.865527732893765 0 0 0
482 1 6.288897794098827 47.666087377677 21.895034746811426 0 0 0
342 1 7.850033482407923 17.646961556823225 8.26662341107153 0 0 0
598 1 13.988692579903669 17.999806972592097 7.939131441167186 0 0 0
625 1 15.748703172594974 19.453302950750786 9.506022724355052 0 0 0
117 1 4.920984470906724 20.773460525904895 8.12615960013759 0 0 0
370 1 6.593004077215295 22.63833569844697 9.513491657264476 0 0 0
631 1 12.445744872887259 19.607954464405346 6.465656494103414 0 0 0
373 1 11.040422822831786 21.274356699442617 7.981471728584289 0 0 0
632 1 16.002906694236305 22.528600679766058 6.241504890905951 0 0 0
629 1 17.51881284289098 20.865081707273273 7.803162453499867 0 0 0
320 1 8.985470060098908 9.788661735455136 0.08199750029925029 0 0 0
118 1 1.5466271887262413 23.796670897535265 8.026291704531328 0 0 0
374 1 8.425200661601119 23.776683222940804 7.775145177447691 0 0 0
401 1 9.222636282185706 25.5655279424542 9.67800350438496 0 0 0
630 1 14.024489720630804 23.96619488751752 7.6709534914176265 0 0 0
145 1 2.9794521617379477 25.383750953039232 9.66993958217815 0 0 0
149 1 4.66755162312597 26.90743267111686 7.8999079354723385 0 0 0
407 1 6.4323642776446635 25.392334302692294 6.453824110235694 0 0 0
405 1 10.992447934716182 27.199048658840216 8.107294733723993 0 0 0
661 1 17.369824528206024 26.575578480065996 8.005090966945259 0 0 0
2527 1 18.993635128793557 38.30322181136587 25.442397104767775 0 0 0
150 1 1.5502228907259175 30.301302603540222 7.735493123243377 0 0 0
152 1 2.9663277778874804 28.34064174074089 6.27429854367843 0 0 0
406 1 7.890105917852407 30.311109683017662 7.865713139679611 0 0 0
408 1 9.432315774823273 28.691410130999174 6.251808648344052 0 0 0
662 1 14.333852442958083 30.118997301280213 7.625961277179696 0 0 0
658 1 12.898980300308466 28.651698149354747 9.571652006780152 0 0 0
1714 1 19.067131803732007 34.95772523282811 9.359699360016071 0 0 0
181 1 4.55887080921573 33.43342202361955 7.8400763044273365 0 0 0
439 1 5.975577985856784 31.782100894553338 6.334572315649712 0 0 0
437 1 10.90078292269054 33.58040702887799 8.020042270595157 0 0 0
689 1 15.802002092613586 31.794521293660257 9.383815154904752 0 0 0
693 1 17.484967892309164 33.259327218136264 7.920351522336001 0 0 0
182 1 1.6051639084746472 36.88800882809242 7.738633916739662 0 0 0
438 1 8.212692909840715 36.50802034609463 7.888660680604657 0 0 0
440 1 9.639111818753223 34.880413876682304 6.063777210086902 0 0 0
694 1 14.260441683802512 36.60200415301049 7.701336977110497 0 0 0
696 1 15.930894044729092 34.826253525070584 6.052511923275248 0 0 0
213 1 4.936129111675965 39.77182407387278 7.670005003356211 0 0 0
209 1 3.381041766860344 38.332467540989185 9.336971221796766 0 0 0
469 1 11.629491166645781 39.40410467486398 7.699010751916765 0 0 0
727 1 12.901710376446518 37.97186664542108 5.766681485291889 0 0 0
725 1 17.640313959869165 39.92162809320733 7.932965534676608 0 0 0
1639 1 18.8927965856324 18.791455749312735 18.60267237444647 0 0 0
214 1 1.2397675431973103 42.95831292219901 7.960694296103979 0 0 0
470 1 8.088057652763979 42.70342624109995 7.428000310026605 0 0 0
472 1 9.694546704420091 40.940440916008825 6.083250080718537 0 0 0
726 1 14.326628435293374 42.885136744176705 7.712617836383851 0 0 0
753 1 16.20132462126016 44.265062352518626 9.684158789176411 0 0 0
245 1 4.508748469878942 46.218737443853875 7.869053197038517 0 0 0
498 1 6.172174961123385 47.967514335227854 9.36154153607027 0 0 0
504 1 9.340563028016815 47.86895305767895 6.480314797072835 0 0 0
501 1 11.086410580206 46.280862340096434 7.65887382027746 0 0 0
757 1 17.579724373986423 45.92843832039866 8.012487616161183 0 0 0
643 1 14.24654391749426 27.282468586285106 23.745950680864784 0 0 0
227 1 1.7000231923392892 46.48590045246294 23.346552107685646 0 0 0
246 1 1.7478828630345649 49.590992525599695 7.94587519849054 0 0 0
279 1 6.176677189905036 0.4759493105786853 6.162353529063796 0 0 0
502 1 7.811849083451779 49.689726799377254 7.742646804882197 0 0 0
758 1 14.305550420182037 49.37152973421162 7.635139617955802 0 0 0
754 1 12.80530272639187 47.808761379696804 9.369827137149949 0 0 0
19 1 1.8451629989035203 1.4793063567038671 11.234424849943977 0 0 0
274 1 6.496276338933179 3.2307538930081545 9.305670049357365 0 0 0
275 1 7.875484962310476 1.4671504090237313 10.947057589316842 0 0 0
273 1 9.355076042875911 50.8512763865625 9.644967983519255 0 -1 0
531 1 14.201977002231029 1.3509827498426623 10.793111556208833 0 0 0
642 1 12.61070018865638 28.81913612372512 22.36841176574284 0 0 0
20 1 4.889873434271092 4.749859330500528 11.113493861751893 0 0 0
305 1 9.604826893419212 6.493530581363331 9.250506730814674 0 0 0
276 1 10.912488992777362 4.535984363490831 11.001963420136635 0 0 0
530 1 12.663314060726721 2.995623874716082 9.336962643358309 0 0 0
532 1 17.32463857028662 4.31841415165825 11.413673677028292 0 0 0
528 1 15.419566753611365 2.90547176418328 12.877826490322349 0 0 0
387 1 7.760371781260493 26.675585568374917 23.665779510367937 0 0 0
51 1 1.3736910886722924 8.021479976684752 11.303198838738036 0 0 0
306 1 6.631818559794027 9.514474274661337 9.699669131859647 0 0 0
49 1 2.9060879813217775 6.180380358846627 9.71980155008506 0 0 0
307 1 8.231262198403996 7.823109506320464 11.090694830535904 0 0 0
562 1 13.189198978959736 9.3559832933466 9.427134781319065 0 0 0
563 1 14.72030986327511 7.911647060993705 11.384412275873828 0 0 0
52 1 4.5238331057909 10.91116374021598 11.067022138453023 0 0 0
308 1 11.460589394604012 11.27792885532033 11.10709309120054 0 0 0
591 1 12.684967613717008 12.986767854320563 12.799046237718075 0 0 0
564 1 17.5704049769201 11.427670713141858 10.902481429174072 0 0 0
560 1 16.02290768152075 9.809114346798054 12.764432385814553 0 0 0
708 1 17.57569696189358 42.69185317296093 23.852486471892043 0 0 0
83 1 1.479595308844735 14.198489741115953 11.121806663154839 0 0 0
339 1 7.717982964821517 14.096199297521691 10.974642892931993 0 0 0
594 1 12.593878232209436 15.87178869560489 9.334313944783856 0 0 0
595 1 14.301550499852857 14.313805828523723 10.804615244705296 0 0 0
113 1 2.994688784196906 19.12634892252438 9.56891600102143 0 0 0
84 1 4.650666673671274 17.55469915438209 11.218513735856366 0 0 0
367 1 6.33156393198748 19.257533578864958 12.397820860028595 0 0 0
336 1 9.307800656551796 15.88901733601764 12.457287869306475 0 0 0
340 1 10.755892536902149 17.413148715645118 10.861259335603023 0 0 0
369 1 9.293649015945384 19.564217654126754 9.56896937758464 0 0 0
596 1 17.29760748301075 17.358407916039187 10.859377269111166 0 0 0
1578 1 19.007091775860907 9.37468182524675 15.772590693650471 0 0 0
115 1 1.2925133928329136 20.482862247718163 11.136331053014452 0 0 0
112 1 3.173108377176292 22.1446481728918 12.54579810431861 0 0 0
371 1 8.046502952333 21.25993165980908 11.125076307604003 0 0 0
623 1 12.621732545102727 18.83936994212047 12.690302789653824 0 0 0
627 1 13.986509413151678 20.905116110705418 11.03783160861327 0 0 0
116 1 4.63094689622203 23.922802432354015 11.162950309090542 0 0 0
626 1 12.402829724455191 22.744536643382972 9.545552178937749 0 0 0
372 1 10.78464931746265 23.91741200816147 11.513913497735862 0 0 0
657 1 15.45629122203188 25.347063471496487 9.541697181356897 0 0 0
628 1 17.283350382448734 23.850097294016088 11.081887600917614 0 0 0
1786 1 18.98998908865176 47.676212428943366 2.9334340091236024 0 0 0
147 1 1.7191900896259966 27.11701494981381 11.244114996674405 0 0 0
399 1 6.163273504178276 25.521127703455292 12.673379733958791 0 0 0
403 1 7.259818554176477 27.082633552390007 11.127702881027462 0 0 0
655 1 12.687807644566435 25.34462320858723 12.901321900841516 0 0 0
659 1 13.994254555462362 26.82895515087635 11.377025403346352 0 0 0
144 1 3.029531958656165 28.984388706910615 12.533635655621893 0 0 0
148 1 4.669199205447698 30.165474295919033 10.791589381631779 0 0 0
402 1 6.333442882290688 28.40172085833662 9.202162728747876 0 0 0
400 1 9.346342710482073 28.621331269471188 12.6396275479656 0 0 0
404 1 11.199946637162942 29.935231803903807 10.998699375171025 0 0 0
656 1 15.83493503973264 28.54630923159815 12.437877607815853 0 0 0
660 1 17.509415993857342 30.307434985605312 10.970332101813835 0 0 0
1591 1 18.69721571121333 6.282302794372979 6.842553766570774 0 0 0
179 1 1.700909096849841 33.32823195903721 10.99545766911777 0 0 0
177 1 3.048259207034907 31.828886914382046 9.404744302397182 0 0 0
435 1 7.830118917460003 33.38140461437265 11.170226504983361 0 0 0
433 1 9.423242923336568 31.801109811107057 9.332574369795063 0 0 0
691 1 14.293146394663212 33.468526903833975 11.177523985517828 0 0 0
688 1 15.712245284979751 35.113213664495845 12.481081846414204 0 0 0
452 1 11.116767766222774 42.72861682151377 23.420099223376802 0 0 0
180 1 4.954030379447217 36.585598101848746 10.716446265720332 0 0 0
434 1 6.31534455143973 34.906961993982016 9.367816839738426 0 0 0
432 1 9.697491734385952 35.098474430175244 12.866501044815397 0 0 0
436 1 11.095318810103677 36.83233642121279 11.35756784261217 0 0 0
690 1 12.562100627711331 35.21555542650826 9.39551307482882 0 0 0
692 1 17.38055635373348 36.43523359025791 10.639765189511017 0 0 0
211 1 1.5615631875062956 39.90755374964353 11.17398470018428 0 0 0
467 1 8.013294657737475 39.96142343045364 10.932874178536535 0 0 0
465 1 9.611837405259982 38.27667202025134 9.39858922743644 0 0 0
723 1 14.4752669431587 40.03934562622989 10.773187962717087 0 0 0
719 1 12.974634096553455 38.682057726696634 12.863270431744054 0 0 0
721 1 16.075759012239967 38.27780030214693 9.085846117446147 0 0 0
241 1 3.0462468247556704 44.64622917382255 9.41929753084094 0 0 0
212 1 4.762036856302334 42.997970318866216 11.14540893537187 0 0 0
466 1 6.603069286169633 41.247730491656114 9.306668801757866 0 0 0
468 1 11.14729729140686 43.26912214951065 10.953933638396984 0 0 0
722 1 12.664961349752819 41.517408341935486 9.462969831831817 0 0 0
724 1 17.60439231535627 42.799189347432446 11.211941373734089 0 0 0
1279 1 6.222792774422723 44.37208628119389 24.99929446211702 0 0 0
243 1 1.1920085396035294 46.21851092510637 10.899851238463901 0 0 0
499 1 7.608900132467742 46.31196876614162 10.979273496622106 0 0 0
497 1 9.18312789105176 44.532622178978706 9.255602194643442 0 0 0
755 1 14.834057251753773 46.19917654901517 10.891289251034301 0 0 0
244 1 4.603253363501457 49.44399967858074 11.095976145869768 0 0 0
240 1 3.014601881717602 47.72927826727374 12.684905520056397 0 0 0
500 1 11.205286739778414 49.39048572915015 11.04843339844787 0 0 0
756 1 17.55681425413392 49.232407598982 10.96145355470499 0 0 0
16 1 3.0757628706677744 3.101704775853229 12.694067764021803 0 0 0
13 1 4.647820702791595 1.5478834784328759 14.530117124181846 0 0 0
271 1 6.170433201637354 0.042418478135338944 12.82560916530992 0 0 0
269 1 10.84196063174823 1.197156830752788 14.128403932495962 0 0 0
272 1 9.39178769605351 2.9766017623172547 12.535397059464653 0 0 0
527 1 12.712756289155257 50.95064676154432 12.6332223531085 0 -1 0
522 1 12.79949925621197 2.5603557348647485 15.796043117762723 0 0 0
525 1 17.158797803464715 1.2335889061808432 14.360566706223254 0 0 0
14 1 1.417526839607746 4.48889238076591 14.445384492600502 0 0 0
303 1 6.417910094288145 6.408774288433123 12.738534913625047 0 0 0
270 1 7.9481574462589855 4.612988520642932 14.235297960215972 0 0 0
526 1 14.093380172387668 4.749047737753553 14.41504659750763 0 0 0
420 1 10.890453680758906 36.348059977456714 23.974131047371916 0 0 0
48 1 2.835216074968086 9.479788090075267 12.921935402974595 0 0 0
45 1 4.702441651648875 7.864122325657137 14.2389879062282 0 0 0
304 1 9.667695209276877 9.685385027295876 12.800804296368053 0 0 0
301 1 11.243398614789495 7.851895354075397 14.293865378581902 0 0 0
559 1 12.648666696240731 6.270736355114724 12.395259275110567 0 0 0
557 1 17.26954168666316 7.773402789556062 14.05032948666616 0 0 0
1472 1 15.933922826676675 35.16860324447936 25.012120340329624 0 0 0
46 1 1.3339131020847146 11.234111766937998 14.345575085043063 0 0 0
335 1 6.116374141357769 12.603190572568638 12.577407884592546 0 0 0
302 1 7.831713150881526 11.441602878388688 14.180044250911271 0 0 0
558 1 14.114291938399473 11.07261315650947 14.458554820607766 0 0 0
80 1 3.097972529071225 15.851350813949733 12.716218252448067 0 0 0
77 1 4.505007261852514 14.2855024879714 14.185823265672264 0 0 0
329 1 9.280980018664776 12.727575784674412 15.94828544758457 0 0 0
333 1 10.80374525680498 14.418608213882013 14.260951382252866 0 0 0
586 1 12.452133775680608 15.852848024048702 15.91717404731667 0 0 0
607 1 12.000560778920882 13.042717759410277 0.11743845574509545 0 0 0
592 1 15.85011790574107 15.689758963546401 12.482651764939492 0 0 0
589 1 17.564742699930182 14.119024695734781 14.0325343956057 0 0 0
78 1 1.5745423531533616 17.19134213499552 14.370100992611805 0 0 0
334 1 7.624785761687045 17.453699531999035 14.180271256102042 0 0 0
590 1 14.301194411361417 17.282154449428052 14.08169517802358 0 0 0
109 1 4.927604564892089 20.58541683843124 14.185506012273661 0 0 0
361 1 9.288511547242289 18.975561094281158 16.062845148783893 0 0 0
362 1 6.166578838246811 22.37839843299804 16.169089893229923 0 0 0
365 1 10.778206933396321 20.61746186795241 14.69439834485758 0 0 0
624 1 15.840063566873308 22.357165226643374 12.581291024756286 0 0 0
621 1 17.284397849054688 20.892303935582724 14.218032758742831 0 0 0
1575 1 18.91714427925803 6.040781772760201 18.79256574819372 0 0 0
110 1 1.6284870021095639 23.838570356922737 14.327466150001266 0 0 0
137 1 2.8497003467633113 25.647761463259016 15.859829023930823 0 0 0
368 1 9.346370017000101 22.53874300849121 13.212162469840791 0 0 0
366 1 7.539349453366452 23.940744444812907 14.36307070116426 0 0 0
618 1 12.576773868436815 22.11581352425839 15.782002868050007 0 0 0
622 1 14.27142049133746 23.72087981174195 14.319341655502495 0 0 0
141 1 4.489929532903066 27.19044139858326 14.1022984013735 0 0 0
394 1 6.348775337332027 28.534054834583173 15.818997615253023 0 0 0
393 1 9.237431583972395 25.366941481921014 15.767769548262995 0 0 0
397 1 10.830192480299528 27.096929524124963 14.359057453627909 0 0 0
650 1 12.725234006491426 28.339073305600884 15.87039046532642 0 0 0