
# Import phase coexistance setup
#
read_data           data.coexist_${TEMP}K_${PRES}atm_ML
read_data           data.coexist_296K_${PRES}atm_ML
read_data           data.coexist_296K_-500atm_ML
Reading data file ...
  orthogonal box = (-0.21584908 -0.15405798 -0.15405798) to (104.83157 51.157602 51.157602)
  3 by 1 by 2 MPI processor grid
  reading atoms ...
  8502 atoms
  reading velocities ...
  8502 velocities
  read_data CPU = 0.029 seconds

# Define potential
#
pair_style 	    sw
pair_coeff	    * * /data/emrosky-sim/Freezing_Simulations/Melting/MLmW_fancy/ML_mW.sw mW
Reading sw potential file /data/emrosky-sim/Freezing_Simulations/Melting/MLmW_fancy/ML_mW.sw with DATE: 2019-02-27

# Reset velocity/set timestep
#
velocity	    all create ${TEMP} 120598 rot yes dist gaussian
velocity	    all create 296 120598 rot yes dist gaussian
timestep	    10.0

# Define output
#
compute	            1 all msd
compute             2 all orientorder/atom nnn NULL degrees 2 4 12
thermo              1000
thermo_style        custom step temp press vol etotal ke pe c_1[4]

# Neighbor lists
#
neigh_modify        delay 0 every 1 check yes

# Set fixes
#
fix                 1 all momentum 10 linear 1 1 1 rescale
fix                 2 all nph iso ${PRES} ${PRES} ${PCOUPL}
fix                 2 all nph iso -500 ${PRES} ${PCOUPL}
fix                 2 all nph iso -500 -500 ${PCOUPL}
fix                 2 all nph iso -500 -500 10000.0
fix                 3 all temp/csvr ${TEMP} ${TEMP} ${TCOUPL} 837492
fix                 3 all temp/csvr 296 ${TEMP} ${TCOUPL} 837492
fix                 3 all temp/csvr 296 296 ${TCOUPL} 837492
fix                 3 all temp/csvr 296 296 5000.0 837492

# Run very short equilibration
#
dump		    1 all atom 50 eq.${NAME}.dump
dump		    1 all atom 50 eq.melt_296K_-500atm_ML.dump
run	            500
Neighbor list info ...
  update every 1 steps, delay 0 steps, check yes
  max neighbors/atom: 2000, page size: 100000
  master list distance cutoff = 6.0032907
  ghost atom cutoff = 6.0032907
  binsize = 3.0016454, bins = 35 18 18
  2 neighbor lists, perpetual/occasional/extra = 1 1 0
  (1) pair sw, perpetual
      attributes: full, newton on
      pair build: full/bin/atomonly
      stencil: full/bin/3d
      bin: standard
  (2) compute orientorder/atom, occasional, copy from (1)
      attributes: full, newton on
      pair build: copy
      stencil: none
      bin: none
Per MPI rank memory allocation (min/avg/max) = 4.599 | 4.600 | 4.601 Mbytes
Step Temp Press Volume TotEng KinEng PotEng c_1[4] 
       0          296   -343.89994    276577.93    -76066.96    7500.6004    -83567.56            0 
     500     343.1545   -565.18191    271500.03   -77631.174    8695.4891   -86326.663    16.076461 
Loop time of 1.21003 on 6 procs for 500 steps with 8502 atoms

Performance: 357.016 ns/day, 0.067 hours/ns, 413.213 timesteps/s
99.7% CPU use with 6 MPI tasks x no OpenMP threads

MPI task timing breakdown:
Section |  min time  |  avg time  |  max time  |%varavg| %total
---------------------------------------------------------------
Pair    | 0.40607    | 0.65704    | 0.9517     |  27.3 | 54.30
Neigh   | 0.13403    | 0.14984    | 0.16207    |   2.7 | 12.38
Comm    | 0.05646    | 0.36343    | 0.63011    |  38.4 | 30.04
Output  | 0.0085545  | 0.0091616  | 0.0097295  |   0.4 |  0.76
Modify  | 0.024236   | 0.025002   | 0.025783   |   0.4 |  2.07
Other   |            | 0.005555   |            |       |  0.46

Nlocal:        1417.00 ave        1434 max        1393 min
Histogram: 1 1 0 0 0 0 1 1 0 2
Nghost:        2025.67 ave        2039 max        2013 min
Histogram: 1 1 1 0 1 0 0 0 0 2
Neighs:        0.00000 ave           0 max           0 min
Histogram: 6 0 0 0 0 0 0 0 0 0
FullNghs:      39742.7 ave       40528 max       39174 min
Histogram: 1 1 0 1 1 1 0 0 0 1

Total # of neighbors = 238456
Ave neighs/atom = 28.047048
Neighbor list builds = 84
Dangerous builds = 0

reset_timestep      0
undump              1
unfix               2
unfix               3


################################################
#######         Run Simulation         #########
################################################

log                 log.run_${NAME}
log                 log.run_melt_296K_-500atm_ML
