
# Define the lattice
#
variable	    lattice_constant equal 6.36339
lattice		    diamond ${lattice_constant} orient x 0 0 1 orient y 0 1 0 orient z -1 0 0
lattice		    diamond 6.36339 orient x 0 0 1 orient y 0 1 0 orient z -1 0 0
Lattice spacing in x,y,z = 6.3633900 6.3633900 6.3633900

# Define region
# multiples of lattice spacing
#
region 		    simbox block 0 9 0 8 0 8

# Create Atoms
#
create_box          1 simbox
Created orthogonal box = (0.0000000 0.0000000 0.0000000) to (57.270510 50.907120 50.907120)
  3 by 1 by 2 MPI processor grid
create_atoms        1 box
Created 4608 atoms
  create_atoms CPU = 0.001 seconds
mass                1 18.015

# Define potential
#
pair_style          sw
pair_coeff          * * /data/emrosky-sim/Freezing_Simulations/Melting/MLmW_fancy/ML_mW.sw mW
Reading sw potential file /data/emrosky-sim/Freezing_Simulations/Melting/MLmW_fancy/ML_mW.sw with DATE: 2019-02-27

# Add velocity/set timestep
#
velocity            all create ${TEMP} 120598 rot yes dist gaussian
velocity            all create 296 120598 rot yes dist gaussian
timestep            5.0

# Define output
#
compute	            1 all msd
thermo              100
thermo_style        custom step temp press vol etotal ke pe c_1[4]

# Neighbor lists
#
neigh_modify        delay 0 every 1 check yes

# Set fixes
#
fix                 1 all momentum 10 linear 1 1 1 rescale
fix                 2 all nve
fix                 3 all temp/csvr ${TEMP} ${TEMP} 500.0 928347
fix                 3 all temp/csvr 296 ${TEMP} 500.0 928347
fix                 3 all temp/csvr 296 296 500.0 928347
fix                 4 all press/berendsen iso ${PRES} ${PRES} 1000.0 modulus 20000
fix                 4 all press/berendsen iso -500 ${PRES} 1000.0 modulus 20000
fix                 4 all press/berendsen iso -500 -500 1000.0 modulus 20000

# Run 0.5 ns equilibration
#
dump		    1 all custom 1000 eq.${NAME}.dump id type x y z vx vy vz
dump		    1 all custom 1000 eq.ice_296K_-500atm_ML.dump id type x y z vx vy vz
run                 100000
Neighbor list info ...
  update every 1 steps, delay 0 steps, check yes
  max neighbors/atom: 2000, page size: 100000
  master list distance cutoff = 6.0032907
  ghost atom cutoff = 6.0032907
  binsize = 3.0016454, bins = 20 17 17
  1 neighbor lists, perpetual/occasional/extra = 1 0 0
  (1) pair sw, perpetual
      attributes: full, newton on
      pair build: full/bin/atomonly
      stencil: full/bin/3d
      bin: standard
Per MPI rank memory allocation (min/avg/max) = 4.779 | 4.779 | 4.779 Mbytes
Step Temp Press Volume TotEng KinEng PotEng c_1[4] 
       0          296    -610.3366    148418.52   -51832.337    4064.8472   -55897.184            0 
     100    201.40887   -354.66463    148331.72   -50176.242    2765.8658   -52942.108   0.10290414 
     200    230.17581   -412.19948    148638.21   -49190.254    3160.9104   -52351.165   0.11801508 
     300    247.53216   -470.93501    148820.31   -48563.173    3399.2582   -51962.432   0.14870914 
     400    269.27372   -466.07384    148953.82   -48149.287    3697.8261   -51847.113   0.14978409 
     500    286.87114   -439.28642    149074.66    -47852.49    3939.4844   -51791.974   0.14092574 
     600    292.10092   -464.83223    149167.76   -47574.592    4011.3027   -51585.895   0.15864459 
     700     297.0949   -492.65989    149220.27   -47521.022     4079.883   -51600.906   0.14761178 
     800    295.68929   -500.25044    149221.05   -47420.804    4060.5803   -51481.384   0.15912038 
     900    292.05136   -503.05006    149229.02   -47396.269    4010.6222   -51406.891   0.17205995 
    1000    292.49784   -509.28623    149200.33   -47448.191    4016.7534   -51464.944   0.15266475 
    1100    297.70115   -508.97226    149220.82   -47393.309    4088.2084   -51481.518   0.15888941 
    1200    301.67998   -452.98427    149225.47   -47387.223    4142.8481   -51530.071   0.15717238 
    1300    297.03217   -561.58455    149270.98   -47315.417    4079.0216   -51394.438   0.16729564 
    1400    293.88702   -526.66528    149238.98   -47409.857    4035.8306   -51445.687   0.16402094 
    1500    291.49485   -521.94315    149233.44   -47443.306    4002.9799   -51446.286    0.1543668 
    1600    299.19138   -490.81944    149206.46   -47372.352    4108.6731   -51481.025   0.16639982 
    1700    296.17002   -532.95966    149236.79   -47399.714    4067.1821   -51466.896   0.15746723 
    1800    294.64155    -539.0318    149219.63   -47393.529    4046.1921   -51439.721   0.17351846 
    1900    300.39326   -513.79849    149234.39    -47305.26     4125.178   -51430.438   0.16335618 
    2000    303.86585   -477.31577    149265.36    -47250.94    4172.8657   -51423.805   0.15452171 
    2100    293.13206   -480.37524    149246.12   -47424.856    4025.4629   -51450.319   0.16417745 
    2200    297.24876   -497.04918    149240.37   -47348.839    4081.9959   -51430.834   0.15377638 
    2300    300.88917   -503.05967    149233.21   -47281.435    4131.9882   -51413.423   0.17566957 
    2400     297.3383   -493.54803    149224.43   -47305.806    4083.2255   -51389.032   0.16764988 
    2500    297.41247   -476.79102    149246.63   -47359.576    4084.2441    -51443.82   0.14987502 
    2600     294.1445   -538.25384    149222.44   -47391.195    4039.3664   -51430.562   0.17372379 
    2700    302.61882    -455.5369    149231.48   -47359.758    4155.7408   -51515.499   0.14735867 
    2800    301.31597   -479.84853    149203.58   -47258.661    4137.8492    -51396.51   0.17611347 
    2900    300.15941   -483.07254    149231.17   -47281.809    4121.9667   -51403.775   0.16595938 
    3000     296.3473   -523.08328    149212.42   -47345.914    4069.6165   -51415.531    0.1692636 
    3100    298.29388   -467.78596    149216.55   -47310.532    4096.3481    -51406.88   0.15916452 
    3200    293.21442   -515.50107    149215.05   -47424.064     4026.594   -51450.658   0.15143502 
    3300     296.0951   -485.80072    149174.13   -47486.678    4066.1532   -51552.831   0.15710533 
    3400    294.77959   -540.39981    149178.58   -47420.141    4048.0878   -51468.229   0.16032076 
    3500    293.48106   -504.18643    149185.81   -47384.026    4030.2556   -51414.282   0.17192798 
    3600     293.7154   -494.74541    149210.48   -47392.701    4033.4737   -51426.174   0.16497919 
    3700    296.15138   -504.58189    149223.09   -47354.383    4066.9261   -51421.309     0.161561 
    3800    297.80517   -504.56037    149271.78   -47346.405    4089.6368   -51436.042   0.16355954 
    3900     298.7285   -477.66537    149253.79   -47349.916    4102.3165   -51452.233   0.15989903 
    4000    291.93986   -497.94712    149229.49   -47391.591     4009.091   -51400.682   0.15903316 
    4100    285.09758   -501.45064    149195.01   -47407.485    3915.1288   -51322.614   0.17001019 
    4200    295.78722   -498.33467    149233.25   -47368.917    4061.9252   -51430.842   0.15123526 
    4300     285.8268   -562.22225     149205.9   -47501.878    3925.1427   -51427.021   0.17172753 
    4400    296.34766   -480.86774    149223.32   -47386.978    4069.6215   -51456.599   0.14933555 
    4500    294.10805   -486.07892    149235.55   -47454.793    4038.8658   -51493.659   0.16397695 
    4600    295.45152   -476.81396    149218.79   -47484.709    4057.3152   -51542.024   0.15542354 
    4700    299.44994    -457.7804    149243.29    -47385.47    4112.2238   -51497.694   0.15203114 
    4800    297.37535   -466.91123    149222.85   -47276.312    4083.7343   -51360.046   0.17129215 
    4900    296.94447   -527.80059    149263.14   -47242.133    4077.8172    -51319.95    0.1640894 
    5000    297.82596     -532.154    149272.01   -47382.114    4089.9223   -51472.036   0.17017568 
    5100    298.63789   -524.69383    149280.46    -47311.74    4101.0723   -51412.812   0.15934827 
    5200    296.57751    -521.9018    149247.57   -47381.932    4072.7778    -51454.71   0.16693078 
    5300    291.57574   -520.80112    149205.92   -47489.327    4004.0906   -51493.418   0.15636203 
    5400    295.38639   -456.90015    149193.68   -47446.933    4056.4207   -51503.354   0.15315952 
    5500    295.01432   -494.21772    149193.91   -47413.662    4051.3113   -51464.974   0.16884457 
    5600    294.17271   -488.23647    149198.96   -47454.546    4039.7538     -51494.3   0.15673145 
    5700     295.7136   -486.72244    149209.86    -47444.37    4060.9141   -51505.284    0.1568739 
    5800    299.50248   -495.96542    149211.77   -47383.638    4112.9453   -51496.583   0.15908315 
    5900    294.23932   -500.90796    149184.62   -47460.365    4040.6685   -51501.033   0.15992146 
    6000    292.65056   -475.86591    149194.29   -47434.186    4018.8507   -51453.037   0.16637202 
    6100    286.60996   -483.13777    149198.83   -47511.974    3935.8977   -51447.871   0.15667269 
    6200    290.28651   -553.61172    149198.28   -47495.779    3986.3861   -51482.165   0.16951773 
    6300    297.79569   -549.88874    149240.15   -47374.594    4089.5067   -51464.101    0.1631589 
    6400    294.48083   -510.56638    149246.49   -47427.654    4043.9851   -51471.639    0.1539781 
    6500    292.82832   -484.13816    149201.47   -47440.119    4021.2918    -51461.41   0.16269559 
    6600    292.29905   -485.24536    149186.16   -47444.812    4014.0236   -51458.836   0.15685657 
    6700    294.26614   -505.83271    149221.86   -47511.776    4041.0368   -51552.813    0.1584756 
    6800    298.63954   -526.79629    149198.24   -47463.502    4101.0949   -51564.597    0.1592288 
    6900    295.50777   -511.09679    149214.29   -47377.932    4058.0876    -51436.02   0.16010414 
    7000    295.96123   -494.97167    149229.54   -47378.935    4064.3148    -51443.25   0.16533038 
    7100     297.4939   -468.81617    149222.72   -47382.921    4085.3624   -51468.283   0.14582832 
    7200    295.08156    -479.8107    149202.58   -47497.336    4052.2347   -51549.571   0.16494889 
    7300    291.06553   -480.08085    149197.76   -47552.039    3997.0841   -51549.123   0.15232377 
    7400    295.63539    -487.2505    149216.75   -47440.729    4059.8402    -51500.57   0.15423924 
    7500    298.10144   -489.20606    149237.49   -47373.013    4093.7054   -51466.718   0.16679388 
    7600    298.59154   -528.52754     149253.2   -47348.432    4100.4358   -51448.868   0.15555621 
    7700    294.15351   -544.22752    149233.68    -47443.45    4039.4901    -51482.94   0.17106521 
    7800    293.03386   -511.62626    149217.36   -47505.104    4024.1145   -51529.219   0.14739069 
    7900    292.16187   -468.20025     149241.8   -47446.038    4012.1397   -51458.178   0.15998676 
    8000    302.98554   -462.49793    149269.02   -47342.672    4160.7768   -51503.448   0.15331151 
    8100    297.53213   -491.56336    149249.84   -47301.692    4085.8873   -51387.579   0.15921258 
    8200    296.24158   -510.00205    149250.33   -47329.775    4068.1647    -51397.94   0.16695681 
    8300    295.82101   -533.73571    149251.12   -47293.442    4062.3892   -51355.831   0.16876124 
    8400    300.26004   -496.43285    149281.02   -47266.499    4123.3485   -51389.847    0.1634766 
    8500    296.34747   -511.57765    149254.32    -47352.71    4069.6189   -51422.328   0.16064483 
    8600    297.33773   -476.18058    149227.71   -47359.098    4083.2177   -51442.316   0.15336562 
    8700    297.50639   -513.03395    149242.41   -47334.059    4085.5338   -51419.592   0.16684595 
    8800    299.62686   -465.16871    149216.83   -47371.401    4114.6533   -51486.054    0.1566658 
    8900    294.50967   -490.84757    149204.98   -47443.107    4044.3811   -51487.489   0.15827162 
    9000    296.21628     -481.107    149208.95   -47363.166    4067.8173   -51430.983   0.16182518 
    9100    297.64339   -531.08751    149202.36   -47422.271    4087.4152   -51509.686   0.15151953 
    9200    298.19927   -508.41312    149230.15   -47313.009    4095.0488   -51408.058   0.17497922 
    9300    295.54938   -500.37564     149214.2   -47464.881    4058.6591    -51523.54   0.14723405 
    9400    291.24931   -493.55668    149199.76   -47427.428    3999.6079   -51427.036   0.16208393 
    9500    293.77333   -463.41254    149206.38   -47469.906    4034.2692   -51504.175   0.15237549 
    9600      295.175   -541.68552    149208.51    -47468.02    4053.5179   -51521.538   0.15724661 
    9700    293.99018   -537.34732    149203.42   -47335.925    4037.2471   -51373.172   0.17173783 
    9800    299.32636    -482.3666    149241.32   -47286.925    4110.5267   -51397.452   0.16103924 
    9900     301.0746   -520.29167    149267.61   -47326.497    4134.5346   -51461.031   0.16152418 
   10000    301.74174   -503.06186     149231.8   -47378.597    4143.6961   -51522.294   0.15701047 
   10100    299.69024   -512.44583    149229.65   -47326.801    4115.5238   -51442.324   0.15904201 
   10200    303.40736   -521.29837    149272.89   -47304.544    4166.5694   -51471.113    0.1630242 
   10300    303.05611   -495.23027    149261.04    -47296.01    4161.7459   -51457.755   0.15878358 
   10400    298.98573   -505.52221     149293.2   -47304.757     4105.849   -51410.606    0.1598947 
   10500    295.39453   -503.40732    149263.93   -47349.882    4056.5325   -51406.414   0.15928141 
   10600    297.92497   -490.80961    149269.87   -47376.373     4091.282   -51467.655   0.16009023 
   10700    296.32159   -479.59315    149284.61   -47402.607    4069.2635   -51471.871   0.15940181 
   10800    290.02388   -484.49043    149253.24   -47535.092    3982.7796   -51517.872   0.15515271 
   10900    290.64128   -536.06021     149255.6   -47527.568     3991.258   -51518.826   0.16129762 
   11000    288.50833   -489.62255    149246.12   -47532.591    3961.9672   -51494.558   0.14923802 
   11100    293.64705   -495.40072    149283.46   -47437.793    4032.5351   -51470.329   0.15187871 
   11200    293.69758   -534.17136    149267.23   -47552.514     4033.229   -51585.743   0.15529515 
   11300    296.89956   -477.66363       149256   -47468.838    4077.2004   -51546.039   0.14929156 
   11400    292.73534   -531.85749    149264.39   -47447.808    4020.0149   -51467.823   0.16262546 
   11500    300.64592   -497.03846    149283.71    -47341.01    4128.6478   -51469.657   0.16070525 
   11600     299.1435   -502.71732     149321.6   -47341.955    4108.0156    -51449.97   0.15476067 
   11700    303.08291   -484.08147    149345.53   -47207.611    4162.1139   -51369.724   0.15953175 
   11800    305.32268   -500.68398    149326.48   -47281.453    4192.8718   -51474.325   0.14996475 
   11900    302.64056   -486.05512    149306.59   -47333.715    4156.0393   -51489.754     0.162462 
   12000    300.86422     -535.144    149300.41   -47289.963    4131.6456   -51421.609   0.15690761 
   12100    298.59863   -489.96603    149275.43   -47350.055    4100.5332   -51450.588   0.16130855 
   12200    297.24384    -520.2548    149254.01   -47346.988    4081.9284   -51428.916   0.15608358 
   12300    298.30848   -475.74172    149252.38   -47404.715    4096.5486   -51501.264   0.15856982 
   12400    294.25819    -498.4529    149263.15   -47398.753    4040.9276    -51439.68   0.15346143 
   12500    295.32607   -479.58329    149277.31   -47327.543    4055.5924   -51383.135   0.15468679 
   12600    298.36613    -476.2865    149293.26   -47288.011    4097.3403   -51385.351   0.16299342 
   12700    293.16206   -495.96957    149267.64   -47366.777    4025.8749   -51392.652   0.15213099 
   12800     294.3289   -492.77185    149257.67    -47346.53    4041.8987   -51388.429   0.16273106 
   12900    292.79773   -525.83964    149269.47   -47420.137    4020.8718   -51441.009   0.15719824 
   13000    292.78001   -515.34701    149242.56   -47383.757    4020.6284   -51404.385   0.16024978 
   13100    291.54425   -546.51095    149245.61   -47463.676    4003.6582   -51467.334   0.15567103 
   13200    293.07277   -482.16429    149224.52   -47489.246    4024.6488   -51513.894   0.15187715 
   13300    291.50497   -515.09331    149214.65   -47572.746    4003.1188   -51575.865    0.1520087 
   13400    294.10838   -468.42435    149219.87   -47562.479    4038.8703    -51601.35   0.15237152 
   13500    298.61116   -483.85648    149224.39   -47467.357    4100.7052   -51568.062   0.14825563 
   13600    299.32311    -525.4176    149250.29   -47419.664    4110.4822   -51530.147   0.15892005 
   13700    294.90455   -498.90423    149244.74   -47444.181    4049.8039   -51493.985   0.15247611 
   13800    298.12805   -496.20892    149273.02   -47400.137    4094.0709   -51494.208   0.15914598 
   13900    296.86256     -464.936    149267.22   -47388.441    4076.6925   -51465.134   0.15507499 
   14000    296.58241   -477.29871    149277.03   -47272.497    4072.8452   -51345.342   0.16161509 
   14100    297.80703   -487.32814    149289.63   -47368.961    4089.6624   -51458.623   0.15885973 
   14200    297.18084   -456.21496     149283.5    -47374.36    4081.0632   -51455.423     0.146707 
   14300    297.71787   -520.33296    149264.07   -47408.035     4088.438   -51496.473   0.16240441 
   14400    291.65053   -484.77142    149241.42   -47463.794    4005.1177   -51468.911   0.15100499 
   14500    293.45639   -501.71005    149216.43   -47481.582    4029.9168   -51511.499   0.15842174 
   14600    291.46624   -506.13958     149217.7   -47431.421     4002.587   -51434.008   0.16061417 
   14700    297.28978   -480.42116    149250.21   -47381.271    4082.5592   -51463.831   0.14964453 
   14800    294.92514   -516.78868    149256.42   -47359.572    4050.0866   -51409.658    0.1622705 
   14900    299.14658   -499.52144    149250.72   -47371.184     4108.058   -51479.242   0.15134826 
   15000    293.99669   -503.39362    149238.15   -47435.299    4037.3366   -51472.636   0.15520216 
   15100    293.13877   -490.32098    149219.85   -47450.209    4025.5552   -51475.764    0.1551986 
   15200    294.31063   -491.47443    149260.65   -47373.992    4041.6478    -51415.64   0.15220289 
   15300    293.34999   -519.45062    149228.94   -47466.017    4028.4557   -51494.473   0.15848749 
   15400    295.94409   -494.15479     149207.4   -47454.873    4064.0794   -51518.953   0.14882173 
   15500    294.56809   -493.37617    149219.84   -47388.225    4045.1834   -51433.408   0.16432098 
   15600    297.07429   -525.25469    149268.67   -47266.022       4079.6   -51345.622   0.16173504 
   15700     298.7171   -516.04254    149293.43    -47282.29    4102.1601   -51384.451   0.15849421 
   15800    293.74346   -521.31283    149270.02   -47285.833     4033.859   -51319.692   0.16639893 
   15900    296.42767   -504.29412    149270.53   -47307.393    4070.7203   -51378.113   0.15699129 
   16000    297.68168   -505.14019    149283.99   -47359.363     4087.941   -51447.304   0.15999429 
   16100    300.95386   -477.62459    149241.89   -47389.977    4132.8766   -51522.854   0.15733782 
   16200    296.90409   -469.19746    149257.53   -47397.295    4077.2626   -51474.558   0.15048996 
   16300    293.84653   -530.27192    149259.78   -47427.079    4035.2744   -51462.353   0.16311496 
   16400    292.85772   -467.01315    149223.45   -47421.373    4021.6956   -51443.069   0.14936098 
   16500    295.99471   -506.01499    149238.25   -47345.684    4064.7746   -51410.458   0.16369481 
   16600    297.06787    -501.6778    149258.14    -47268.44    4079.5119   -51347.952   0.16398036 
   16700    303.10754   -478.90262    149261.32    -47314.09    4162.4522   -51476.542   0.15068626 
   16800    293.84388   -489.99844    149252.15   -47366.697     4035.238   -51401.935    0.1625795 
   16900    294.37575   -495.95006    149251.26   -47389.566     4042.542   -51432.108   0.15387989 
   17000    299.30863   -481.50818    149240.67   -47444.606    4110.2832   -51554.889   0.16035023 
   17100    296.78904   -513.36169    149266.98   -47390.997    4075.6827    -51466.68    0.1525741 
   17200     293.6319   -510.31088    149249.77   -47457.356     4032.327   -51489.683   0.15921548 
   17300    288.54128   -466.56719    149242.37   -47553.538    3962.4197   -51515.957   0.14846092 
   17400    285.71471   -520.35737    149241.85   -47545.606    3923.6035    -51469.21   0.15199426 
   17500    294.34643   -507.03205     149242.3   -47435.126    4042.1394   -51477.265   0.15550759 
   17600    293.73454   -500.91362    149240.37     -47445.7    4033.7366   -51479.437   0.15364859 
   17700    294.61886   -472.78881    149236.31   -47507.417    4045.8806   -51553.298   0.15169621 
   17800    290.46635   -472.54625    149242.49   -47457.963    3988.8559   -51446.819   0.15790864 
   17900    297.32505   -503.07886    149263.77   -47400.946    4083.0436    -51483.99   0.15192656 
   18000    296.01048   -500.04964    149261.44   -47308.314    4064.9911   -51373.306    0.1651375 
   18100    301.90919   -461.99631    149271.67   -47313.059    4145.9957   -51459.055   0.15241283 
   18200    298.45418   -472.70243    149253.79   -47362.381    4098.5495   -51460.931   0.15660765 
   18300     295.7323   -531.66132    149251.22   -47368.822    4061.1709   -51429.993   0.16131483 
   18400    294.43579   -499.34674    149241.27   -47464.601    4043.3666   -51507.968   0.14806598 
   18500    295.16224   -499.49796    149237.27   -47401.404    4053.3425   -51454.746   0.15983366 
   18600    295.07088   -534.86822    149243.32   -47355.213     4052.088   -51407.301    0.1595188 
   18700    294.97923   -495.49734    149238.28   -47375.408    4050.8294   -51426.237   0.16423069 
   18800    295.86529   -489.00554    149214.33   -47389.224    4062.9973   -51452.222   0.15506606 
   18900    299.60416   -473.60547    149265.13   -47353.424    4114.3417   -51467.765   0.15607977 
   19000    296.13945   -511.55208    149251.39   -47379.241    4066.7623   -51446.003   0.15507109 
   19100    301.55123   -492.11599    149265.78   -47290.507      4141.08   -51431.587   0.15519157 
   19200    301.05883   -485.71715    149228.92   -47316.166     4134.318   -51450.484   0.16332872 
   19300     302.2284   -458.64114    149271.87   -47199.023    4150.3793   -51349.402   0.15652424 
   19400    297.10671    -495.4142    149265.22   -47269.457    4080.0452   -51349.502   0.16069683 
   19500    299.03485    -477.0986    149269.31   -47271.046    4106.5236   -51377.569   0.15725594 
   19600    303.19949   -434.41925    149257.79   -47256.312    4163.7149   -51420.027   0.14981142 
   19700    295.84795   -523.33526    149259.75   -47316.668    4062.7591   -51379.427   0.16472336 
   19800    304.21105   -434.98232    149302.23   -47265.926    4177.6062   -51443.532   0.14896481 
   19900    299.97363   -513.40032    149304.24   -47353.085    4119.4155   -51472.501   0.15608061 
   20000    296.14159   -524.44953    149292.15   -47383.716    4066.7916   -51450.508   0.15720314 
   20100    292.31815   -521.10573    149274.26   -47423.942    4014.2858   -51438.228   0.15325904 
   20200    290.74939   -531.24452    149267.95   -47401.372    3992.7428   -51394.115   0.15974864 
   20300    296.64868   -482.89183    149289.14    -47361.98    4073.7552   -51435.735   0.15875985 
   20400    291.82585   -522.68483    149294.85   -47431.033    4007.5253   -51438.558    0.1550519 
   20500    291.88404   -481.60678    149276.69   -47475.016    4008.3244    -51483.34   0.15236252 
   20600    290.28077   -492.40379    149263.48   -47488.946    3986.3074   -51475.253   0.14877637 
   20700    294.34256   -503.49387    149290.57    -47434.08    4042.0863   -51476.167   0.15474825 
   20800    296.97183    -468.5187    149292.27   -47282.792     4078.193   -51360.986   0.15327064 
   20900    293.20072   -455.91095    149317.05   -47400.134    4026.4058    -51426.54   0.15240211 
   21000    296.40269   -442.62513    149321.57   -47412.906    4070.3772   -51483.283   0.14735335 
   21100    296.89634    -526.6896    149336.56   -47288.512    4077.1563   -51365.668   0.15224873 
   21200    300.43893   -518.18771    149344.63   -47314.637    4125.8052   -51440.443   0.15827639 
   21300    297.37972   -539.67017    149320.33   -47300.118    4083.7943   -51383.912   0.14871642 
   21400    294.50719   -468.02552    149307.72   -47348.038     4044.347   -51392.385   0.15805502 
   21500    299.95194   -482.38732    149290.33   -47244.905    4119.1176   -51364.022   0.14921703 
   21600     298.3661   -503.72554    149285.47   -47248.238    4097.3399   -51345.578   0.15779046 
   21700    293.46491   -532.20795    149283.69   -47388.703    4030.0339   -51418.737   0.15529781 
   21800    297.35462   -505.39458    149264.91   -47423.902    4083.4497   -51507.351   0.15179655 
   21900     296.2301   -518.91041       149257   -47398.701     4068.007   -51466.708   0.15654389 
   22000    295.47404   -461.27632    149241.85   -47426.091    4057.6244   -51483.716   0.14890163 
   22100    293.93166   -525.45906    149232.32   -47468.893    4036.4436   -51505.337   0.14967069 
   22200     291.1877   -523.39496    149223.13   -47554.231    3998.7619   -51552.993   0.15092564 
   22300    291.15961   -517.02913    149227.13   -47438.369     3998.376   -51436.745   0.15804279 
   22400    301.51748   -472.90948    149257.11   -47390.848    4140.6165   -51531.464   0.15324946 
   22500    297.56399   -515.39305    149247.57   -47331.175    4086.3248     -51417.5   0.15684713 
   22600    301.47322   -506.27311    149253.13    -47378.19    4140.0086   -51518.198   0.15590199 
   22700    297.28718   -515.96865    149226.38   -47435.915    4082.5235   -51518.439   0.15455701 
   22800    298.20825   -501.52448    149233.95   -47356.295    4095.1723   -51451.467   0.15550761 
   22900    296.52692   -486.88959    149204.72   -47390.889    4072.0832   -51462.973   0.16179132 
   23000    291.58088   -483.22551    149213.83   -47468.205    4004.1613   -51472.367   0.14795328 
   23100    297.13858   -468.54545    149230.33   -47411.897    4080.4828    -51492.38   0.15291235 
   23200    299.88673   -480.88075     149251.8     -47351.4     4118.222   -51469.622   0.15320197 
   23300    299.40677    -514.9675    149252.67   -47345.716    4111.6309   -51457.347   0.15523991 
   23400    300.14988   -550.38415    149246.91    -47400.32    4121.8358   -51522.155   0.15756107 
   23500    304.80754   -448.77374    149235.32   -47280.973    4185.7975   -51466.771    0.1485061 
   23600     300.6897   -462.49901    149280.96   -47301.364     4129.249   -51430.613   0.15760583 
   23700    299.76538   -450.14253    149277.79   -47291.599    4116.5556   -51408.155   0.15078747 
   23800    297.58273   -489.27799    149252.76   -47301.551    4086.5822   -51388.133   0.15397365 
   23900    293.89363   -501.68613    149238.74   -47395.163    4035.9213   -51431.085   0.15611329 
   24000    295.60431   -507.34641    149237.59     -47337.7    4059.4134   -51397.113   0.15347608 
   24100    301.98411   -519.37338    149269.33   -47274.067    4147.0245   -51421.092   0.15791021 
   24200    301.32479   -498.97255    149237.01     -47401.6    4137.9703   -51539.571   0.14654012 
   24300    296.02773   -490.88274    149227.09   -47442.394     4065.228   -51507.621   0.15450623 
   24400    291.70477   -514.82037     149214.2   -47472.508    4005.8625   -51478.371    0.1549052 
   24500    290.23385   -515.19986    149209.59   -47418.243     3985.663   -51403.906   0.15468709 
   24600    289.97384    -487.5474    149190.83    -47464.95    3982.0923   -51447.042   0.15695436 
   24700    293.29814   -516.55296    149209.82    -47471.24    4027.7437   -51498.983   0.14882676 
   24800    296.40213   -499.58574    149223.37   -47409.112    4070.3695   -51479.482   0.15510598 
   24900    297.43033   -490.01857     149231.7   -47463.883    4084.4894   -51548.372   0.15218333 
   25000    293.24801   -509.57297    149205.82   -47448.847    4027.0552   -51475.902   0.15352307 
   25100    289.00419   -545.17939     149224.1   -47509.474    3968.7765    -51478.25   0.15531784 
   25200    288.73838   -511.97485    149205.58   -47642.909    3965.1264   -51608.036   0.14463112 
   25300    294.47825   -515.89327    149236.92   -47474.312    4043.9497   -51518.262   0.15124078 
   25400    290.81178   -499.98716    149250.12   -47517.725    3993.5994   -51511.324   0.15347386 
   25500    296.96702     -488.476    149267.56   -47399.362    4078.1269   -51477.489    0.1485471 
   25600    301.53502   -470.26425    149309.22    -47323.22    4140.8574   -51464.078   0.15396193 
   25700    296.75384   -507.10379    149280.53   -47414.605    4075.1994   -51489.804   0.14378311 
   25800    301.90462   -509.19947     149290.8   -47271.408     4145.933   -51417.341   0.15839784 
   25900    299.01997   -512.97118    149286.14    -47296.78    4106.3192   -51403.099   0.15322909 
   26000    300.03715   -521.12262    149284.94   -47343.709    4120.2877   -51463.997   0.15229525 
   26100    298.15069   -517.91134    149276.15   -47325.973    4094.3818   -51420.355   0.15993259 
   26200    296.90074    -467.7687    149273.53   -47434.525    4077.2167   -51511.742   0.14528503 
   26300    296.21224   -466.73886    149270.56   -47390.008    4067.7618    -51457.77   0.15287782 
   26400    297.31167   -524.01864    149248.75   -47451.699    4082.8598   -51534.559   0.14845216 
   26500    301.03804   -511.70015     149269.9   -47359.577    4134.0326    -51493.61   0.15262408 
   26600    295.94451   -497.19481    149282.34   -47306.455    4064.0852    -51370.54   0.15727021 
   26700     298.4509   -460.08674    149279.68   -47306.833    4098.5045   -51405.338   0.15044765 
   26800    296.49431   -514.20716       149290   -47361.045    4071.6354    -51432.68   0.15128969 
   26900    301.29778   -490.97286    149295.44   -47298.544    4137.5994   -51436.143   0.15364026 
   27000    299.69337   -563.50583    149310.31   -47336.818    4115.5667   -51452.384   0.15065596 
   27100    300.83503   -470.79166    149291.63   -47278.013    4131.2447   -51409.258   0.15354786 
   27200    300.18529   -479.75859    149283.38   -47345.656     4122.322   -51467.978   0.14957524 
   27300    301.93303   -463.35231    149322.48   -47175.418    4146.3231   -51321.742    0.1541028 
   27400    298.84424   -524.21249    149311.88   -47298.992     4103.906   -51402.898   0.15327848 
   27500    293.93522   -514.24997    149292.32   -47415.519    4036.4924   -51452.011   0.15149201 
   27600    291.59842   -522.92364    149262.07    -47469.48    4004.4021   -51473.882   0.15310646 
   27700    301.24764   -517.27598    149257.83   -47360.748    4136.9109   -51497.659   0.14564434 
   27800    300.29658   -538.79266    149239.71   -47333.446    4123.8504   -51457.297   0.15473462 
   27900    294.89433   -513.93081    149225.72   -47393.145    4049.6635   -51442.809    0.1488425 
   28000    293.80459   -520.55939    149213.54   -47471.252    4034.6986   -51505.951   0.15210519 
   28100     297.5606   -500.49903    149212.01   -47445.467    4086.2783   -51531.746   0.15006621 
   28200    295.34231    -484.5295    149233.79   -47406.477    4055.8154   -51462.293   0.14511455 
   28300    296.10312   -485.23755    149237.31   -47430.173    4066.2634   -51496.436   0.15478608 
   28400    296.83264   -512.66673    149247.38    -47360.07    4076.2815   -51436.352   0.14738255 
   28500    299.14983   -495.15226    149246.98   -47394.299    4108.1026   -51502.401   0.14776025 
   28600    296.33249   -499.52153       149233   -47394.393    4069.4132   -51463.807   0.15481929 
   28700    293.31264   -500.55421    149260.15    -47400.15    4027.9428   -51428.093     0.148546 
   28800    293.91511   -541.11351    149242.12   -47446.001    4036.2162   -51482.218   0.14980918 
   28900    293.60262   -493.30076    149252.48    -47412.76     4031.925   -51444.685   0.14977223 
   29000    297.41739   -491.57613    149294.71   -47362.504    4084.3116   -51446.816   0.14721342 
   29100    296.45714    -488.4674    149288.94   -47353.969     4071.125   -51425.094   0.14989189 
   29200    301.41008   -515.76991    149314.29   -47289.826    4139.1417   -51428.968   0.15460321 
   29300    300.77038   -482.47704    149286.73   -47290.922    4130.3568   -51421.278   0.15252929 
   29400    299.21336   -462.53059    149291.85   -47304.367    4108.9749   -51413.342   0.15249569 
   29500    295.98828   -510.18158    149292.35    -47354.51    4064.6863   -51419.196   0.15134172 
   29600    300.40999   -473.86543    149296.94   -47319.628    4125.4078   -51445.036   0.14805066 
   29700    295.69303   -504.29462     149276.6   -47401.428    4060.6316    -51462.06   0.14853402 
   29800     294.3281   -475.22236    149239.33   -47493.489    4041.8877   -51535.377   0.14527764 
   29900     291.1788   -520.54118    149237.47   -47469.367    3998.6396   -51468.006   0.14785322 
   30000    295.66708   -470.35468    149252.53    -47434.35    4060.2754   -51494.625   0.15204966 
   30100    296.17872   -471.63623    149275.79   -47403.278    4067.3015   -51470.579   0.14820453 
   30200    297.76713   -501.61619    149274.84   -47418.503    4089.1144   -51507.617   0.14207046 
   30300    293.96094    -517.4807    149248.67   -47401.957    4036.8456   -51438.803   0.15496992 
   30400    296.33836   -460.62713    149246.19   -47439.612    4069.4937   -51509.106    0.1438114 
   30500    291.14343   -507.16348    149225.58   -47545.729    3998.1538   -51543.883   0.14895087 
   30600    296.36668   -441.97472    149236.16    -47411.39    4069.8827   -51481.273   0.14553369 
   30700    290.55718   -515.79228    149253.55   -47450.134    3990.1031   -51440.237   0.15291674 
   30800     292.3048   -486.70193    149253.65   -47373.955    4014.1026   -51388.057   0.15155599 
   30900    293.14892   -482.73409    149299.71   -47352.828    4025.6945   -51378.522   0.15180665 
   31000    298.32264   -530.93322    149276.24   -47388.271    4096.7431   -51485.014   0.14738198 
   31100    297.35174    -503.8831    149276.31   -47397.513    4083.4101   -51480.923     0.148184 
   31200     297.5241   -527.56587    149264.12   -47343.084    4085.7771   -51428.861   0.15201241 
   31300    301.92875   -532.24002     149278.3   -47274.202    4146.2643   -51420.466   0.15033853 
   31400    294.52597   -499.60781    149288.45   -47399.216    4044.6049   -51443.821   0.15183202 
   31500    296.04556   -536.37593    149284.93   -47347.708    4065.4729   -51413.181   0.15411281 
   31600    296.01248    -473.0795    149281.13   -47364.822    4065.0186    -51429.84   0.14942934 
   31700    296.49963   -533.84776    149319.22   -47344.135    4071.7084   -51415.843   0.15102175 
   31800    294.01445    -521.4759    149289.58   -47400.786    4037.5805   -51438.366   0.14966197 
   31900    300.13539   -497.53706    149292.29   -47400.267    4121.6368   -51521.903    0.1427298 
   32000    298.62069   -457.02543    149279.88   -47343.372    4100.8361   -51444.208   0.15061005 
   32100    294.89397   -510.82711     149287.6   -47384.811    4049.6586   -51434.469   0.14292035 
   32200     289.1362   -516.86878    149269.27   -47514.343    3970.5894   -51484.932   0.14728758 
   32300    296.18997   -481.17644    149247.93   -47449.165     4067.456   -51516.621   0.14546271 
   32400    288.05691   -491.35492    149254.33   -47548.638     3955.768   -51504.406   0.14587683 
   32500    297.01652   -522.63024    149268.92   -47402.587    4078.8066   -51481.393   0.15046791 
   32600    295.23022   -484.71098    149282.74   -47354.737    4054.2762   -51409.013    0.1506495 
   32700    299.50694   -486.00169    149287.19   -47454.784    4113.0066   -51567.791   0.14308186 
   32800    300.52593   -493.43071    149276.72   -47315.182         4127   -51442.182   0.15232409 
   32900    295.34567   -530.53341    149272.71   -47389.162    4055.8616   -51445.024   0.15511048 
   33000    296.68804   -529.36867     149249.3   -47371.954    4074.2957    -51446.25   0.15583951 
   33100    292.38989   -530.62577    149254.89   -47400.109     4015.271    -51415.38   0.15209799 
   33200    300.68122   -481.98046    149260.19   -47382.262    4129.1325   -51511.394   0.15261596 
   33300     296.3827   -507.39818    149263.59   -47384.727    4070.1026    -51454.83   0.14999777 
   33400     299.3231   -511.32355    149245.09    -47408.28    4110.4819   -51518.762   0.14882342 
   33500    298.52306   -470.74789     149241.1   -47428.946    4099.4954   -51528.441   0.14420747 
   33600    293.10712   -507.22282    149256.23   -47445.628    4025.1205   -51470.748   0.14360011 
   33700    295.60899   -496.19066    149261.99   -47338.589    4059.4776   -51398.067   0.15518778 
   33800    303.30979   -497.87637    149299.66   -47234.221    4165.2296    -51399.45   0.15204254 
   33900    302.23736   -478.47949    149301.69   -47257.377    4150.5024   -51407.879   0.15666509 
   34000    297.61628    -532.8562    149283.02   -47412.535    4087.0428   -51499.577   0.15013782 
   34100    295.58307   -507.32632    149273.63   -47425.037    4059.1216   -51484.159   0.14787889 
   34200     291.0702   -485.36831     149259.1   -47423.474    3997.1483   -51420.623   0.14889032 
   34300    293.83405   -519.43655       149246   -47456.756     4035.103   -51491.859   0.14599438 
   34400    296.11401   -454.30901    149241.04   -47377.795    4066.4128   -51444.208   0.15024469 
   34500    302.95809   -523.35594    149268.66   -47303.959    4160.3998   -51464.359   0.15443481 
   34600     299.5478   -538.50217    149290.27   -47297.761    4113.5677   -51411.328   0.15443297 
   34700    296.55904   -511.02394    149248.63    -47414.47    4072.5243   -51486.994   0.15454486 
   34800    295.71811   -487.11297    149251.94   -47408.839    4060.9761   -51469.815   0.14493197 
   34900    294.20297    -484.4038    149242.66   -47391.541    4040.1693   -51431.711   0.15361532 
   35000     297.0059   -509.90607    149256.17   -47367.893    4078.6608   -51446.554   0.15168144 
   35100    294.70507    -508.5918    149269.53   -47388.674    4047.0645   -51435.738   0.15056059 
   35200     301.7789   -499.51164    149280.36   -47324.758    4144.2065   -51468.965    0.1547023 
   35300    288.59029   -523.74328    149308.31    -47409.47    3963.0927   -51372.563   0.15039188 
   35400    296.42955    -491.3608    149290.24   -47405.315    4070.7461   -51476.061   0.15793945 
   35500    298.94776   -500.84491    149257.75   -47379.034    4105.3276   -51484.362   0.14868015 
   35600    300.32738   -472.03276    149286.56   -47357.668    4124.2734   -51481.942   0.14781747 
   35700    295.90903   -525.09185    149270.64   -47369.518     4063.598   -51433.116   0.15609691 
   35800    303.58377   -464.81912    149327.64    -47202.51    4168.9921   -51371.502   0.15183618 
   35900    296.70383   -512.31002    149335.94   -47321.956    4074.5126   -51396.468   0.15447157 
   36000    294.81125   -495.97174    149298.86   -47376.182    4048.5226   -51424.704   0.15359237 
   36100    297.56272   -506.59022    149277.25   -47423.609    4086.3075   -51509.916   0.15286969 
   36200     290.5655   -512.59017    149266.69   -47453.705    3990.2175   -51443.922   0.14774695 
   36300    292.33429   -512.51458    149263.85   -47385.818    4014.5075   -51400.325   0.15255925 
   36400     295.4744    -501.7599    149267.99   -47443.774    4057.6294   -51501.403    0.1530948 
   36500    297.37286   -504.76093    149253.93   -47417.832    4083.7002   -51501.532   0.14534003 
   36600    292.94289   -485.16165     149247.2   -47421.367    4022.8652   -51444.232    0.1524354 
   36700    292.55368   -515.32226    149245.89   -47455.483    4017.5203   -51473.004   0.14907589 
   36800    286.68614   -518.77761    149229.03   -47536.355    3936.9437   -51473.299   0.14739662 
   36900    290.74792   -494.49298    149255.58   -47454.605    3992.7225   -51447.328   0.15314539 
   37000    291.55593   -542.22004    149262.47   -47443.656    4003.8186   -51447.475   0.14972164 
   37100    290.37497   -518.08832    149252.15   -47490.142    3987.6009   -51477.743   0.15225069 
   37200    297.55789   -510.56437    149239.24   -47490.816    4086.2411   -51577.057   0.14823343 
   37300    293.98537   -507.28373    149252.78   -47491.443    4037.1812   -51528.624   0.14528735 
   37400    287.69258   -481.11805    149227.16   -47496.719    3950.7649   -51447.484   0.15295776 
   37500    292.93159   -514.93398    149258.42   -47473.221      4022.71   -51495.931   0.14786041 
   37600    289.53137   -538.12947    149241.27   -47519.705    3976.0161   -51495.721    0.1490973 
   37700    292.27734   -475.35176    149219.75   -47603.202    4013.7254   -51616.927   0.14151057 
   37800    291.35449   -480.73189    149194.58    -47618.11    4001.0523   -51619.162   0.14484864 
   37900    290.42407   -503.42344    149224.05   -47517.191    3988.2752   -51505.466   0.14988593 
   38000    293.65894   -481.52522    149250.82   -47455.246    4032.6983   -51487.944   0.14947392 
   38100    301.62511   -450.24714    149281.82   -47393.271    4142.0945   -51535.365   0.14860176 
   38200    300.63571   -513.47323     149279.9   -47359.006    4128.5076   -51487.514   0.14728185 
   38300    293.33107   -518.18935    149262.48   -47413.209    4028.1959   -51441.405   0.15552125 
   38400    293.42116   -474.80056    149279.89    -47337.93     4029.433   -51367.363   0.15248602 
   38500    290.72028    -527.7712    149293.78   -47401.637     3992.343    -51393.98   0.15414882 
   38600     292.2701   -510.58408    149287.42   -47360.821     4013.626   -51374.447   0.15637426 
   38700     291.2439   -476.89591    149311.66   -47330.079    3999.5336   -51329.612    0.1456822 
   38800    301.70782     -454.933    149295.29   -47367.605    4143.2303   -51510.836   0.14652248 
   38900    295.25391    -492.8032     149316.1   -47304.716    4054.6014   -51359.318   0.15116365 
   39000    297.73801   -528.38412    149303.93   -47368.958    4088.7146   -51457.672   0.15099932 
   39100    297.17664   -461.71107    149302.72   -47393.448    4081.0056   -51474.453   0.15090548 
   39200    292.41099   -518.51099    149277.24   -47521.306    4015.5608   -51536.867   0.14349722 
   39300    287.90485   -523.20661    149252.42   -47530.382    3953.6799   -51484.061   0.14886199 
   39400    296.94741   -498.41288    149286.98   -47399.088    4077.8576   -51476.945   0.14993588 
   39500    294.83496   -535.99503    149306.32   -47391.546    4048.8481   -51440.394   0.15011266 
   39600    295.97516   -488.74998    149286.87   -47382.597    4064.5061   -51447.103   0.15127203 
   39700    295.17049    -489.1163    149271.38   -47362.869    4053.4559   -51416.325   0.15008537 
   39800    292.69882   -527.86901    149263.01   -47385.486    4019.5135       -51405   0.15521396 
   39900    301.72961   -510.37425    149272.44   -47347.989    4143.5296   -51491.518   0.14900436 
   40000    296.48318   -510.00274    149260.67    -47423.44    4071.4825   -51494.922   0.15536252 
   40100    298.99256   -490.69698    149268.08   -47437.554    4105.9428   -51543.496   0.14388546 
   40200    292.75543   -484.93176    149256.91    -47409.24    4020.2908   -51429.531   0.15108494 
   40300    293.55803   -511.04356    149249.15   -47417.806    4031.3127   -51449.119   0.15001995 
   40400    289.21969   -525.40161    149252.34   -47509.754    3971.7359    -51481.49   0.14626392 
   40500    291.99862   -495.67396    149252.54   -47361.308    4009.8979   -51371.206   0.15717992 
   40600    292.99368    -525.4241    149251.77    -47438.47    4023.5627   -51462.032   0.15053046 
   40700    295.55938   -500.72077    149260.84   -47443.233    4058.7963   -51502.029   0.14827696 
   40800    295.38428   -495.75675    149254.34   -47413.086    4056.3917   -51469.478   0.15155609 
   40900    298.83853   -512.19471    149241.58   -47404.605    4103.8275   -51508.433   0.14463896 
   41000    295.41538   -509.30342     149221.1   -47469.712    4056.8189   -51526.531     0.151273 
   41100    294.07169   -497.54918    149234.65   -47433.486    4038.3665   -51471.852   0.14860807 
   41200    300.97539   -495.42773    149276.62   -47319.978    4133.1722    -51453.15   0.14968795 
   41300     291.6122   -497.95079     149277.9   -47407.407    4004.5914   -51411.998   0.15563442 
   41400    303.73278   -465.44212    149272.13   -47347.705    4171.0383   -51518.744   0.14208952 
   41500    295.36067   -557.11682    149294.23    -47371.75    4056.0675   -51427.817   0.15514505 
   41600      295.464   -515.11449    149279.27   -47379.005    4057.4865   -51436.491   0.14751167 
   41700    288.49656   -519.00378    149254.91   -47489.812    3961.8055   -51451.617    0.1510617 
   41800    295.15721   -500.33953    149279.94   -47404.701    4053.2735   -51457.975   0.15045032 
   41900    291.96728    -513.0278    149271.34    -47476.66    4009.4676   -51486.128   0.14537023 
   42000    295.96986    -491.0161    149269.57   -47451.112    4064.4333   -51515.546   0.14931031 
   42100    290.75448   -481.19579    149248.08   -47519.342    3992.8127   -51512.155   0.14289164 
   42200    288.75719   -520.96565    149264.56   -47483.825    3965.3847    -51449.21   0.14943986 
   42300    298.54483   -493.21986    149267.97   -47445.638    4099.7943   -51545.433    0.1452883 
   42400    294.63303   -523.93202    149275.28   -47471.213    4046.0751   -51517.288   0.14732876 
   42500     290.0868     -546.992     149276.8    -47436.06    3983.6436   -51419.704   0.15589561 
   42600     296.5375   -511.65304    149279.11   -47476.164    4072.2285   -51548.392    0.1447643 
   42700    291.51893   -471.54751    149271.98   -47545.911    4003.3104   -51549.221   0.14519868 
   42800    296.64393    -494.8863     149279.9   -47455.699    4073.6901   -51529.389   0.14435051 
   42900    291.86309   -498.03828    149281.82   -47476.995    4008.0367   -51485.032   0.14701179 
   43000    293.66908   -503.24252    149269.24    -47493.28    4032.8377   -51526.118   0.14926176 
   43100    295.68445   -545.71815     149282.4   -47415.421    4060.5138   -51475.935   0.15012777 
   43200    292.66041    -555.7628    149285.03   -47432.811     4018.986   -51451.797   0.15728488 
   43300    293.77392   -484.01572    149273.47   -47420.919    4034.2774   -51455.197   0.14738489 
   43400    299.93527   -480.18721    149294.59   -47348.744    4118.8887   -51467.633    0.1452903 
   43500    297.50965   -536.28727    149290.74   -47410.076    4085.5786   -51495.655   0.15139731 
   43600    293.82665   -483.20198    149283.27   -47452.193    4035.0014   -51487.195     0.141217 
   43700    291.51673    -533.1532    149245.55    -47496.99    4003.2802   -51500.271   0.15074478 
   43800    286.34398   -495.89532    149239.32   -47530.985    3932.2451   -51463.231   0.14685881 
   43900    294.31374   -499.91912    149263.72   -47443.425    4041.6905   -51485.115   0.14648033 
   44000    287.38724   -502.36391    149260.14   -47530.523    3946.5717   -51477.094   0.15038898 
   44100    292.60508   -467.04198    149249.49   -47483.932    4018.2261   -51502.158   0.14150454 
   44200    293.84193   -497.19646    149261.19   -47441.976    4035.2114   -51477.187   0.15039012 
   44300    298.91847   -488.53723    149253.99    -47445.61    4104.9253   -51550.536   0.14262809 
   44400    291.87651   -491.01544    149233.33   -47457.287     4008.221   -51465.508   0.14939613 
   44500    293.12104   -522.19668    149265.33   -47463.388    4025.3116   -51488.699   0.14917914 
   44600    293.81858   -523.90116    149294.95   -47468.142    4034.8906   -51503.033   0.15008595 
   44700    293.83431   -531.92057    149313.95   -47456.793    4035.1066     -51491.9   0.14669494 
   44800    295.69565   -487.43117    149297.17   -47409.803    4060.6677   -51470.471   0.14199245 
   44900    291.68293   -516.07463    149312.83   -47401.429    4005.5627   -51406.992   0.15336351 
   45000    297.43489   -476.63522    149308.55   -47449.239     4084.552   -51533.791   0.14427672 
   45100    302.18264   -479.29706    149330.08   -47333.185    4149.7509   -51482.936    0.1499393 
   45200     297.9092   -496.58339    149330.04    -47368.59    4091.0654   -51459.655   0.14670136 
   45300    298.55984   -501.25906    149313.42   -47391.764    4100.0005   -51491.764   0.14235355 
   45400    299.25447   -514.64606    149305.12   -47458.434    4109.5395   -51567.974   0.14907505 
   45500    298.52111   -519.23423    149293.46    -47391.28    4099.4686   -51490.749   0.14799385 
   45600    297.63639   -508.59447    149291.44   -47389.289    4087.3191   -51476.608   0.14791522 
   45700    299.84947   -500.55377    149267.51   -47332.361    4117.7104   -51450.072   0.15759648 
   45800    294.18495   -518.88175    149302.79   -47414.235    4039.9218   -51454.157   0.14450531 
   45900    300.67303   -481.45971     149297.1   -47274.739      4129.02   -51403.759   0.15336702 
   46000    300.42432   -490.20176    149297.52   -47334.966    4125.6046   -51460.571   0.15066513 
   46100    304.30394   -489.64357     149336.3   -47247.618    4178.8819     -51426.5   0.14877857 
   46200    299.43106   -544.21242    149298.55   -47302.563    4111.9646   -51414.528   0.15681063 
   46300    298.82457   -501.48042    149320.48   -47291.526    4103.6358   -51395.162   0.15179098 
   46400    298.81844   -490.17406    149293.12   -47342.005    4103.5517   -51445.557   0.15371726 
   46500    297.68246   -521.92146    149272.77   -47306.946    4087.9517   -51394.898   0.15472758 
   46600    295.48572   -511.14281    149268.43   -47368.561    4057.7848   -51426.346   0.15044838 
   46700    300.40128   -481.84351    149277.25   -47297.557    4125.2882   -51422.846   0.15263939 
   46800    302.29211   -468.11611    149266.16   -47308.231    4151.2542   -51459.485   0.14896279 
   46900    294.04082   -504.05928    149272.23   -47368.414    4037.9426   -51406.356   0.15242365 
   47000    298.69414   -522.96981    149272.43   -47402.556    4101.8447   -51504.401   0.14631192 
   47100    296.08691   -509.92929    149276.29   -47412.037    4066.0407   -51478.078   0.15659444 
   47200    297.63294   -473.61842    149276.79   -47374.515    4087.2716   -51461.786   0.14746609 
   47300    288.95819   -539.09928    149253.98   -47501.266    3968.1449   -51469.411   0.15029162 
   47400    293.46527   -510.40321     149241.2    -47430.65    4030.0387   -51460.689   0.15534196 
   47500    297.46052   -479.59028    149228.74   -47437.485    4084.9039   -51522.389   0.14689159 
   47600    295.44907   -525.21844    149233.87   -47435.302    4057.2816   -51492.584    0.1556817 
   47700    301.30615   -511.79237    149272.86   -47351.197    4137.7144   -51488.912   0.14905578 
   47800     298.0137   -552.61473     149247.3   -47420.015    4092.5005   -51512.516   0.15236929 
   47900      293.223   -518.40763     149239.8   -47469.044    4026.7118   -51495.756   0.15000314 
   48000    295.58355   -523.00193    149252.29    -47426.97    4059.1283   -51486.099   0.14784215 
   48100    291.81907   -518.93445    149245.89   -47470.805    4007.4323   -51478.238   0.15076657 
   48200    294.42291   -476.03035     149278.9   -47459.817    4043.1896   -51503.007   0.15009809 
   48300    295.65599   -503.93176    149280.07   -47413.761     4060.123   -51473.884   0.14547943 
   48400     289.8726   -502.93329    149278.23   -47450.829    3980.7021   -51431.532   0.15317637 
   48500    289.93278   -506.27899    149262.17   -47537.773    3981.5285   -51519.302   0.14910386 
   48600    293.98883   -525.40411    149260.65   -47532.806    4037.2286   -51570.035   0.15001189 
   48700    292.19737   -497.62298     149267.6   -47417.187    4012.6272   -51429.815   0.14964705 
   48800    296.48765   -465.16069    149265.93   -47407.652    4071.5439   -51479.196   0.14689857 
   48900    291.60486   -484.20458    149274.35    -47432.04    4004.4905    -51436.53   0.14926859 
   49000    295.15671   -532.57129    149279.13   -47474.929    4053.2666   -51528.196   0.14827835 
   49100    295.36021   -490.59537    149287.83    -47385.64    4056.0613   -51441.701   0.15583557 
   49200    292.98602   -520.83821    149294.43   -47421.902    4023.4575   -51445.359   0.15049759 
   49300    292.00817   -530.65679       149288   -47495.538     4010.029   -51505.567     0.152199 
   49400    294.66799   -514.89538    149285.55   -47509.275    4046.5552    -51555.83   0.14489048 
   49500    293.85973   -487.62695    149279.39   -47447.567    4035.4557   -51483.023   0.14826208 
   49600    293.07548   -503.13686    149282.56   -47444.309    4024.6859   -51468.995   0.15443916 
   49700    297.37697    -499.5071    149269.54   -47444.061    4083.7565   -51527.817   0.14732231 
   49800     291.5421   -505.05731    149262.36   -47454.644    4003.6286   -51458.272   0.15128022 
   49900    299.86126   -483.37714    149255.92   -47430.983    4117.8723   -51548.855   0.14895926 
   50000    292.35193   -520.16017    149273.23   -47444.465    4014.7498   -51459.215   0.15073284 
   50100    296.24331   -516.94561    149274.66   -47297.046    4068.1885   -51365.234   0.16058331 
   50200    294.45936   -510.48538    149278.37   -47374.213    4043.6903   -51417.904   0.15152066 
   50300    292.26025   -512.77556    149278.47   -47392.027    4013.4908   -51405.518   0.15533436 
   50400    294.28633   -478.81312    149266.23   -47406.561     4041.314   -51447.875   0.15026844 
   50500    297.57519   -495.88524     149280.2   -47315.924    4086.4787   -51402.403   0.15484782 
   50600    300.43152   -478.22295    149330.66   -47241.191    4125.7035   -51366.895   0.15650141 
   50700    294.75587   -500.37685    149299.68   -47487.079    4047.7621   -51534.841   0.14697269 
   50800    297.35241   -487.09429    149275.53    -47462.89    4083.4192   -51546.309    0.1490592 
   50900    294.22044   -506.33226     149282.4   -47492.569    4040.4093   -51532.978   0.14660369 
   51000    289.53814   -492.82082    149276.54    -47448.86    3976.1091   -51424.969   0.14914715 
   51100    297.73184   -521.89936    149281.41   -47463.265    4088.6298   -51551.895   0.15090578 
   51200    288.50224   -487.03329    149254.33   -47517.402    3961.8835   -51479.286   0.14478603 
   51300    291.28117   -528.63275    149257.22   -47530.036    4000.0455   -51530.081   0.14888115 
   51400    295.68455   -491.89112    149255.44   -47466.942    4060.5152   -51527.457   0.14574479 
   51500    293.37007   -481.09529    149229.37   -47524.724    4028.7314   -51553.456   0.14778155 
   51600    293.32797    -444.4999    149237.59   -47436.557    4028.1533    -51464.71   0.14920139 
   51700    294.38932   -504.91021    149256.39   -47330.932    4042.7284   -51373.661   0.15461128 
   51800    295.15898   -492.90578    149291.69   -47380.605    4053.2979   -51433.902   0.15289587 
   51900    291.16325   -528.79535    149262.67    -47443.05     3998.426   -51441.476   0.14894741 
   52000    293.36413   -517.54729    149257.45   -47426.098    4028.6498   -51454.747   0.15166694 
   52100     293.9125   -475.24032    149253.12   -47505.048    4036.1805   -51541.228   0.14355573 
   52200    288.82021   -511.27072    149229.62   -47561.388    3966.2501   -51527.638   0.14981237 
   52300    293.00326   -477.33066    149223.27   -47540.971    4023.6942   -51564.665   0.14757653 
   52400    290.14331   -497.02893    149217.59   -47630.546    3984.4197   -51614.966   0.14138567 
   52500    296.81704    -447.3059    149252.46   -47476.604    4076.0672   -51552.672     0.145764 
   52600    293.64919   -516.45359    149256.28    -47440.08    4032.5645   -51472.644   0.15186711 
   52700    294.65527   -490.55686    149274.47   -47378.992    4046.3806   -51425.373   0.14638037 
   52800    296.74532   -470.61599    149296.66   -47344.682    4075.0824   -51419.765   0.15254945 
   52900    296.74138   -517.62559    149307.74   -47367.841    4075.0283   -51442.869    0.1511765 
   53000    301.46448   -504.12525    149311.98    -47320.93    4139.8887   -51460.819   0.15240289 
   53100    296.87647   -488.01524    149293.48     -47463.6    4076.8834   -51540.483   0.14732681 
   53200    294.09787   -517.28224    149270.56   -47512.088     4038.726   -51550.814   0.14542731 
   53300    291.82957   -518.12597    149277.42   -47471.216    4007.5763   -51478.793   0.14846089 
   53400    293.79963   -531.52765    149292.54   -47400.602    4034.6305   -51435.233    0.1514039 
   53500    297.01656   -525.57118    149290.96   -47391.655    4078.8072   -51470.462   0.15327138 
   53600    292.56489   -517.89386    149272.69   -47460.923    4017.6742   -51478.597   0.14848038 
   53700    295.96694   -484.51757    149283.48    -47440.92    4064.3932   -51505.314   0.15045376 
   53800    293.02063   -489.23676    149268.55   -47465.629    4023.9328   -51489.562    0.1475136 
   53900    295.48771   -503.34562    149273.29   -47475.963    4057.8121   -51533.775   0.14596542 
   54000    291.11444   -460.70404     149268.1    -47476.71    3997.7558   -51474.465    0.1516142 
   54100    297.34365   -517.17021    149302.58   -47448.404     4083.299   -51531.703   0.14560261 
   54200    296.33887     -489.376    149306.91   -47396.223    4069.5008   -51465.724   0.15592526 
   54300    299.10924   -527.76445    149324.49   -47321.743    4107.5452   -51429.288   0.15781583 
   54400    298.37151   -485.94015    149378.06   -47238.437    4097.4142   -51335.852   0.14934392 
   54500    299.77627   -476.17284    149342.79   -47307.734    4116.7051   -51424.439   0.15627378 
   54600      297.647   -485.00943       149348   -47326.541    4087.4648   -51414.006   0.14834349 
   54700    295.85849   -510.92095     149341.5   -47394.227    4062.9039   -51457.131   0.14853082 
   54800    295.93494    -514.2443    149328.53   -47315.433    4063.9537   -51379.387   0.16056205 
   54900    295.26493   -501.52689    149330.69   -47334.724    4054.7528   -51389.477   0.15105146 
   55000    293.82203   -529.59298    149329.96   -47367.135     4034.938   -51402.073   0.15839219 
   55100     295.2304   -491.60279    149302.99   -47384.474    4054.2785   -51438.752   0.15585452 
   55200    290.22014   -528.53025    149288.98   -47499.274    3985.4747   -51484.748    0.1496366 
   55300    292.40612   -501.35201    149282.21   -47542.581    4015.4939   -51558.075   0.15233616 
   55400    295.21591   -489.15312    149289.24   -47507.255    4054.0796   -51561.334   0.14759521 
   55500    291.58822   -495.12424     149282.6   -47466.514     4004.262   -51470.776   0.15220614 
   55600    294.21707   -491.07745    149297.28   -47359.774     4040.363   -51400.137    0.1539231 
   55700    300.53586   -494.09631    149324.01   -47328.033    4127.1364    -51455.17   0.15115309 
   55800    294.97229   -469.38034    149305.46   -47307.496    4050.7341    -51358.23   0.15272417 
   55900    297.93031   -497.93841    149293.16   -47327.496    4091.3554   -51418.851   0.15380685 
   56000     298.7906   -450.38961    149297.59    -47332.08    4103.1694    -51435.25   0.15058624 
   56100    298.54523   -506.02585    149288.34    -47318.72    4099.7997    -51418.52   0.15265943 
   56200    300.12259   -541.40958    149281.42   -47363.481     4121.461   -51484.942   0.16067167 
   56300     294.8197   -522.70835    149246.55   -47428.282    4048.6386   -51476.921   0.15356958 
   56400    290.92654   -533.38883    149256.73   -47484.838    3995.1754   -51480.013   0.15192216 
   56500    291.56796   -526.20663    149249.94   -47531.555    4003.9838   -51535.539   0.15160708 
   56600    289.18354   -500.01221    149236.48   -47589.299    3971.2395   -51560.538   0.14377858 
   56700    290.03692   -467.05005     149242.8   -47567.016    3982.9587   -51549.975   0.14913614 
   56800    294.10787   -474.56338    149267.55   -47451.965    4038.8634   -51490.828   0.15224742 
   56900    284.57289   -532.04194     149274.9   -47553.988    3907.9233   -51461.911   0.15070404 
   57000    289.62967   -502.35959    149263.66   -47538.749    3977.3661   -51516.115   0.14790124 
   57100    290.40815   -509.97102     149286.6     -47456.3    3988.0566   -51444.357   0.14971355 
   57200    293.50164    -523.0111    149285.64   -47406.557    4030.5383   -51437.095   0.15509433 
   57300    291.19854   -544.89773    149244.96   -47544.178    3998.9108   -51543.089   0.15484439 
   57400    300.27183   -487.09075    149269.59   -47423.495    4123.5105   -51547.006   0.14911507 
   57500    294.05231   -479.09207    149286.17   -47385.153    4038.1004   -51423.254   0.15254901 
   57600    292.97909    -509.7339    149260.87   -47503.343    4023.3623   -51526.705   0.14654176 
   57700    299.61292   -487.93149    149277.11   -47413.383     4114.462   -51527.845   0.15166123 
   57800    297.70372   -521.86071    149295.15   -47361.582    4088.2437   -51449.826   0.15248174 
   57900    296.23989   -497.84676    149303.43   -47397.525    4068.1415   -51465.667   0.15224552 
   58000     298.7098   -490.48825    149309.34   -47355.546    4102.0597   -51457.605   0.14751754 
   58100    300.18686   -469.78738     149282.7   -47403.476    4122.3436    -51525.82   0.14952721 
   58200     299.9972   -509.25461     149308.1   -47294.801    4119.7391    -51414.54   0.15763451 
   58300    297.40335   -506.78366    149311.97   -47369.596    4084.1189   -51453.715   0.14943243 
   58400    290.21597   -501.38865    149289.69   -47411.648    3985.4175   -51397.066   0.15761338 
   58500    295.84138   -502.93135    149260.05   -47414.928     4062.669   -51477.597   0.14908491 
   58600    292.85552   -458.33039     149280.2   -47446.146    4021.6653   -51467.811   0.15174078 
   58700    297.32882   -482.85995    149297.62   -47398.044    4083.0953   -51481.139   0.15141833 
   58800    297.91299   -479.87305       149306   -47440.609    4091.1174   -51531.726   0.14865962 
   58900    293.99879   -498.30727    149310.26    -47357.24    4037.3655   -51394.606   0.15935822 
   59000    293.49036   -495.71605    149338.41   -47323.368    4030.3833   -51353.751   0.15061636 
   59100    298.27794   -488.55737    149345.66   -47287.507    4096.1292   -51383.636   0.15415633 
   59200    295.59507   -511.09587    149285.88   -47407.339    4059.2865   -51466.625   0.15439262 
   59300    297.30993   -485.51698    149256.21   -47390.038    4082.8359   -51472.874     0.149992 
   59400    297.33945   -484.35903    149269.82   -47372.499    4083.2413   -51455.741   0.15641211 
   59500    291.45646   -501.89921    149248.76   -47483.669    4002.4527   -51486.122   0.14817323 
   59600     293.6277   -497.21753     149254.8   -47457.304    4032.2693   -51489.574   0.15426118 
   59700     297.7396   -481.93115    149251.48   -47384.178    4088.7364   -51472.914   0.15294838 
   59800    295.32078   -516.51613    149259.79   -47509.021    4055.5197   -51564.541   0.14765695 
   59900    294.70588    -519.0068    149263.89   -47501.841    4047.0756   -51548.917   0.15286172 
   60000    295.57046   -511.43791    149262.76   -47464.876    4058.9486   -51523.825   0.14912457 
   60100    294.13465   -465.36052    149256.89   -47420.469    4039.2311   -51459.701   0.15749364 
   60200    294.08272    -493.3496    149253.87   -47386.585    4038.5179   -51425.103   0.15205897 
   60300    293.46651   -515.18402    149270.85   -47351.016    4030.0558   -51381.071   0.15805545 
   60400    295.70223   -547.52299    149267.22   -47299.028    4060.7581   -51359.786    0.1641901 
   60500    304.85438   -526.84661    149272.17    -47332.11    4186.4408   -51518.551   0.15235526 
   60600    294.39185   -492.32558    149249.26   -47392.705    4042.7632   -51435.468    0.1595037 
   60700    301.16009   -469.69014    149285.85   -47211.289    4135.7087   -51346.998    0.1561046 
   60800    307.75967   -488.73983    149306.39   -47242.127     4226.338   -51468.465   0.15629216 
   60900    300.69136   -500.77354    149308.42   -47339.802    4129.2717   -51469.073   0.15701955 
   61000     294.5841   -479.00526    149266.46   -47379.237    4045.4032   -51424.641   0.14836359 
   61100    298.54038   -528.26458    149264.66   -47362.486    4099.7332   -51462.219   0.16394581 
   61200    298.00605   -489.82794    149276.05   -47296.589    4092.3955   -51388.984   0.15344286 
   61300    295.51164   -512.82572    149265.36   -47401.427    4058.1407   -51459.568   0.15485213 
   61400    290.63295   -519.15713    149261.45   -47446.356    3991.1437   -51437.499   0.15970538 
   61500    296.36901   -489.17336     149269.5   -47390.232    4069.9147   -51460.146    0.1513785 
   61600     297.6172   -510.66649    149265.68   -47434.451    4087.0556   -51521.507   0.15498512 
   61700    291.92169   -515.26509    149274.24   -47501.029    4008.8414    -51509.87   0.14938872 
   61800    293.75081   -504.04899    149261.47   -47488.274      4033.96   -51522.234    0.1485984 
   61900    294.36473   -527.32721    149281.36   -47379.324    4042.3907   -51421.715    0.1591959 
   62000     297.7868   -469.05958    149284.36   -47390.984    4089.3845   -51480.369   0.14958633 
   62100    296.42707   -527.15047    149265.56   -47465.845     4070.712   -51536.557   0.15401951 
   62200    294.19584   -504.72158    149296.81   -47354.708    4040.0715    -51394.78   0.15384174 
   62300    298.47962    -478.4693    149331.15   -47404.826    4098.8988   -51503.725   0.14711554 
   62400    294.88889   -530.89388    149295.63     -47447.5    4049.5887   -51497.089    0.1496287 
   62500    295.87308   -506.08063    149299.56    -47444.15    4063.1043   -51507.255   0.15082707 
   62600    298.02388   -486.15539    149295.03   -47472.375    4092.6403   -51565.015   0.14984338 
   62700    296.42782   -503.09188    149284.63   -47512.993    4070.7223   -51583.715   0.14216328 
   62800    291.94001   -471.71768    149261.83   -47480.152     4009.093   -51489.245   0.15047643 
   62900    291.54425    -528.9204    149276.55   -47385.012    4003.6582    -51388.67     0.151712 
   63000    296.24315   -472.71643    149289.49   -47419.801    4068.1863   -51487.988   0.14742073 
   63100    294.03285   -487.85253    149269.98   -47490.796    4037.8331   -51528.629     0.147931 
   63200    298.00831   -485.89866    149291.52   -47366.625    4092.4265   -51459.052   0.14833421 
   63300    296.02662   -512.79115    149282.01   -47467.354    4065.2128   -51532.567   0.14972422 
   63400    287.83629   -481.24948    149267.37    -47556.65    3952.7383   -51509.388   0.14665985 
   63500    288.43272   -521.46998    149280.51    -47530.38    3960.9288   -51491.309     0.148684 
   63600    292.92761   -555.30413    149261.01   -47585.101    4022.6554   -51607.756   0.15333123 
   63700    292.17269   -502.16416    149267.65   -47545.812    4012.2883     -51558.1   0.14378285 
   63800    288.76342   -526.75639    149256.11   -47618.678    3965.4702   -51584.148   0.14700861 
   63900    294.95834   -500.69501    149236.24   -47501.387    4050.5425    -51551.93   0.15014589 
   64000    295.97347   -500.79665    149265.65   -47417.084    4064.4829   -51481.567   0.15143945 
   64100    301.02664   -459.33124    149271.89   -47364.387     4133.876   -51498.263   0.14992901 
   64200    293.79853   -500.43869    149294.16    -47356.68    4034.6153   -51391.295   0.15037096 
   64300    292.06403   -560.24402    149308.38   -47404.492    4010.7961   -51415.288    0.1548079 
   64400    293.41017   -520.41661    149257.28   -47457.992    4029.2821   -51487.274    0.1495673 
   64500    295.67354   -485.66066    149237.77   -47446.712    4060.3641   -51507.076   0.15329363 
   64600    289.97342   -498.84769    149248.42   -47479.767    3982.0867   -51461.854    0.1480226 
   64700    292.98258   -496.96559    149242.31   -47486.961    4023.4102   -51510.371   0.15041766 
   64800    292.77048    -503.9095    149259.17   -47428.077    4020.4975   -51448.575   0.14884955 
   64900    300.16084   -483.69733    149263.92   -47341.276    4121.9863   -51463.263   0.14532212 
   65000    298.53065   -503.99106    149291.13   -47331.707    4099.5995   -51431.307   0.15178667 
   65100    297.62716   -487.13656    149260.99   -47398.618    4087.1923   -51485.811   0.14747029 
   65200    293.24398   -507.99064    149269.89   -47416.952    4026.9999   -51443.951   0.15159553 
   65300    297.67115    -505.9647     149298.5   -47349.666    4087.7965   -51437.463   0.15492247 
   65400    299.11147   -514.62219    149300.11   -47394.054    4107.5757    -51501.63   0.14712988 
   65500    293.51112   -511.16013     149303.5   -47325.867    4030.6684   -51356.535   0.15442778 
   65600    297.10048   -504.33014    149311.66    -47345.41    4079.9596    -51425.37   0.14810042 
   65700    298.14061   -501.07974       149306   -47308.084    4094.2433   -51402.327   0.15258793 
   65800    296.38711   -512.03803    149291.81   -47374.324    4070.1632   -51444.487   0.15194167 
   65900    298.00331   -504.51405    149303.97   -47390.912    4092.3579    -51483.27   0.14577881 
   66000    294.15512   -468.97537    149267.31   -47393.374    4039.5123   -51432.886   0.15347478 
   66100    293.76623   -523.08584    149268.61   -47360.996    4034.1718   -51395.168   0.15412155 
   66200    292.27233   -529.17951    149266.12   -47503.406    4013.6566   -51517.063   0.15276772 
   66300    298.97842   -492.16657    149262.73   -47425.103    4105.7486   -51530.852   0.14791807 
   66400    294.11528   -532.46547    149264.91   -47432.116    4038.9651   -51471.081   0.14922898 
   66500    295.11486   -507.17489    149263.32   -47469.155    4052.6919   -51521.846   0.15015357 
   66600    294.08842   -498.37599    149250.67   -47465.025    4038.5962   -51503.622   0.14718298 
   66700    297.62412   -475.75703    149254.04   -47452.009    4087.1505    -51539.16   0.14920456 
   66800     289.9659   -502.97913    149269.29   -47477.064    3981.9834   -51459.047   0.14868426 
   66900    296.74959   -465.63419     149270.4   -47487.573     4075.141   -51562.714   0.14227742 
   67000    291.83622   -501.07551    149249.03    -47598.31    4007.6677   -51605.978   0.14607878 
   67100    295.11988    -516.8825    149259.69   -47429.767    4052.7609   -51482.527   0.14795727 
   67200    290.96743   -507.39948    149243.82    -47537.32     3995.737   -51533.057   0.15417332 
   67300    292.55594   -487.92318    149253.94   -47453.589    4017.5514    -51471.14   0.14589061 
   67400    299.13512   -530.32525    149268.27   -47434.216    4107.9005   -51542.117   0.14809826 
   67500    299.34598   -525.17418    149276.96    -47415.07    4110.7962   -51525.867   0.14776891 
   67600    300.31005   -481.44104    149297.76   -47271.158    4124.0354   -51395.193   0.15004339 
   67700     299.6297   -485.58052    149293.05   -47346.658    4114.6924   -51461.351   0.15360832 
   67800    297.73907   -505.35088    149280.53   -47389.884    4088.7291   -51478.613   0.14822669 
   67900     296.2999   -521.47791    149287.56   -47425.621    4068.9656   -51494.587   0.15088981 
   68000    296.22247   -495.51875    149278.69   -47458.616    4067.9022   -51526.518   0.14929152 
   68100    292.59131   -493.14858    149278.12   -47461.084     4018.037   -51479.121   0.14470427 
   68200    299.82041   -487.81054    149302.61   -47432.801    4117.3113   -51550.112   0.15162244 
   68300    295.06224   -499.54172    149313.88   -47377.821    4051.9693    -51429.79   0.14832582 
   68400    294.57901   -509.61788    149328.92   -47345.466    4045.3334   -51390.799   0.15022666 
   68500    301.39639   -457.26936    149329.64   -47338.447    4138.9536     -51477.4   0.14967636 
   68600    292.61206   -514.11611    149308.67   -47437.552     4018.322   -51455.874   0.14215065 
   68700     292.7377   -491.58057    149298.47   -47409.028    4020.0474   -51429.076   0.15420394 
   68800      298.679   -505.81545    149304.91   -47405.694    4101.6368   -51507.331   0.14683475 
   68900    291.61793   -513.50288    149285.27   -47408.077      4004.67   -51412.747   0.15370036 
   69000    294.22808    -497.6212    149285.44   -47402.989    4040.5142   -51443.503   0.15278312 
   69100    298.59954   -504.13163    149286.59   -47471.178    4100.5456   -51571.723   0.14447443 
   69200    295.17654    -471.7672    149290.21   -47477.654     4053.539   -51531.193   0.14824616 
   69300    291.53555   -514.43045    149276.57   -47513.949    4003.5387   -51517.488   0.14416867 
   69400    288.19673   -512.03076    149246.75   -47563.671     3957.688   -51521.359   0.15202973 
   69500    295.73674   -515.54358    149282.34   -47423.322     4061.232   -51484.554   0.14696744 
   69600    301.02311   -462.29963    149317.95   -47317.974    4133.8275   -51451.802    0.1533391 
   69700     298.2556    -476.8151    149293.73   -47406.409    4095.8224   -51502.232   0.15319111 
   69800     294.9257   -454.24029    149305.77   -47406.553    4050.0943   -51456.648   0.14218995 
   69900    292.66709   -502.43829    149252.66   -47499.152    4019.0778    -51518.23   0.15614894 
   70000    293.20518   -544.80312    149240.19   -47427.402     4026.467   -51453.869   0.15321557 
   70100    290.72218   -524.36579    149228.75   -47557.665     3992.369   -51550.034   0.14977099 
   70200    300.65033   -476.50067    149262.13   -47391.206    4128.7083   -51519.914   0.15670687 
   70300    297.35973   -486.35665    149284.98   -47397.984    4083.5198   -51481.504   0.14650006 
   70400    301.58061   -484.57648    149279.84   -47285.065    4141.4834   -51426.549   0.15827717 
   70500    293.43905   -505.96365    149251.57   -47358.788    4029.6787   -51388.467   0.15381893 
   70600    295.02161   -486.80683    149246.92   -47423.836    4051.4113   -51475.248   0.15042255 
   70700    297.22114    -518.8485    149232.07   -47391.592    4081.6166   -51473.208   0.15408842 
   70800    294.76413   -505.63671    149238.39    -47429.59    4047.8754   -51477.465   0.15512208 
   70900    296.46902   -483.53245    149222.63   -47417.464     4071.288   -51488.752   0.15159754 
   71000    296.77811   -494.63042    149246.12   -47440.218    4075.5327    -51515.75   0.14906208 
   71100    295.86172   -454.21328    149250.42   -47428.819    4062.9483   -51491.768   0.15077821 
   71200    291.88812   -478.98567    149234.56   -47464.001    4008.3804   -51472.382   0.14820916 
   71300    295.14383   -471.35782    149215.21   -47520.359    4053.0898   -51573.449   0.15075846 
   71400    294.75311   -454.41905    149207.56   -47452.187    4047.7241   -51499.911   0.15174947 
   71500    295.88713    -528.5948    149241.29   -47407.057    4063.2972   -51470.354   0.14877337 
   71600    294.43748   -532.20194    149263.38   -47431.233    4043.3898   -51474.623   0.16039424 
   71700    297.53072   -524.65283    149261.33   -47418.699     4085.868   -51504.567   0.14465969 
   71800    288.45859   -498.86064    149247.27   -47596.624    3961.2841   -51557.908   0.14602647 
   71900     293.4428   -469.42089     149210.6   -47527.157    4029.7302   -51556.887    0.1513218 
   72000    295.83278   -475.12111    149235.27   -47499.729    4062.5509    -51562.28   0.14058922 
   72100    289.06838   -513.29193     149275.7    -47362.97    3969.6581   -51332.628   0.16275762 
   72200    300.62924   -478.95845     149288.5   -47250.768    4128.4187   -51379.187   0.15351859 
   72300    299.45168   -543.43191     149320.1   -47233.062    4112.2478    -51345.31   0.16220263 
   72400    297.96598    -524.9133    149292.79   -47353.844    4091.8452   -51445.689   0.15346825 
   72500    293.95755   -500.10852    149288.17   -47347.515    4036.7991   -51384.314   0.15641252 
   72600    302.96925   -490.71641    149294.32   -47288.812    4160.5531   -51449.365   0.15789443 
   72700    293.72192   -502.94179    149296.93   -47456.642    4033.5632   -51490.205   0.14988548 
   72800    292.55774   -487.63733     149282.9   -47381.196     4017.576   -51398.772   0.15543415 
   72900    294.36015   -538.88441    149247.11   -47384.067    4042.3279   -51426.395   0.15660018 
   73000    293.74005   -519.42422    149260.81   -47396.841    4033.8122   -51430.654   0.15323621 
   73100    298.66053   -466.65436    149262.15    -47350.15    4101.3832   -51451.534   0.15739302 
   73200    298.26099   -508.13764    149299.14   -47332.759    4095.8965   -51428.655   0.14968592 
   73300    300.41176   -507.55261    149299.06   -47317.673    4125.4321   -51443.105    0.1619417 
   73400    298.45818   -500.63027    149283.69   -47290.866    4098.6044   -51389.471   0.15248657 
   73500    301.50008   -525.56914    149314.23   -47301.001    4140.3775   -51441.379   0.15627788 
   73600    293.85831   -531.21103    149291.87   -47337.962    4035.4362   -51373.398    0.1626831 
   73700    292.18224   -503.77438    149276.23   -47403.634    4012.4194   -51416.053   0.14576836 
   73800    293.26153   -469.25625    149247.44   -47498.456    4027.2409   -51525.697   0.15611129 
   73900    294.78067   -460.36146    149259.31   -47479.065    4048.1027   -51527.167   0.14339203 
   74000    293.86418   -490.66559    149269.66   -47396.804    4035.5168    -51432.32   0.15395359 
   74100    303.58317   -502.34591    149314.43   -47236.159    4168.9838   -51405.143   0.16033758 
   74200    297.50226   -530.16201    149311.19   -47406.681    4085.4772   -51492.158   0.14726878 
   74300    293.32827   -547.14168    149292.57   -47407.134    4028.1574   -51435.291   0.15694322 
   74400    292.59628   -528.18304    149279.93   -47441.936    4018.1053   -51460.041   0.15009573 
   74500    289.92271   -516.55488    149258.97   -47452.768    3981.3903   -51434.158   0.15468718 
   74600     295.5578   -509.70295    149274.96   -47458.742    4058.7747   -51517.516   0.15416447 
   74700    294.53372   -509.02163    149281.58   -47368.836    4044.7113   -51413.548   0.15188275 
   74800    291.76323   -514.63391    149268.42   -47420.797    4006.6654   -51427.463   0.15775165 
   74900    291.64743   -520.49223    149280.34   -47426.558    4005.0752   -51431.634   0.14766537 
   75000     296.9366   -501.77775    149278.16    -47409.33    4077.7092   -51487.039   0.15128092 
   75100    297.45591   -478.77744    149297.87   -47336.531    4084.8406   -51421.372   0.15283955 
   75200    297.63124   -478.39414     149300.8   -47384.548    4087.2483   -51471.797   0.14662681 
   75300    297.53407   -500.73493    149280.91   -47439.254     4085.914   -51525.168   0.15214832 
   75400    295.61872   -532.88985    149255.98   -47450.098    4059.6112   -51509.709   0.14880705 
   75500    297.54611   -459.79443    149276.16   -47446.623    4086.0792   -51532.702   0.14850586 
   75600    300.95535   -479.96149    149273.66   -47368.971    4132.8969   -51501.868   0.15063717 
   75700    295.60895   -524.08023    149298.29   -47329.408     4059.477   -51388.885     0.153343 
   75800    296.29397   -490.85684    149279.79   -47346.371    4068.8842   -51415.255   0.15714154 
   75900    295.04176   -501.71526    149301.32   -47366.392    4051.6881    -51418.08   0.14940676 
   76000    295.71841   -460.28907    149278.17   -47375.102    4060.9802   -51436.082   0.15241411 
   76100    297.14213   -522.64977    149248.76   -47465.978    4080.5316   -51546.509   0.14840774 
   76200    292.94804   -508.18144    149242.52   -47516.852    4022.9359   -51539.788   0.14865798 
   76300    291.80722   -502.80082    149263.71   -47450.981    4007.2695    -51458.25   0.15410699 
   76400    292.81408   -493.93328    149271.86   -47453.633    4021.0963    -51474.73   0.14352696 
   76500    295.64434   -511.45177    149265.77   -47435.305     4059.963   -51495.268   0.15701285 
[...]
   81900    291.89318   -483.84329    149256.41   -47474.208    4008.4499   -51482.658    0.1560902 
   82000    294.49377   -521.71359    149287.84   -47387.885    4044.1627   -51432.048   0.14993642 
   82100    297.27873   -498.66368    149306.97   -47337.666    4082.4075   -51420.073   0.15433428 
   82200    296.87262   -491.16884    149286.11   -47347.272    4076.8305   -51424.102     0.156512 
   82300     295.9751   -536.17555    149264.54   -47428.873    4064.5053   -51493.378   0.14966454 
   82400    298.26762    -478.1801    149284.88   -47298.567    4095.9875   -51394.555   0.16137869 
   82500    302.42394   -479.61606       149351   -47203.781    4153.0645   -51356.845   0.14878893 
   82600    293.16994   -503.51936       149318   -47306.397    4025.9831    -51332.38   0.16113823 
   82700    298.24251   -501.73974    149289.87   -47391.181    4095.6426   -51486.823   0.15317156 
   82800    297.78505   -468.48555    149255.78   -47399.282    4089.3606   -51488.642   0.14645262 
   82900      297.864   -521.54668    149257.27   -47346.695    4090.4448    -51437.14   0.16221273 
   83000    301.19073   -537.65285    149286.03    -47285.42    4136.1293   -51421.549   0.15195184 
   83100     301.0361   -504.56072    149278.62    -47326.28    4134.0058   -51460.285   0.16266074 
   83200    295.94168   -475.32851    149262.93   -47355.282    4064.0463   -51419.328   0.15250244 
   83300    299.66249   -472.75713    149283.58   -47351.369    4115.1426   -51466.511   0.15128842 
   83400    293.61147   -516.27126    149257.48    -47428.16    4032.0465   -51460.206   0.15951071 
   83500    288.28724   -497.62738    149241.32   -47540.141     3958.931   -51499.072   0.14312505 
   83600    292.80073   -466.75942    149244.53   -47476.067    4020.9129    -51496.98   0.15858436 
   83700    296.72394   -515.05606    149250.02   -47511.483    4074.7887   -51586.272   0.14859588 
   83800    293.86769   -504.03614    149273.99   -47472.708     4035.565   -51508.273   0.14971151 
   83900    292.12197   -488.95182     149259.8   -47468.585    4011.5918   -51480.177   0.15493539 
   84000     291.7885   -513.15266    149267.14   -47493.742    4007.0123   -51500.754   0.14661913 
   84100    295.46585    -482.4212     149260.2    -47416.13    4057.5119   -51473.642    0.1577594 
   84200    295.24871   -499.92893    149287.54   -47370.972      4054.53   -51425.502   0.14995851 
   84300    293.26184   -512.98211    149271.68   -47423.602    4027.2452   -51450.848    0.1550754 
   84400    294.56853   -464.31766    149274.78   -47418.203    4045.1894   -51463.392   0.14760086 
   84500    296.22151   -459.93075    149290.58   -47478.091    4067.8892    -51545.98   0.14396063 
   84600     298.3381   -481.03385    149293.42   -47388.305    4096.9553   -51485.261   0.15384052 
   84700    295.22938   -532.29274    149322.76   -47400.468    4054.2646   -51454.732   0.15187744 
   84800    291.01931   -525.25455    149315.23   -47393.834    3996.4494   -51390.283   0.15740376 
   84900    298.08815   -490.88517    149359.38    -47315.61    4093.5229   -51409.133   0.14932079 
   85000    291.76995   -493.80862    149327.98   -47388.052    4006.7576   -51394.809   0.14921614 
   85100    295.21612   -535.88702    149293.31   -47407.858    4054.0825    -51461.94   0.15827947 
   85200    297.53973   -487.44408    149304.97   -47449.619    4085.9918   -51535.611   0.14003118 
   85300     295.8897   -513.25817    149286.45   -47461.778    4063.3324    -51525.11   0.15446385 
   85400    291.85334   -498.23892    149289.86   -47486.559    4007.9028   -51494.462   0.14774069 
   85500    290.73216   -525.74484     149276.4   -47431.854    3992.5062    -51424.36   0.14992587 
   85600    290.04313   -551.49245    149272.01   -47466.598     3983.044   -51449.642   0.16310243 
   85700    298.28152   -505.26369    149256.76   -47406.585    4096.1784   -51502.764   0.14681222 
   85800    293.80078   -466.10511    149241.04   -47395.816    4034.6462   -51430.462   0.16091514 
   85900    295.49775   -492.26039    149282.98   -47364.926      4057.95   -51422.876   0.14903085 
   86000    299.03372   -485.90873     149250.1   -47413.189     4106.508   -51519.697   0.15268639 
   86100    300.40501   -485.90113    149275.03   -47388.441    4125.3394    -51513.78    0.1520534 
   86200    296.83279   -498.44835    149284.82   -47354.137    4076.2836    -51430.42   0.15468582 
   86300    294.55026   -481.15876    149287.47   -47396.336    4044.9385   -51441.275   0.15654632 
   86400    291.59203   -508.48241    149247.86    -47455.59    4004.3144   -51459.905   0.14918807 
   86500    291.97409   -516.22176    149264.51    -47497.63     4009.561   -51507.191   0.15453868 
   86600    296.26709   -466.83435    149274.98   -47330.008    4068.5151   -51398.523   0.15009457 
   86700    296.96856   -516.00979    149330.67   -47341.031     4078.148   -51419.179    0.1532759 
   86800    293.11966   -484.71429    149301.39    -47458.69    4025.2927   -51483.982   0.15191863 
   86900    297.72675   -497.79935    149316.42   -47446.294      4088.56   -51534.854   0.14072998 
   87000    297.16088    -503.8312    149300.61   -47418.747    4080.7891   -51499.537   0.15442161 
   87100    298.39816   -539.66135    149272.31   -47385.202    4097.7802   -51482.982   0.14927046 
   87200    298.83724   -476.83249    149302.88   -47320.512    4103.8099   -51424.322   0.14818096 
   87300    295.68587    -523.9636    149302.06   -47331.581    4060.5333   -51392.114   0.16088915 
   87400    298.65754   -541.08295    149305.58   -47390.509    4101.3421   -51491.851   0.14121089 
   87500     292.2647   -488.14137    149318.92   -47360.058    4013.5518    -51373.61   0.15648414 
   87600    296.71456    -495.9325    149310.37   -47381.355    4074.6599   -51456.014   0.15117561 
   87700     299.2538   -506.59456    149332.68   -47359.375    4109.5304   -51468.906   0.14857979 
   87800    289.86609   -496.15805    149284.94   -47440.827    3980.6127    -51421.44   0.15915762 
   87900    297.10282    -507.4416    149278.39   -47467.005    4079.9918   -51546.997   0.14231035 
   88000    294.01453     -526.896    149293.12    -47437.11    4037.5816   -51474.691   0.15807482 
   88100    296.29322   -525.65776     149281.7   -47400.985    4068.8739   -51469.858   0.14738609 
   88200    291.95109   -534.81518    149241.86   -47498.408    4009.2452   -51507.653   0.15193802 
   88300    298.06574   -516.93392    149227.75   -47436.707    4093.2152   -51529.922   0.15538086 
   88400    299.80921   -487.49306    149289.66   -47374.118    4117.1575   -51491.276   0.14461604 
   88500    295.84001   -497.81373    149257.72   -47444.036    4062.6502   -51506.686   0.15600407 
   88600    292.36239   -550.08701    149273.95   -47434.509    4014.8934   -51449.402   0.14873089 
   88700    295.87267   -496.44856    149263.29   -47401.705    4063.0987   -51464.804   0.16068002 
   88800     290.1158   -517.39087    149239.56   -47465.416    3984.0418   -51449.458   0.15248149 
   88900    297.89875   -482.06235    149240.29   -47405.868    4090.9219    -51496.79   0.15040907 
   89000    297.44453   -483.86449    149258.91   -47368.524    4084.6844   -51453.208   0.15983094 
   89100    291.65773    -475.4862    149250.71    -47420.87    4005.2166   -51426.087   0.14913492 
   89200     298.3378   -506.08995    149253.35   -47371.881    4096.9512   -51468.832    0.1583847 
   89300    289.95976   -526.35896    149261.69   -47500.452    3981.8991   -51482.351   0.15575265 
   89400    299.01304   -502.21462    149279.33    -47399.99    4106.2241   -51506.214   0.14777693 
   89500     290.3079   -506.16002    149241.94   -47493.667    3986.6799   -51480.346   0.15635842 
   89600    288.75928   -447.15922    149239.66   -47519.303    3965.4133   -51484.716   0.14150347 
   89700    293.61009   -473.77514    149279.58   -47438.111    4032.0275   -51470.138   0.15418441 
   89800    296.26397   -489.40882    149314.28   -47372.118    4068.4722    -51440.59   0.15299908 
   89900    294.14616   -497.28407    149284.42   -47357.743    4039.3891   -51397.132   0.14956196 
   90000    295.21958   -524.98058       149265   -47377.007      4054.13   -51431.137   0.16114322 
   90100     302.3512   -483.22873    149280.41   -47359.196    4152.0657   -51511.262   0.14273269 
   90200     292.6495   -525.62695    149251.45   -47437.778    4018.8361   -51456.614   0.15907462 
   90300    294.67728   -492.85122    149257.44   -47408.587    4046.6829    -51455.27   0.15139667 
   90400     293.7627    -507.4479    149271.83   -47392.102    4034.1233   -51426.226   0.15359452 
   90500    300.95554   -498.88826    149285.44   -47402.788    4132.8997   -51535.687   0.15479391 
   90600    297.15274   -509.61294    149299.79   -47427.686    4080.6773   -51508.364   0.14469616 
   90700    290.62832   -532.36408    149272.06   -47462.523    3991.0801   -51453.603    0.1560497 
   90800    295.63114   -501.96928    149265.84   -47481.537    4059.7817   -51541.319   0.14230718 
   90900    294.32409   -506.25382    149262.99   -47459.478    4041.8326   -51501.311    0.1500539 
   91000    294.67538   -484.21121     149250.2   -47473.648    4046.6568   -51520.305   0.14779463 
   91100    288.14498      -522.53    149249.34   -47578.111    3956.9774   -51535.088   0.14645833 
   91200    291.23135   -491.26247    149216.93   -47518.984    3999.3613   -51518.346    0.1493245 
   91300    296.87237   -494.30481    149259.79   -47456.643    4076.8271    -51533.47   0.14542902 
   91400    300.16455   -502.20113    149274.92   -47427.741    4122.0373   -51549.778    0.1460578 
   91500    298.78228   -458.84871    149312.55   -47261.477    4103.0552   -51364.532   0.15224802 
   91600    296.65339   -516.18715    149315.21    -47332.97      4073.82    -51406.79   0.15524731 
   91700    296.33793   -552.78972     149311.8   -47408.362    4069.4878    -51477.85   0.15500891 
   91800    294.29075   -514.22343    149308.59   -47380.915    4041.3748    -51422.29    0.1552158 
   91900    298.30697   -495.10237    149311.26   -47373.591    4096.5278   -51470.118   0.15246664 
   92000    292.89959   -531.82352    149309.99   -47416.512    4022.2705   -51438.783   0.14988964 
   92100    293.24127   -496.45078     149300.1   -47402.384    4026.9627   -51429.347   0.14758002 
   92200    295.99006   -473.77896    149300.01   -47435.588    4064.7107   -51500.299   0.15048908 
   92300    304.16396   -483.67931    149336.09   -47309.297    4176.9595   -51486.256   0.14590234 
   92400    295.67563   -494.60648    149334.18   -47358.265    4060.3928   -51418.658   0.14912047 
   92500    299.12808    -494.4097    149308.67   -47349.812    4107.8038   -51457.615   0.14873863 
   92600    302.04728   -500.08836     149305.6   -47261.541     4147.892   -51409.433   0.15301941 
   92700    290.58497   -559.48079    149299.65   -47385.316    3990.4848   -51375.801   0.15806936 
   92800    293.05264   -525.68094    149300.43   -47399.356    4024.3724   -51423.729    0.1496246 
   92900    294.57654   -499.60636     149295.5   -47438.911    4045.2994    -51484.21   0.14821988 
   93000    294.41581   -500.70726    149308.46   -47450.016    4043.0921   -51493.108   0.14344833 
   93100    296.03298   -479.91967    149279.07   -47358.062    4065.3001   -51423.363   0.15002258 
   93200    290.63248   -529.89138    149297.94   -47419.888    3991.1373   -51411.025   0.15074874 
   93300    295.06526   -480.36487    149295.57   -47475.898    4052.0108   -51527.908   0.14733156 
   93400    292.47669   -500.63631    149272.39   -47525.495    4016.4631   -51541.958   0.14452807 
   93500    290.80222   -509.68154    149264.04   -47527.272    3993.4682    -51520.74   0.14364435 
   93600    287.75381   -532.72585     149267.6   -47477.867    3951.6056   -51429.472   0.15379356 
   93700    295.34804   -503.95288    149271.73   -47455.933     4055.894   -51511.827   0.14387427 
   93800    293.95747   -506.56489    149265.92   -47451.578     4036.798   -51488.376   0.14839896 
   93900    288.16397   -510.35313    149250.58   -47528.652    3957.2382    -51485.89   0.15120032 
   94000    289.02732   -467.77188    149239.47   -47494.388    3969.0943   -51463.483   0.14371746 
   94100    294.35508   -483.84521    149273.81   -47376.946    4042.2582   -51419.204   0.15158627 
   94200    297.25054     -515.523    149290.64   -47367.374    4082.0203   -51449.394   0.15341387 
   94300    295.49149   -499.39119    149308.98   -47384.776     4057.864    -51442.64     0.147073 
   94400    301.76654   -487.67385    149281.27   -47372.363    4144.0367     -51516.4    0.1508334 
   94500     298.0068   -505.64071    149286.44   -47376.175    4092.4058    -51468.58   0.14411754 
   94600    297.15181   -489.58437    149268.41   -47384.761    4080.6645   -51465.426    0.1530375 
   94700    294.56108   -478.83856    149247.84   -47423.114    4045.0871   -51468.201   0.14909117 
   94800    293.76321   -486.91032    149268.54   -47469.503    4034.1303   -51503.633   0.14509129 
   94900    286.57787   -532.66672     149250.1   -47492.026     3935.457   -51427.483   0.15487785 
   95000    293.41858   -486.33993    149252.91   -47451.633    4029.3976   -51481.031   0.14459819 
   95100    290.97344   -515.31146     149240.9   -47407.622    3995.8195   -51403.442   0.16043618 
   95200    291.29236   -501.90081    149246.66   -47431.575    4000.1991   -51431.774   0.14741888 
   95300    296.42086   -507.94876    149265.04   -47394.437    4070.6267   -51465.064   0.15091536 
   95400    297.16515   -459.14796    149269.73   -47357.264    4080.8477   -51438.111   0.14653011 
   95500    297.96877   -473.49458    149293.27   -47379.438    4091.8835   -51471.321   0.14186618 
   95600    296.96293   -434.23766    149267.48   -47359.531    4078.0708   -51437.602   0.15517416 
   95700    296.35171   -492.76292     149283.8   -47408.354    4069.6772   -51478.031   0.14300058 
   95800    300.70177   -482.86621    149303.38   -47350.777    4129.4146   -51480.192   0.15407027 
   95900     296.0337   -523.74877    149293.84   -47368.866      4065.31   -51434.176   0.15122264 
   96000    296.11943   -478.70287    149305.38   -47335.989    4066.4873   -51402.476   0.14705374 
   96100    297.65205   -521.14338    149312.84   -47282.296    4087.5342    -51369.83   0.16085338 
   96200    299.75574   -512.76894    149338.05   -47308.273    4116.4232   -51424.696   0.14808869 
   96300    302.28518   -449.79851    149329.51   -47329.168     4151.159   -51480.327   0.14845344 
   96400    298.12997   -491.77045    149298.04   -47379.711    4094.0971   -51473.808   0.15221729 
   96500    298.01817   -501.98315       149280   -47374.298    4092.5619    -51466.86   0.14442528 
   96600    297.82391   -498.10646     149273.2   -47428.713    4089.8942   -51518.607   0.15273829 
   96700    297.14314    -518.4264    149282.27   -47395.365    4080.5455   -51475.911   0.14595538 
   96800    303.11702    -482.1318    149311.52   -47420.694    4162.5824   -51583.277   0.14829184 
   96900    299.41108   -515.21352    149297.38   -47422.333    4111.6902   -51534.023   0.15042099 
   97000    290.42179   -497.68641    149294.84    -47500.37    3988.2439   -51488.614   0.14286434 
   97100     291.2578    -472.6264    149289.38    -47465.27    3999.7245   -51464.994   0.15582745 
   97200    295.76794   -427.77408    149309.59   -47405.364    4061.6605   -51467.024   0.14355576 
   97300    299.86946   -487.62264       149349   -47296.208    4117.9849   -51414.193   0.15446587 
   97400    296.73594   -512.74805    149329.54   -47389.868    4074.9535   -51464.821   0.14860906 
   97500    300.22397   -493.92699    149328.76   -47365.485    4122.8533   -51488.338   0.14593056 
   97600    296.85297   -537.71318    149308.96   -47298.548    4076.5608   -51375.109   0.15931605 
   97700    298.46492   -528.07388     149313.9   -47259.205     4098.697   -51357.902     0.150016 
   97800    293.93115   -499.18439    149297.62   -47370.426    4036.4365   -51406.862   0.15410196 
   97900    296.58142   -489.94451    149318.09   -47331.147    4072.8316   -51403.978   0.14901868 
   98000    295.84294   -491.54649    149288.62   -47420.297    4062.6904   -51482.987   0.14723456 
   98100    299.81317   -508.37559    149291.34   -47399.639    4117.2119   -51516.851   0.15101583 
   98200    295.99586   -500.04519    149300.63    -47398.56    4064.7903   -51463.351   0.14938505 
   98300    294.70558   -510.56206    149322.29   -47335.281    4047.0714   -51382.352   0.15543099 
   98400    296.26969   -534.22354     149307.3   -47382.894    4068.5507   -51451.445   0.15324986 
   98500    298.27917   -513.96742    149294.65   -47352.576    4096.1461   -51448.722   0.14823134 
   98600    296.90172   -509.58136    149285.42   -47361.578    4077.2302   -51438.808   0.15332108 
   98700    298.04208   -483.12411    149306.73   -47327.821    4092.8902   -51420.711    0.1474929 
   98800    297.83015   -447.25816    149290.69   -47336.458    4089.9799   -51426.438   0.15360315 
   98900    298.85296   -508.20847    149278.93   -47401.249    4104.0257   -51505.275   0.14884576 
   99000    296.18019   -487.23333    149278.23   -47398.652    4067.3216   -51465.974   0.14769157 
   99100    296.73751   -492.92514    149255.43   -47459.418    4074.9751   -51534.393   0.14868305 
   99200    290.14481   -507.44632    149271.48   -47466.826    3984.4403   -51451.267   0.14515206 
   99300    294.16047   -508.73028    149277.59   -47385.303    4039.5857   -51424.889   0.15673742 
   99400    294.58066   -447.79552     149276.5   -47423.828    4045.3559   -51469.184   0.14197249 
   99500    294.13299   -503.66852    149311.64   -47378.242    4039.2083    -51417.45   0.15340717 
   99600    295.10083   -531.24284     149284.7   -47373.849    4052.4992   -51426.348   0.15396576 
   99700    292.62735   -502.40403    149286.75   -47425.151     4018.532   -51443.683   0.15157412 
   99800    293.02125   -479.73336    149280.08   -47435.199    4023.9412    -51459.14   0.15191064 
   99900    292.11332   -513.53661    149268.36   -47495.035     4011.473   -51506.508   0.14397861 
  100000    296.35297   -489.36897    149296.39   -47407.317    4069.6944   -51477.011   0.14948282 
Loop time of 53.4638 on 6 procs for 100000 steps with 4608 atoms

Performance: 808.023 ns/day, 0.030 hours/ns, 1870.424 timesteps/s
97.6% CPU use with 6 MPI tasks x no OpenMP threads

MPI task timing breakdown:
Section |  min time  |  avg time  |  max time  |%varavg| %total
---------------------------------------------------------------
Pair    | 38.947     | 39.272     | 40.009     |   6.0 | 73.45
Neigh   | 6.345      | 6.4326     | 6.5763     |   4.0 | 12.03
Comm    | 4.3966     | 5.0611     | 5.4579     |  15.9 |  9.47
Output  | 0.1737     | 0.17476    | 0.17951    |   0.5 |  0.33
Modify  | 1.8577     | 1.8956     | 1.9207     |   1.5 |  3.55
Other   |            | 0.6281     |            |       |  1.17

Nlocal:        768.000 ave         775 max         760 min
Histogram: 2 0 0 1 0 0 0 0 1 2
Nghost:        1393.67 ave        1402 max        1385 min
Histogram: 2 1 0 0 0 0 0 0 1 2
Neighs:        0.00000 ave           0 max           0 min
Histogram: 6 0 0 0 0 0 0 0 0 0
FullNghs:      21852.3 ave       22070 max       21596 min
Histogram: 2 0 0 0 1 0 0 0 1 2

Total # of neighbors = 131114
Ave neighs/atom = 28.453559
Neighbor list builds = 6364
Dangerous builds = 0

undump              1
unfix               2
unfix               3
unfix               4




################################################
#######         Run Simulation         #########
################################################

reset_timestep      0
log                 log.run_${NAME}
log                 log.run_ice_296K_-500atm_ML
