LAMMPS data file via write_data, version 29 Oct 2020, timestep = 200000

4608 atoms
1 atom types

0.3738091221650208 56.89670087783276 xlo xhi
0.33227477525907645 50.574845224744145 ylo yhi
0.33227477525907645 50.574845224744145 zlo zhi

Masses

1 18.015

Atoms # atomic

5 1 1.9930407615464185 2.0894157103016053 2.11590725662591 0 0 0
4 1 3.360861126108129 3.5932727315006923 0.4001027021002841 0 0 0
10 1 6.523309937083591 3.5008821932987413 3.659448275791446 0 0 0
13 1 7.857496727521864 1.5686625382121466 1.892064474781247 0 0 0
12 1 9.378806599825673 3.5299971881643484 0.7472983877255535 0 0 0
21 1 14.357888871536256 1.6846544750264763 2.243583574383913 0 0 0
18 1 12.719625615887788 3.534525032053131 3.789374380954098 0 0 0
17 1 13.228576950694373 0.4541274748240056 0.35042748815968083 0 0 0
20 1 16.012444453048374 3.494055904464693 0.9961698204327332 0 0 0
1538 1 19.059849861763727 2.9549215351489977 3.244652452317375 0 0 0
27 1 3.709058689055548 6.559166540528505 3.741746495359826 0 0 0
8 1 4.898324381044679 4.969241826243586 2.123213378096853 0 0 0
33 1 6.254598371763279 6.715396872566913 0.4658851471732257 0 0 0
35 1 9.800718374953078 6.850491060651881 3.518248011179991 0 0 0
16 1 11.04689471740429 5.016733618767563 2.4279558762218176 0 0 0
41 1 12.84876283382699 6.397217427242515 0.6910346695469753 0 0 0
24 1 17.632207352660892 4.780845640228773 2.0694439635524917 0 0 0
43 1 15.855817133183525 6.1114049089774 3.632148869531048 0 0 0
29 1 1.914143880423587 7.467772663455699 1.4910174833087046 0 0 0
26 1 0.6456778612748426 9.36237808097639 2.7785769999730685 0 0 0
34 1 6.617936890565347 9.804958485119716 3.560762137506085 0 0 0
37 1 8.27677087381316 8.273246790782906 2.0534111455188464 0 0 0
36 1 9.869119295845488 9.803191865267431 0.39486797868906365 0 0 0
45 1 14.423342910423187 8.064854614750365 2.1806470481355977 0 0 0
42 1 13.141828974035338 9.661236987638238 3.387146427375427 0 0 0
44 1 16.00697446521624 9.4240721428325 0.6369946909174757 0 0 0
51 1 3.3440344112550675 13.005383403096618 3.3078750091073394 0 0 0
32 1 4.87392192391253 11.205548139355571 2.102301806791127 0 0 0
57 1 6.769741205918348 12.772420474088237 0.5318740920828731 0 0 0
59 1 10.004857719887173 12.96394096232367 3.3921399751558328 0 0 0
40 1 11.834057889748962 11.227134211976992 1.915479052998203 0 0 0
67 1 15.954231644315737 12.648568208537524 3.759119912515288 0 0 0
48 1 17.612727652078505 10.91225002556637 1.9118156282031564 0 0 0
1585 1 18.979313808662173 12.806872168514927 0.39785794503002725 0 0 0
53 1 2.1147617094033064 14.5998171883124 1.4696413186786015 0 0 0
50 1 0.4714196890431911 16.045700924575776 3.10836291146388 0 0 0
58 1 6.369538644491857 15.999113875251876 3.241241406067256 0 0 0
60 1 9.967203188514672 15.850158496634378 0.4141740260373359 0 0 0
61 1 8.253004160174648 14.35350548309564 1.8750344243800605 0 0 0
69 1 14.345583025743405 14.180411254714716 1.9900560332896675 0 0 0
66 1 13.079012798486595 16.121883340032042 3.4594386817272653 0 0 0
68 1 15.8253646783792 15.701621955734803 0.5106380114277727 0 0 0
75 1 3.4183034704840023 18.934131958572 3.565676989925569 0 0 0
56 1 5.082716554721095 17.46474762010683 1.7256488183876766 0 0 0
81 1 6.797204757886923 19.08596657737821 0.4375798322854223 0 0 0
83 1 9.78547819437439 19.042684419480683 3.63357053501188 0 0 0
64 1 11.321963004820578 17.602070274656366 1.937764835599232 0 0 0
72 1 17.857192260624757 17.31229851751352 1.8968509739937822 0 0 0
91 1 16.469697378937656 18.95988756580272 3.42652655438217 0 0 0
74 1 0.6237506699988807 22.342731243756162 3.7267535487239285 0 0 0
77 1 2.2093145241283096 20.640633284965173 2.1112431092797728 0 0 0
82 1 6.629067722848573 22.554925519788178 3.6069085473077633 0 0 0
85 1 7.985418299900007 20.767655182582253 1.845185218861137 0 0 0
88 1 11.26716445935227 23.72973510695358 1.9680835644802697 0 0 0
84 1 9.929572055567697 21.96825695110199 0.3636760969043575 0 0 0
93 1 14.454498409803463 20.61358032687045 1.526872436589378 0 0 0
90 1 12.911361116655378 22.175939044039186 3.4822024312379836 0 0 0
96 1 17.779285772394093 23.739507603131383 1.6020043113224407 0 0 0
99 1 3.9480642333925995 25.578158402691646 3.796920186697379 0 0 0
101 1 2.24910404365868 26.48735703898348 1.9892987142058907 0 0 0
80 1 5.214451188430822 23.79739342134532 1.8673838337348065 0 0 0
107 1 9.417683829567734 25.15612148446907 3.346298549701853 0 0 0
109 1 8.673991758651031 26.919357283506002 1.7022289820623477 0 0 0
113 1 13.0711000910788 25.409840845473532 0.5511096028290665 0 0 0
117 1 14.650704542041934 27.103472390950124 1.7361765497264785 0 0 0
115 1 16.342901394510548 25.40054095630608 3.41160986582265 0 0 0
98 1 0.5992593004135298 28.312099804683 3.3680596461839847 0 0 0
100 1 3.5253039259666776 28.172238814988443 0.6755615864217175 0 0 0
106 1 6.918539380404181 28.422229705850736 3.571914550423171 0 0 0
104 1 5.219153847791392 29.57872724488285 1.9666642322329355 0 0 0
112 1 11.460275423515276 30.205268693602925 1.7246257031305106 0 0 0
114 1 13.022860893671883 28.49304244459021 3.401548348657042 0 0 0
120 1 17.714344761168764 30.10876287050536 1.7350262737581221 0 0 0
125 1 1.961598614444721 33.47635751590168 1.9723476953381094 0 0 0
123 1 3.54109163926593 31.78263083058615 3.2580574869602543 0 0 0
129 1 6.822962925829475 31.564612169076163 0.5263281799053061 0 0 0
133 1 8.03037510741844 33.56353548815069 1.7130117620372107 0 0 0
131 1 9.614428985753877 32.23237109511575 3.2676344244784237 0 0 0
141 1 14.495863930670291 33.281148991926045 1.8641956318986022 0 0 0
137 1 12.910002143291118 32.03665698542653 0.5059237771536013 0 0 0
139 1 16.33756138411296 31.85168016229526 3.7172722866038885 0 0 0
122 1 0.6430177195689184 35.20867746678141 3.4340918249649075 0 0 0
124 1 3.7578103333036696 34.72072503992497 0.5116796118354472 0 0 0
128 1 4.866695751898581 36.432155413262436 2.048396209725781 0 0 0
130 1 6.567726730535679 35.06713022659507 3.542131748178467 0 0 0
136 1 11.22105720990922 37.038975378548855 1.663512293283216 0 0 0
132 1 9.755797834362243 35.135379754547074 0.34064517797796157 0 0 0
138 1 12.999084795147441 35.31707036969105 3.302628576403394 0 0 0
144 1 17.6966951525675 36.45689203527917 2.1915979709217837 0 0 0
140 1 16.143863988977074 34.57475384145572 0.5896305809981632 0 0 0
149 1 2.2114310438208284 39.95258802238979 1.648029282035507 0 0 0
147 1 3.7411963876064753 38.133225986018644 3.310299944582104 0 0 0
157 1 8.092645615464868 39.51333610012547 2.090943188565981 0 0 0
155 1 9.950450656150135 38.45866740089029 3.4228651163550707 0 0 0
165 1 14.865381443676572 39.8328741069334 1.9692569026662998 0 0 0
161 1 13.175239654750115 38.15765061455514 0.36171868393236173 0 0 0
163 1 15.929075810079315 38.12766691955814 3.691139764470792 0 0 0
1681 1 19.13196453975388 37.87123300366814 0.4157635259308091 0 0 0
152 1 5.079936397622115 42.91560706409659 1.7438373513184502 0 0 0
154 1 6.6110831956088685 41.14126348715317 3.191000903142815 0 0 0
160 1 11.521917277747491 42.61376013067705 1.60944330921903 0 0 0
162 1 13.154448310604536 41.25497499500773 3.73741704847063 0 0 0
168 1 17.63806606124917 42.610024822315566 1.8513911440678368 0 0 0
187 1 15.92827770218303 43.77875777008286 3.6535529254423817 0 0 0
1682 1 19.050157465722172 41.096022722415725 3.675174354597388 0 0 0
173 1 1.8771278196600338 45.6624513978587 1.9779931453283328 0 0 0
171 1 3.588265742329028 44.12023583912652 3.49922920345995 0 0 0
179 1 9.897471437195335 44.185396253746646 3.050687255746673 0 0 0
181 1 8.270742017211706 45.86850753173957 1.538203457444316 0 0 0
189 1 14.779111850728084 45.68870661611547 2.038328782279314 0 0 0
186 1 12.752143561220734 47.025708329773465 3.49027495380324 0 0 0
1705 1 19.13059136075401 44.266817680778885 0.38369133483125495 0 0 0
3 1 3.3146883772093725 50.560051024409844 3.2925015409964544 0 -1 0
172 1 3.5837647466594817 47.60386730811325 0.5362816103116128 0 0 0
178 1 6.752203217211866 47.39514506811767 3.3046172473615116 0 0 0
176 1 5.0674313752853655 49.138179370506975 1.8475307629338606 0 0 0
11 1 9.795970279990177 50.28055434618078 3.458051018780036 0 -1 0
180 1 9.874693561620068 47.45408719410116 0.3801175572785809 0 0 0
184 1 11.78457771900033 49.00020394650301 1.8402433563049574 0 0 0
19 1 16.089632905720393 50.00791476637329 3.0602157412600812 0 -1 0
192 1 17.81380810654231 48.72845610671004 1.496577984769974 0 0 0
196 1 3.409691393583715 3.5983901778883727 6.799347298925029 0 0 0
193 1 0.4876097094691942 0.4443342736461934 6.498836602661093 0 0 0
7 1 5.143770809476295 2.053412242591578 5.307683932068809 0 0 0
15 1 10.890692987219877 2.1766050117130114 5.098738498927897 0 0 0
204 1 9.474408688426937 3.560741977125408 6.796769479679851 0 0 0
209 1 12.847391361718536 0.4232047410743007 6.201882893153424 0 0 0
23 1 17.588725349517425 1.5770122713940673 4.775710194695331 0 0 0
212 1 16.19069832169155 2.9415378679887016 6.786299243508066 0 0 0
6 1 1.9300242407635948 5.040825138792556 5.125688449358702 0 0 0
217 1 0.5296657632479594 6.5454457586988815 6.582584740482758 0 0 0
225 1 6.861653468174128 6.711782544018709 6.719826467836833 0 0 0
14 1 8.21474341268199 5.3068892539691985 4.889149359167992 0 0 0
22 1 14.461549296161994 4.97091806389479 5.387702852442621 0 0 0
233 1 12.739131712033945 6.820859003061989 6.615455993198703 0 0 0
220 1 3.358277695250823 10.002423712033092 6.516451488467726 0 0 0
31 1 5.019857818018725 8.509601722060722 5.26545355155567 0 0 0
228 1 9.69742446292758 9.821362109752188 6.65881145572463 0 0 0
39 1 11.384095228772985 8.382924714453702 4.856984994686386 0 0 0
47 1 17.845615846657253 7.745092707777225 5.116966649037579 0 0 0
236 1 16.567798837331967 9.61112180720665 6.5392319673819514 0 0 0
30 1 1.8116642128717344 11.325817460058454 4.505476015584091 0 0 0
249 1 6.5895130691803905 12.919749468585556 6.7832197662089095 0 0 0
38 1 8.075709432619423 11.40959506922867 5.070012785740689 0 0 0
46 1 14.544399466115737 11.090652217451453 5.3631237317744676 0 0 0
257 1 13.074520534260204 12.462632765116568 6.662829388140181 0 0 0
244 1 3.320964155343265 15.588751071134752 6.618878447327634 0 0 0
55 1 4.717049739975932 14.43252645674301 4.919362302796727 0 0 0
252 1 9.739703848983236 16.114502503336 6.629650949146049 0 0 0
63 1 11.654570034262319 14.283917886337232 5.059490151056614 0 0 0
71 1 17.99646320042544 14.107806103138895 5.246677159428386 0 0 0
260 1 16.35192401046241 15.790121377204626 6.781479848254644 0 0 0
54 1 1.8261624712057156 17.21157214941578 5.032222141823605 0 0 0
273 1 6.216286452734778 19.153326771092892 6.710727748176994 0 0 0
62 1 7.7574090984937305 17.46198149736953 5.006969891782649 0 0 0
70 1 14.898655362332887 17.38664744382546 4.920165573966502 0 0 0
281 1 13.32998058929233 18.990861714345762 6.576775835591495 0 0 0
1801 1 19.19569630282417 18.816212795266367 6.673655805768171 0 0 0
268 1 3.5518838500649506 22.36426174107045 6.5960754916844015 0 0 0
79 1 4.9634727998768335 20.831975371815314 5.104358998400578 0 0 0
87 1 11.40535816213532 20.513860548071246 5.227361198422894 0 0 0
276 1 9.761488580161974 22.037869555200558 6.472057816514758 0 0 0
86 1 8.060076565039012 23.770062930925064 5.341715463403341 0 0 0
94 1 14.719561430946502 23.479432891765565 4.983620863988774 0 0 0
95 1 17.872759807430135 20.66441715345428 4.957187820625079 0 0 0
284 1 16.464515103240277 22.07706858495733 6.51578199408283 0 0 0
289 1 0.42242779643488404 25.446841715574124 6.387929689681675 0 0 0
78 1 2.3536600718909284 23.986417793999486 4.96821303439813 0 0 0
297 1 6.7766579578433985 25.749144678193684 6.784773731140895 0 0 0
103 1 5.414057473406175 27.04029702606616 5.133173242231204 0 0 0
111 1 11.266510082972056 26.79457421408403 4.840809974582933 0 0 0
305 1 12.916451810734126 25.2256151027665 6.557430371153757 0 0 0
119 1 17.70565413105648 27.102762676503893 4.935887594192393 0 0 0
1825 1 19.060498146209554 25.392535889607654 6.542615994338738 0 0 0
292 1 3.548748016741415 28.510969576073542 6.282159681680098 0 0 0
102 1 1.9173389397105172 30.11682841689568 4.834218355728006 0 0 0
110 1 8.282709341439745 30.314097550157545 4.695721622765794 0 0 0
300 1 9.713942262840082 28.82869948527901 6.227475737477562 0 0 0
118 1 14.636005679669736 30.112574268835143 4.806115276187381 0 0 0
308 1 16.127027825963957 28.677224817181475 6.230002325810692 0 0 0
321 1 6.743323279806042 32.05307730788718 6.391005378809662 0 0 0
127 1 5.002939547210084 33.71429192071476 4.6857649635018115 0 0 0
135 1 11.533368104976471 33.293258684425766 4.779155314054267 0 0 0
329 1 13.033331786665965 31.655809820856767 6.5236401800069315 0 0 0
143 1 17.89458288438857 32.95218910553362 5.135609533728309 0 0 0
316 1 3.368753783136337 35.01840847672415 6.710906212675806 0 0 0
126 1 2.1543944784690012 36.842189108873356 4.990500606310777 0 0 0
134 1 8.305100742473918 36.79062392071806 4.9257753519122875 0 0 0
324 1 9.8422604153063 34.96094335606945 6.277351761120882 0 0 0
142 1 14.36684431324228 36.47096118383038 5.178011602933087 0 0 0
332 1 15.94900198663467 34.738024501785475 6.37456239980955 0 0 0
337 1 0.7196757052093727 38.38420664653334 6.475213891023432 0 0 0
151 1 4.892273587050297 40.01348842928587 4.916106899565166 0 0 0
345 1 6.661715909036133 38.28350340616713 6.4767605179866905 0 0 0
159 1 11.382987529357678 39.81619366458274 5.27786279669302 0 0 0
353 1 12.64159431515512 37.73577887400009 6.680728014453591 0 0 0
167 1 17.850319900904754 39.46938650470767 5.479376636235559 0 0 0
340 1 3.451254585886114 41.666968918253474 6.613853175743596 0 0 0
150 1 1.5518703520607464 42.845038898665834 4.817918348499868 0 0 0
158 1 8.246268394383051 42.60386501769847 4.769971708422247 0 0 0
348 1 9.94235277498915 41.3995277558746 6.792463144276745 0 0 0
166 1 14.441778504450033 42.690447621454425 5.595185402976108 0 0 0
356 1 16.136240649600364 41.09506721428697 6.970951740857407 0 0 0
369 1 6.912174796279917 44.59729695412871 6.563852815391988 0 0 0
175 1 5.075121723756502 46.1011928060973 4.658848894499935 0 0 0
183 1 11.10023740610795 45.37974895119879 5.188287572268179 0 0 0
377 1 12.804504706811112 44.5223330314911 6.741982469654297 0 0 0
191 1 17.184092181587104 45.67259196067516 4.968972583990693 0 0 0
1897 1 19.009181281619536 44.23910195875233 6.598352952832952 0 0 0
364 1 3.5775858268187575 47.2863647902453 6.4550557004402185 0 0 0
174 1 1.840183127243148 48.751209929158904 4.956887423804261 0 0 0
201 1 6.72082925165146 50.44710593596521 6.593287042386747 0 -1 0
372 1 9.676805341453885 47.35714422147457 6.648718961745627 0 0 0
182 1 8.472634654180187 48.73396928137397 4.970232991607091 0 0 0
190 1 14.571009571191096 48.62056097564019 4.892487357051947 0 0 0
380 1 15.912997785825555 47.31775884551028 6.649282713141311 0 0 0
197 1 1.9963917758793792 1.841116325750674 8.256395716523418 0 0 0
202 1 6.738393672519712 3.3498025130231084 9.86885409370347 0 0 0
205 1 8.271653801242543 1.6753054415762056 8.163085063455739 0 0 0
213 1 14.116244186371908 1.6743210828702266 8.229525367121298 0 0 0
210 1 12.857672709467305 3.468358109002338 9.83429353570005 0 0 0
211 1 16.2202059624191 0.34410206746687627 9.945431452354738 0 0 0
219 1 3.5171762318245645 6.377252952974196 9.720491413520325 0 0 0
200 1 4.977881816442043 4.985785116045096 8.260735505885135 0 0 0
227 1 9.749075165814844 6.588948067213465 9.871782576836882 0 0 0
208 1 11.119650247243618 5.130902989128916 8.491511203846372 0 0 0
216 1 17.68440016213402 4.736907657387833 8.085562712620234 0 0 0
235 1 16.217873909340767 6.504409692188494 9.783978077854076 0 0 0
221 1 2.048306171724742 8.060090723098476 8.275970730446375 0 0 0
218 1 0.4927863817718163 9.491024478035953 10.31702622600273 0 0 0
226 1 6.861773920120925 9.489607765196263 10.15393905547785 0 0 0
229 1 8.42753843320749 8.140701370483539 8.382266722923877 0 0 0
231 1 11.48529346060374 8.046428776668659 11.091979845722358 0 0 0
237 1 14.983393850883385 7.948202045759737 8.116108831274824 0 0 0
234 1 13.203696364655151 9.086912752924576 9.445988524687476 0 0 0
243 1 3.2304314771252898 12.748213232993557 9.746810924601974 0 0 0
224 1 4.814186358759563 11.361266670576997 8.58638555222349 0 0 0
251 1 9.983890252818307 12.683045382121326 9.607026142048014 0 0 0
232 1 11.675901106432292 10.96601883680146 8.192105964718177 0 0 0
238 1 14.792526642481185 10.856765400412646 11.024504383290726 0 0 0
240 1 18.072991929184063 11.195730166628445 8.250134954825016 0 0 0
259 1 16.247689720024525 12.524505059616619 9.55051469935423 0 0 0
245 1 1.7687005349660934 14.054377953336529 8.041645911469885 0 0 0
250 1 6.321375295803096 16.20663687464188 9.612910026767924 0 0 0
253 1 8.211703625489214 14.481563625331521 8.318812086076937 0 0 0
261 1 14.668800092025212 14.415785516986396 8.23773017875141 0 0 0
258 1 13.163250486778288 15.93295295819761 9.965597249612534 0 0 0
1778 1 19.211916973598356 15.532408743628888 9.852494512858447 0 0 0
264 1 17.6242950542731 16.93247527204266 8.679115781746187 0 0 0
267 1 3.22833630249774 19.365883932085552 9.656087538857612 0 0 0
248 1 4.6222336214791335 17.80667404124721 8.147857743414127 0 0 0
275 1 9.670369795803623 18.846583871666745 9.851669104015018 0 0 0
256 1 11.599487707116419 17.524091955881026 8.051857143591514 0 0 0
277 1 8.195224959127579 20.428551234797744 7.940115960735387 0 0 0
283 1 16.26498753612757 18.88089061234146 9.883877823192542 0 0 0
266 1 0.4036083318718653 22.150576292144127 9.797985328264886 0 0 0
269 1 1.632269069769889 20.806647100735606 7.921272032116754 0 0 0
274 1 6.35814837986978 22.087394999382024 9.678663993663505 0 0 0
280 1 11.172789743966797 23.438551270519522 8.001474231817928 0 0 0
285 1 15.009833112267712 20.493564668507304 8.456276965364458 0 0 0
282 1 13.069015487778245 21.699401757122157 9.595704537844096 0 0 0
286 1 14.482067311544318 23.46101101492911 10.984604636843724 0 0 0
1802 1 19.092584857679174 22.03930255137828 9.588609128175655 0 0 0
291 1 3.3417569787413886 25.351886460424414 9.628991694919653 0 0 0
293 1 2.0212655700391586 26.866097628903134 8.212349538340867 0 0 0
272 1 5.010759700229088 24.001795122253963 8.109293160460268 0 0 0
278 1 7.908862211879011 23.860258803222877 11.093221365267103 0 0 0
295 1 4.865296562854266 26.89152196000437 11.076649703168066 0 0 0
299 1 9.706533105915128 25.352309028198484 9.659083350112272 0 0 0
303 1 11.56038939135072 26.769063883564062 10.524079146211614 0 0 0
288 1 17.577133688482647 24.069668482403145 8.281439512037469 0 0 0
307 1 15.480803025214511 25.585497439119266 9.266954140109704 0 0 0
311 1 17.46143210713655 27.035749381754222 10.941841270147675 0 0 0
290 1 0.5319212291229463 28.751037183885444 9.739806458284505 0 0 0
298 1 6.189347738642184 28.715143934345214 9.532014863686875 0 0 0
296 1 4.913650511982846 30.418356634379993 7.719313699961283 0 0 0
301 1 8.495688188658299 27.428671322162515 8.26500209487827 0 0 0
304 1 11.455063440815522 30.034321058056197 7.9454172139218 0 0 0
309 1 14.429384075856431 27.213657236604785 7.797383480543724 0 0 0
306 1 13.164448366893408 28.66059483461853 9.354043729188286 0 0 0
312 1 17.467114299594577 30.05930289052064 8.033764284995433 0 0 0
1826 1 18.957526251466994 28.598708643186757 9.436031198540432 0 0 0
317 1 2.0829999542238538 33.36298905700649 8.391107795448892 0 0 0
315 1 3.3458108422884605 31.568615573344278 10.05359673284084 0 0 0
323 1 10.0950506430946 31.508893308897715 9.440468912780888 0 0 0
325 1 8.24085957592256 33.46744748174795 8.130247621261605 0 0 0
333 1 14.457135790113528 33.22731135042093 7.954053795075851 0 0 0
331 1 15.97318648077253 31.80639549962642 9.696310258532378 0 0 0
314 1 0.5903127270503858 35.07292063120789 9.77287685855784 0 0 0
322 1 6.792155676624211 34.78393915667729 9.87039065195721 0 0 0
320 1 5.017205293757944 36.52486871559421 8.319935923328092 0 0 0
328 1 11.384946385072796 36.27577998164692 8.27232558566651 0 0 0
330 1 12.964968547544517 34.84724391082787 9.963376467764508 0 0 0
336 1 17.680211150100018 36.204133205184206 7.9891245895486405 0 0 0
1850 1 19.13329817408183 34.68783373435225 9.91651145699556 0 0 0
341 1 2.158895257588959 39.90995148009739 8.322955392056004 0 0 0
339 1 3.3990205137296834 37.92370523624591 9.769484378682497 0 0 0
349 1 8.19050808492851 39.82043690673326 8.222186259592203 0 0 0
347 1 9.386328852365365 38.26547216547513 9.981345324518557 0 0 0
357 1 14.57566148638717 39.268871472331654 8.178548448745115 0 0 0
355 1 16.18393986384085 37.7887233627595 10.066861926892749 0 0 0
346 1 6.528076026967692 41.60548702395799 9.672147926015294 0 0 0
344 1 5.00732604890616 43.27793967792786 8.08067758751685 0 0 0
352 1 11.622987107849204 42.87739163291566 8.580655889260848 0 0 0
354 1 13.066677031062431 40.59361292356229 9.959628264835242 0 0 0
358 1 14.484313325178244 42.600063859525264 11.012233381545544 0 0 0
360 1 17.489019403621732 43.14423445245595 8.259564807639201 0 0 0
1874 1 18.984864131979634 41.375278135171996 9.817141756351813 0 0 0
363 1 3.303631731536098 44.560418605997754 9.870024833245555 0 0 0
365 1 1.9120638220755586 45.765368704643265 8.020719572334597 0 0 0
373 1 8.517140449248513 45.999423944023604 8.563643330775477 0 0 0
371 1 10.264441286351353 44.41682266829362 10.26133000645681 0 0 0
381 1 14.188609055227875 45.91652883683527 8.48806883653112 0 0 0
379 1 15.984136742593694 44.63311350328044 9.993571013984477 0 0 0
362 1 0.37922585372780226 47.33190219763944 9.744150118931815 0 0 0
195 1 3.6429124255866943 50.44938501918362 9.940855986827161 0 -1 0
370 1 6.478737472688032 47.35005704034599 9.697325378175185 0 0 0
368 1 5.054507331320155 49.088689781677616 8.23680380757957 0 0 0
203 1 9.66624064141926 50.507458758092284 9.824307917286484 0 -1 0
376 1 11.338103448061533 49.068869125822985 8.056372098262939 0 0 0
378 1 12.565567849279525 47.662010614292086 9.973343773559831 0 0 0
384 1 17.805920918524887 48.93237796566977 8.161895174563718 0 0 0
389 1 2.051200116408198 1.6580373490639975 14.621694568594009 0 0 0
388 1 3.19508162451662 3.402963190852017 12.752259472110334 0 0 0
199 1 5.090456192494804 1.9509870657174981 11.485355112677114 0 0 0
207 1 11.473191755953327 1.8424048838313158 11.523447801152743 0 0 0
397 1 8.576874018253967 1.850656567855886 14.298737446494188 0 0 0
396 1 9.734347027732198 3.676828684630717 12.754411331807681 0 0 0
405 1 14.350577509528021 1.768263526909618 14.626936681953355 0 0 0
215 1 17.68999209440085 1.9187287583211987 11.571824690320748 0 0 0
404 1 16.076178737291286 3.5052373950093174 13.134699185975283 0 0 0
198 1 1.8491013038698083 5.0944411310946585 11.49473352781916 0 0 0
417 1 6.544504798917707 6.344543951562366 13.054847618142498 0 0 0
206 1 8.239311546928207 4.987242994795596 11.117131526856092 0 0 0
400 1 11.262667661979771 5.205328406664579 14.170035099921588 0 0 0
214 1 14.544714890901286 4.771378998848254 11.286667996277261 0 0 0
425 1 12.990692899775592 6.541191561483901 12.790885258409471 0 0 0
408 1 17.574830683194516 5.25969929848276 14.665343175955682 0 0 0
412 1 3.1154223992617016 9.714486744041745 13.16171796558463 0 0 0
223 1 5.08978238292825 8.200765665865983 11.77833645115621 0 0 0
420 1 9.901595875451058 9.559261263333921 13.026308830220568 0 0 0
421 1 8.262625864564336 8.13395927582788 14.381427074565915 0 0 0
429 1 14.643549681705574 8.305810098938187 14.170456950379354 0 0 0
239 1 18.018527626635773 7.903320726462121 11.227611673263157 0 0 0
428 1 16.527011815785425 9.59217313462367 12.748822197975635 0 0 0
222 1 1.5650706116963558 11.580565316774573 11.576121419931564 0 0 0
441 1 6.62039416147746 12.875678784968205 12.701574501748293 0 0 0
416 1 5.486673468911532 10.816117815363645 14.168595715594366 0 0 0
230 1 8.47090471847545 11.233956370761632 11.59675185647527 0 0 0
424 1 11.379768304350987 11.52368752235334 14.081412026377 0 0 0
449 1 13.47431458484217 12.917211067384024 12.545021531336104 0 0 0
432 1 18.060392630581145 11.155697149024551 14.169549123411182 0 0 0
436 1 3.0379624143146433 16.188825522463702 12.682266866520772 0 0 0
437 1 2.1829607939896016 14.547295145021886 14.41130226735794 0 0 0
247 1 4.8712929024301115 14.461914056531842 11.438361680544116 0 0 0
445 1 8.236252286109229 14.352248313476615 14.577920737609553 0 0 0
255 1 11.39934997349307 14.155108153414 11.245272930607939 0 0 0
444 1 9.62521541968694 15.965638425441819 12.781446630379788 0 0 0
453 1 14.475359062810911 14.507794780534253 14.364662897119151 0 0 0
263 1 17.903919025608804 13.892833819407885 11.451262269217565 0 0 0
452 1 16.41468392220195 15.98746856217609 12.856016273969566 0 0 0
246 1 1.612877890810847 17.904307525317822 11.17268074277194 0 0 0
465 1 6.661669059275565 19.02386271761247 12.9439848189913 0 0 0
440 1 5.194901501132975 17.597929805291027 14.238879725421569 0 0 0
254 1 8.164018284357773 17.47177520358028 11.317505402072925 0 0 0
448 1 11.18925150748451 17.478192561190497 14.584372454899414 0 0 0
262 1 14.295199918154701 17.65196233610766 11.538068234557713 0 0 0
473 1 12.556466072514679 19.274842529150238 13.041424365951404 0 0 0
456 1 17.859070358206917 17.47714044186138 14.566910421883064 0 0 0
461 1 1.5771428388607494 20.91164386099164 14.074948012079108 0 0 0
460 1 3.3033654583330123 22.408699255676538 12.712948162464237 0 0 0
271 1 4.891101862200486 20.48571182315678 11.561735149090905 0 0 0
279 1 11.123505393548147 20.655529887993914 11.109226166158875 0 0 0
468 1 9.501207226973968 22.2136617050355 12.897342665397332 0 0 0
469 1 8.06666201872397 20.62932113512526 14.577514596688186 0 0 0
477 1 13.922861003858326 20.887013375751348 14.64896854685609 0 0 0
287 1 17.505592027700118 20.7869052446883 11.520148877952106 0 0 0
476 1 15.680103617530168 22.125748486368476 12.957833398121645 0 0 0
481 1 0.4532761559093501 25.538211150681303 13.02587823759049 0 0 0
270 1 1.849180660163912 23.81469511165077 11.405435513378858 0 0 0
485 1 2.328800504612754 26.92634041357222 14.6208517837005 0 0 0
464 1 4.821537420147907 23.91027782570392 14.17873494867174 0 0 0
489 1 6.343620034690128 25.432035662987158 12.646313127177443 0 0 0
472 1 11.25325663917085 23.884874007646957 14.249822448828024 0 0 0
493 1 8.057878335346857 26.796886692107947 14.177487750244229 0 0 0
497 1 12.747471004292287 25.41402843043841 12.457321569015742 0 0 0
501 1 14.639241911228403 26.85601979678463 14.19383881162089 0 0 0
480 1 17.38973797157551 23.869466475048014 14.358065469419452 0 0 0
2017 1 19.162204846419865 25.353777443889573 12.47490366126294 0 0 0
294 1 1.9794089623297515 30.1443371798346 11.564817326496339 0 0 0
484 1 3.5798003603137354 28.319695876881 12.71303346123566 0 0 0
302 1 7.836275114941811 30.053466343015575 11.14318753134856 0 0 0
488 1 5.031935748357077 29.973230917689808 14.258882200282793 0 0 0
492 1 9.547027649552177 28.504225640527096 12.496861984895222 0 0 0
496 1 11.031048281949719 30.153651548825962 13.81805277784906 0 0 0
310 1 14.477989228118723 29.994929691255972 11.389389227401558 0 0 0
500 1 16.455117894573622 28.71177218177943 12.545419154863442 0 0 0
504 1 17.346574619726514 30.183679967776776 14.525663034716596 0 0 0
505 1 0.3921561922970972 31.692837099865976 12.908067257671595 0 0 0
319 1 5.1095037595809645 33.31830642250486 11.534706610488671 0 0 0
513 1 6.6455294646829985 31.683784710796445 12.775858055785582 0 0 0
517 1 8.19639345109083 33.46382741149887 14.17352523836467 0 0 0
327 1 11.437325852817269 33.1785751811003 11.202285969132214 0 0 0
521 1 13.002612432882271 31.719157507284002 12.992182551323145 0 0 0
335 1 17.377296804099004 33.21592961466375 11.541512227704061 0 0 0
2041 1 19.013048482810735 31.657738077984515 13.075591547620766 0 0 0
318 1 2.042363679338064 36.4412297230581 11.427626556806677 0 0 0
508 1 3.4631293286514855 34.950181632388905 13.243706995374119 0 0 0
512 1 5.125561401499384 36.784536161871486 14.315594906723101 0 0 0
326 1 7.950777226544107 36.81501920295405 11.358833453710249 0 0 0
516 1 9.808149286828606 35.073356797698736 12.703356525620835 0 0 0
525 1 14.188139477074534 33.974556449126794 14.32518304096216 0 0 0
334 1 14.53579959813493 36.56100808623772 11.65045716425193 0 0 0
524 1 16.107413723130996 35.180586053208884 12.93933843364172 0 0 0
528 1 17.442538247729438 36.41398134350335 14.670197187789105 0 0 0
529 1 0.3938825014820466 37.719251312192384 13.132372965718515 0 0 0
533 1 1.6218018030149737 39.3690685994583 14.645912089389244 0 0 0
343 1 4.8739259723925255 39.70000618596096 11.19131591997594 0 0 0
537 1 6.439067270332319 38.39905695533861 12.828542583170195 0 0 0
351 1 11.247447820696635 39.38749015705102 11.440002607154039 0 0 0
541 1 8.118382993469622 39.80557979523415 14.600527172334434 0 0 0
545 1 12.835954546196994 37.94209077458527 13.403418018768251 0 0 0
359 1 17.513188347007 39.72078654958621 11.423090566252293 0 0 0
2065 1 19.06297412497098 37.94949733849806 12.90202954573733 0 0 0
342 1 1.8844355050262604 42.66738135854871 11.387133354743515 0 0 0
532 1 3.1932492510039396 40.997825009462204 12.972226882317148 0 0 0
536 1 4.750719724193414 42.37558850120256 14.525335567900564 0 0 0
350 1 8.223712079059588 42.79477732075833 11.500706352117861 0 0 0
540 1 9.618124715893515 41.096335542722215 12.867622916768584 0 0 0
544 1 11.272344186634385 42.77577461485873 14.39258282023694 0 0 0
548 1 15.707340742704627 41.05923403025258 12.986394210162771 0 0 0
552 1 17.22582573850151 42.65389619292765 14.615274426550396 0 0 0
556 1 3.2430100941144846 47.14532242569048 13.112305737111903 0 0 0
557 1 1.6622068217143122 45.438789170016506 14.560436048537458 0 0 0
367 1 4.877202197383429 45.75478483449662 11.514670442302252 0 0 0
561 1 6.230381701835403 44.384321180063935 12.909050509358933 0 0 0
565 1 8.013000388739716 45.96186882197959 14.478156714475901 0 0 0
375 1 11.723433868006566 45.98239406542139 11.77400568548153 0 0 0
569 1 13.344496168791967 44.21623481512782 12.744244779786396 0 0 0
573 1 14.878392348787923 45.800651694449584 14.284534115377049 0 0 0
383 1 17.54911689737937 46.083003677087675 11.63308457061311 0 0 0
2089 1 18.76712336347069 44.29896314118554 13.032998581936011 0 0 0
385 1 0.5624934636367063 50.45986069246108 12.97880368637225 0 -1 0