LAMMPS data file via write_data, version 29 Oct 2020, timestep = 100000

8498 atoms
1 atom types

0.30765201853532886 104.40672082734241 xlo xhi
-0.4165722163094685 50.65914266579209 ylo yhi
-0.4165722163094685 50.65914266579209 zlo zhi

Masses

1 18.015

Atoms # atomic

310 1 1.820792948852029 1.908488988882029 1.4431881746918098 0 1 0
6048 1 0.6945568334560619 0.47054219015329546 -0.008830829594908718 1 0 0
311 1 8.434275585053093 2.142842100729336 1.9868028898411119 0 1 0
204 1 6.827267358389985 0.7389306815510088 -0.015532676579934734 0 1 0
207 1 12.727096194553843 0.6638713554172724 0.16282367596017144 0 1 0
313 1 14.112962035577748 2.05984149634935 1.9111322150513574 0 1 0
209 1 18.93966920573156 0.38027982615508216 0.019011367765441933 0 1 0
1015 1 20.754794258412232 1.99271017079078 1.5284822103408648 0 1 0
928 1 25.45765883390019 0.18821853103448094 0.397403917491553 0 1 0
1016 1 26.859404789063042 2.022270352904215 1.9242068333536486 0 1 0
926 1 31.256117196363142 -0.22570275412296306 0.4676919863725565 0 1 0
1018 1 32.69717777484907 1.7236326592197826 1.8149794908089012 0 1 0
318 1 4.9672357165459555 5.236039519794963 1.6595474114449162 0 1 0
210 1 3.488434594864915 3.4314207835671247 -0.12446825313986376 0 1 0
213 1 9.595416335012397 3.502290292863763 0.06944147542572127 0 1 0
320 1 11.258828707308547 5.216193639008834 1.478886074121529 0 1 0
216 1 15.839545324703327 3.4628547927551803 0.07000594428367873 0 1 0
322 1 17.734877502722803 5.079528772176015 1.584543445297136 0 1 0
934 1 22.201442676494747 3.524381741634653 -0.08314973111654794 0 1 0
1022 1 23.791050069617114 5.285417097269572 1.504882945756121 0 1 0
930 1 28.47703342643906 3.282880139362353 0.06944235408890309 0 1 0
1024 1 29.836882350237882 5.2407592200986395 1.4568336975467269 0 1 0
932 1 34.69196265247259 3.2143709077912987 0.2927069220239549 0 1 0
123 1 0.3945259921551643 7.605491225772045 -0.08063163276715368 0 0 0
217 1 1.905228223370072 9.004050904874685 1.679164254201591 0 0 0
212 1 6.635678296166508 6.596184474383208 0.013939010142643982 0 0 0
219 1 8.188476516299401 8.838029000016169 1.5857348485111742 0 0 0
127 1 12.770037429541036 7.584334802513679 -0.3779632630302546 0 0 0
220 1 14.040505070933111 8.837043388556864 1.6522597080175991 0 0 0
933 1 19.1880580987564 6.644544900876215 -0.2579260429447042 0 0 0
945 1 27.066587854983105 9.003035194805056 0.9373323210450921 0 0 0
938 1 32.10288060326722 6.718567848142574 -0.12449750954614242 0 0 0
946 1 33.12511156565423 8.99156185241625 1.740862508922842 0 0 0
122 1 3.3203264892985094 10.763561167079839 0.22026151108660963 0 0 0
224 1 4.890512683530558 12.152721785642093 1.6835095666381803 0 0 0
126 1 9.392762100099088 10.725865053002167 0.21768041115728776 0 0 0
226 1 11.04009749009706 12.29802434426765 1.9145789633258898 0 0 0
129 1 16.11759927860554 10.105872908294574 0.2071968499476965 0 0 0
227 1 17.613202091870154 11.903527590891349 1.5081138381721755 0 0 0
941 1 20.62491737765939 9.222830079149443 1.3467598017929512 0 0 0
943 1 25.465200849327548 10.666341712964496 2.5294901539290184 0 0 0
862 1 23.933203218223618 11.98184175008491 0.812312849524653 0 0 0
858 1 28.79594885680507 10.56314744745161 0.04246340054881792 0 0 0
950 1 30.09839052213653 12.05743592451452 2.0422624107005265 0 0 0
131 1 0.43663556894171596 13.714367344169288 0.003223087860296958 0 0 0
229 1 1.9572086885290487 15.230939934842528 1.6987641804416524 0 0 0
132 1 6.776681733870768 13.880915819466141 0.14063947711081004 0 0 0
232 1 8.344559536216275 15.31165317207881 1.8051954514521316 0 0 0
135 1 12.661640002258464 13.990131095627234 0.03613617446802464 0 0 0
234 1 14.908758321113583 15.118908861391583 1.5386988316137202 0 0 0
953 1 20.845590520700515 15.077709778825913 1.5377839436715055 0 0 0
859 1 19.290675212289432 13.404940093739693 -0.15332949878462504 0 0 0
955 1 26.707692284511083 15.328753202263528 1.468611481907615 0 0 0
865 1 31.484398441920828 13.46887973546048 0.07926741481499477 0 0 0
956 1 33.01837681547387 15.31515873587145 1.8107711433714972 0 0 0
136 1 3.2688473588688587 17.175744850986845 -0.06299432921769405 0 0 0
237 1 4.726608897379816 18.536317153007698 2.0095740543779455 0 0 0
138 1 9.61606169759267 16.994452819061845 0.07954681370490185 0 0 0
239 1 11.597056266848531 18.14056630359106 1.6147926834797999 0 0 0
141 1 16.49517971454224 16.78394495234154 -0.0401848585291375 0 0 0
241 1 18.00228840366072 18.37056997756716 1.6728955246915107 0 0 0
959 1 23.764523226309013 18.06774725946618 1.1479934069036875 0 0 0
866 1 22.46898113097355 16.340253960406258 -0.34445356446461795 0 0 0
962 1 30.334863131981027 18.698384383366044 0.9349321923750848 0 0 0
868 1 28.879030300258627 17.097882839895895 -0.3160657117577011 0 0 0
870 1 34.65020869069686 16.600659299746603 -0.09623333369125936 0 0 0
243 1 1.6772472091907247 21.232855847594557 1.4641411459168292 0 0 0
143 1 6.504194992997604 20.09678336789528 0.2041134535225818 0 0 0
245 1 8.128450044425296 21.660585181202606 1.7416600585037254 0 0 0
146 1 12.997455660027743 19.639084910821587 0.08356985957831786 0 0 0
246 1 14.593764191733497 21.594723359768466 1.660474961573315 0 0 0
964 1 20.817967767693435 21.02910120077094 1.6065151061325387 0 0 0
871 1 19.51484801421083 19.50706341918232 -0.051420192235492046 0 0 0
873 1 25.467379653796268 20.06774055432018 0.03532289925507198 0 0 0
966 1 27.209274256443365 21.83171170021761 1.8544160843758757 0 0 0
876 1 31.70735281208595 20.24530201368456 -0.34335080770600584 0 0 0
969 1 33.422134759574014 21.360389005505628 1.5111725712588937 0 0 0
147 1 3.2314863315557667 22.769181698875066 0.039562984210937846 0 0 0
251 1 4.5344118697550915 24.98992732821709 1.5704881492842342 0 0 0
149 1 9.658394890882045 23.295602233272685 0.05034919575152802 0 0 0
253 1 11.520545619345567 24.706985612268312 1.474365373453903 0 0 0
249 1 17.55302049071329 24.114616002239536 2.102422297845836 0 0 0
152 1 16.279030152670806 22.970808280639243 0.20237132124861668 0 0 0
877 1 22.216486939491496 22.747955456419955 0.11420357344742516 0 0 0
972 1 23.45908412062152 24.519454354471456 1.5830885616474488 0 0 0
879 1 28.537381737427243 23.476225732488057 -0.01782030717688743 0 0 0
974 1 30.14638926228912 24.643418665203754 1.70858035740538 0 0 0
257 1 1.5406421132868897 27.99371832988196 1.3436140716866012 0 0 0
154 1 6.13049338640628 26.33829388753801 0.13152917788380503 0 0 0
254 1 8.111950406344548 27.615141276903813 1.362481982196348 0 0 0
260 1 14.93523123065681 27.680237450534214 1.8792998836799053 0 0 0
157 1 13.253240828551698 26.175622068204465 -0.002593209784696515 0 0 0
158 1 19.12642159692366 26.00075088063721 0.09441005554232018 0 0 0
971 1 20.400877556210514 27.403233188043494 1.4982970782601934 0 0 0
882 1 25.070798562405276 26.54949962248277 0.13336497491234378 0 0 0
979 1 26.745238945007006 27.935124282041482 1.7829911973363872 0 0 0
885 1 31.773636278879675 26.546765853755815 -0.08548356806605145 0 0 0
981 1 33.552370790406904 27.893882584785928 1.5284715705181684 0 0 0
159 1 3.462699908263728 29.553315282226123 0.01673100818736878 0 0 0
266 1 4.92343240964628 31.192932684711018 1.5318744867773022 0 0 0
162 1 9.680207346590981 29.2265077104621 -0.10744449917053239 0 0 0
259 1 11.093304615269666 30.628972015719064 1.4239183414244396 0 0 0
166 1 16.391764535495952 29.265756627211456 -0.06366467564127104 0 0 0
271 1 17.505799104594796 31.260892424489715 1.7042399219275097 0 0 0
886 1 21.988210505971413 29.50104877958563 0.2963457484476739 0 0 0
985 1 23.86449673193468 31.245882653896174 1.5093501197650656 0 0 0
888 1 28.231207513755265 29.58401856167597 -0.04993641986824615 0 0 0
982 1 31.642472537959563 29.445963868290644 2.6434693553484516 0 0 0
986 1 30.024886841416663 31.20693159388276 1.27431325109539 0 0 0
265 1 1.9301336733833105 34.06088047120697 1.6350620202623345 0 0 0
167 1 0.32926112478573005 32.63981832932172 -0.1916796924065264 0 0 0
169 1 6.691578053253569 32.94250602047154 0.20566939612050394 0 0 0
277 1 8.412796023054522 34.624170128839054 1.6877815855414422 0 0 0
172 1 12.839185768945965 32.41831017051726 -0.02196329439635275 0 0 0
272 1 15.406800527617447 32.77865051429503 2.691008773882314 0 0 0
279 1 14.354043480660453 34.40888240370844 1.2195678522559015 0 0 0
174 1 18.991051379182693 32.58544339056839 -0.03679652486027246 0 0 0
984 1 20.53771649915777 34.19101559565639 1.5619660159088724 0 0 0
891 1 25.241627453088938 32.71230699683692 -0.0007169119935729884 0 0 0
988 1 26.851925642447338 33.989712679422404 1.8050760326861668 0 0 0
989 1 33.716345756791135 34.314799373177394 1.719454683614058 0 0 0
894 1 32.2220315576628 32.93649329691178 -0.12581246979041888 0 0 0
175 1 3.459560084094109 35.707845779171365 -0.2975843095399934 0 0 0
276 1 4.82619963453509 37.61766029044301 1.141398715474268 0 0 0
178 1 9.632600519028173 36.025980050145826 -0.35233784774646887 0 0 0
278 1 11.375937550228487 37.233135967854956 1.3677899820679646 0 0 0
180 1 16.0538477520602 35.874312606476266 -0.3498080439299198 0 0 0
281 1 17.395639698561375 37.25814959366924 1.4562494888211703 0 0 0
895 1 22.26833563326785 35.80246042205009 0.04191019696518122 0 0 0
993 1 23.453848235285122 37.675388683922854 1.8440137951008166 0 0 0
899 1 28.511329588727495 36.00201591146069 0.5937124268566865 0 0 0
994 1 30.074748160775357 37.43659433404519 1.995955690576141 0 0 0
902 1 34.94584475020269 36.259574593674394 0.5166446897085148 0 0 0
283 1 1.9919466243766124 40.56604022549353 1.8140477756441689 0 0 0
7426 1 0.41866400446861696 38.889584948611706 0.1508666733810451 1 0 1
286 1 8.157643100436717 40.6706315901702 1.5528556154558948 0 0 0
181 1 6.658200951544298 39.25446140563274 -0.18860008897575353 0 0 0
184 1 12.95621449321006 38.856688332631265 -0.05579648892859018 0 0 0
287 1 14.381830513380685 40.43018984747903 1.376437554643849 0 0 0
903 1 19.265890605254814 38.57689229540468 0.23841873896626364 0 0 0
997 1 20.76435311642641 40.63372035034916 1.4782908194039577 0 0 0
904 1 25.551622579022887 39.076363814156245 0.4856122140845375 0 0 0
999 1 26.935570344739183 40.70737014837783 2.0884230786804863 0 0 0
907 1 31.43115867973411 38.795735577607246 0.3077754717131753 0 0 0
1000 1 33.1946049213271 40.430289894799245 1.695073624503335 0 0 0
186 1 3.2793367792401265 42.22356642933664 0.13170786950945057 0 0 0
291 1 4.929886206216681 43.73194387811729 1.7427853260162398 0 0 0
189 1 9.76108197672366 42.16602817519067 -0.30239834894421597 0 0 0
292 1 11.30573125939607 43.482538139195775 1.6951143966370164 0 0 0
191 1 15.875595346576251 41.94282562126077 -0.20506399427607436 0 0 0
294 1 17.609007748652953 43.41080018083103 1.4115529822738622 0 0 0
1001 1 23.522780375559005 43.680588320277245 1.7178514783384462 0 0 0
909 1 22.53583971065709 42.130823329433795 -0.09785137680260836 0 0 0
911 1 28.480471705769784 42.037325913020815 0.10231562944053618 0 0 0
1003 1 29.890797160270147 43.60039162203229 1.6649476689404086 0 0 0
913 1 34.70050113394967 42.08192014666445 0.19504190587469883 0 0 0
296 1 2.0679385165689324 47.12133469805478 1.7458086374956143 0 0 0
192 1 0.6268873287316951 45.59364811187368 -0.10428440805850175 0 0 0
194 1 6.5764897224342285 45.492816710640966 -0.10273581276229493 0 0 0
298 1 8.107227529173258 47.031706203180704 1.6449112603063374 0 0 0
196 1 12.563978473551101 44.944395112017475 0.1014912647369084 0 0 0
300 1 14.500507052427153 46.47943881416794 1.6012179134130986 0 0 0
1005 1 20.586174991245127 46.72802607368108 1.4517898899429789 0 0 0
914 1 19.498625221430718 44.78947393873587 -0.011344622817198835 0 0 0
916 1 25.17010129100134 45.32614252746961 0.398482295107634 0 0 0
1007 1 26.784403264669475 46.85585259370221 1.8394982905792578 0 0 0
919 1 31.789004191931117 45.282490011497686 0.37565880208670654 0 0 0
1009 1 33.446539863671184 46.798465347000516 1.845085166736899 0 0 0
198 1 3.3619425773641245 48.88058821995479 0.034531317172369735 0 0 0
303 1 4.919994388456507 50.49360919577695 1.5032224959717144 0 0 0
201 1 9.861301719831044 48.612806696220275 0.21336859525676577 0 0 0
304 1 11.544074926798649 50.092551389761404 2.003837099510442 0 0 0
203 1 16.0630723004778 48.30795868023613 0.3920843469273011 0 0 0
307 1 17.417572680313285 50.359733809171786 1.6823373784907139 0 0 0
921 1 22.13141384918907 48.59970449427264 0.3038649954986522 0 0 0
1010 1 23.650001175236333 50.098861879305225 2.027033485914134 0 0 0
923 1 28.585283844553445 48.30045912663985 0.2660275816579337 0 0 0
1012 1 29.74113489664632 49.50099512228253 2.363354449862757 0 0 0
927 1 34.37423495393628 48.1551095832911 -0.1771479875065958 0 0 0
309 1 3.214131849486467 0.7020053998634144 3.294846970253845 0 1 0
435 1 4.789704933666457 1.8978916490805173 4.94158565205242 0 1 0
312 1 10.183800139978066 0.5582267135257188 3.686650141445652 0 1 0
438 1 11.644649521410985 2.1257905488996043 5.201250940517012 0 1 0
314 1 15.91077481709223 0.7747928129534465 3.418550383129148 0 1 0
441 1 17.47774665767556 2.226528202277539 5.060150481148825 0 1 0
1014 1 21.878600243772997 0.5592402161464293 3.796880243034914 0 1 0
1115 1 23.514938480136824 2.1029651045118856 4.696640934561571 0 1 0
1017 1 28.246857776549597 0.2710706194267707 3.748649500384813 0 1 0
1117 1 30.295950090713845 1.8604139975353147 5.070693154283357 0 1 0
1019 1 34.45390513722314 0.17210523146593915 3.494622025687516 0 1 0
444 1 1.7674060752194705 5.115453107876368 4.7385659095483765 0 1 0
317 1 6.393278416965401 3.495194092171088 3.121927727699443 0 1 0
447 1 8.034677727703464 5.149754519304581 4.917498881090129 0 1 0
321 1 12.487855251922715 3.8075446765850502 3.3982974003303728 0 1 0
451 1 14.295926831806367 5.29234842335376 4.6646139486398726 0 1 0
1020 1 19.36217909224414 3.467263388790209 3.302537437583488 0 1 0
1121 1 20.94428738453697 5.601118970768053 5.145348864565354 0 1 0
1021 1 25.201131209175784 3.6744248679189235 3.2882031903620637 0 1 0
1125 1 26.968742522448185 5.214126843581748 4.876931532535214 0 1 0
1025 1 31.43052904046824 3.6484134965586668 3.1905443213507483 0 1 0
1128 1 33.19188607379479 5.116385233209802 4.9479612645032445 0 1 0
316 1 3.5538443321049473 6.598466458096407 3.365768267728219 0 0 0
325 1 5.003230328355696 9.11406147280779 4.912233014014803 0 0 0
319 1 9.584838189718663 6.656614105061677 3.2490718722603207 0 0 0
326 1 11.39408893652665 9.005341102850116 4.9503741814859366 0 0 0
222 1 16.147144472492034 7.505131458191631 3.3703495562638057 0 0 0
330 1 17.618801140759096 9.081762111592367 4.998812637931087 0 0 0
942 1 21.73865725913887 7.5014107424679635 3.0384642862153646 0 0 0
944 1 24.132116779445013 9.015636510086606 4.338000358099505 0 0 0
1023 1 28.28075782367828 6.580485270777172 3.2537345325853675 0 0 0
1030 1 30.051855206307547 8.966790195626833 4.6913472998707055 0 0 0
1026 1 34.810695360416126 6.723450252284568 3.6131321937214196 0 0 0
332 1 1.757750300842121 12.261516082726528 4.921623364680171 0 0 0
5827 1 0.5887201988976505 11.023717040125682 2.796113017529176 1 1 2
218 1 6.653265070550086 10.5146571349304 3.29367474076157 0 0 0
334 1 8.156093101329681 12.15418151977454 4.543540805201007 0 0 0
221 1 12.780331861937691 10.633363611735007 3.2590701989593622 0 0 0
336 1 14.469521072484357 11.93804280260849 4.713293036704136 0 0 0
940 1 19.311257776930137 10.51457211143323 3.489270281718167 0 0 0
1034 1 21.212792600642825 12.255630058152535 4.571388952692202 0 0 0
1037 1 27.020113097182616 12.169470003480837 4.83875622301023 0 0 0
947 1 31.591150229638433 10.445231625919547 3.4924559828890094 0 0 0
1039 1 33.14495698641833 11.925820878203016 5.080587006843854 0 0 0
223 1 3.4279481190667536 13.545960486387484 3.145123245505513 0 0 0
340 1 5.002555661259919 15.371793908817336 5.205587217779485 0 0 0
225 1 9.667778134202296 13.757925016280145 3.2966069508529494 0 0 0
233 1 11.40620604251811 15.217260601416584 4.518357114558034 0 0 0
228 1 16.14480945150638 13.67327905274718 3.2086907067011308 0 0 0
344 1 17.947754786636676 15.073970423486635 4.654161555139612 0 0 0
948 1 22.790723088052356 13.534402957351219 2.873319882896157 0 0 0
1043 1 24.288613629482786 15.145179932696799 4.657586742821767 0 0 0
949 1 28.43442906408664 13.729702371316348 3.0377857158270296 0 0 0
1044 1 30.031032758617027 15.352555856378174 4.7760829950201575 0 0 0
951 1 34.803559036840454 13.538535594891503 3.0952685089936653 0 0 0
230 1 0.3997092525954394 16.663694780244832 3.742417243277857 0 0 0
231 1 6.776802339111511 16.662276264413663 3.5791225184271025 0 0 0
349 1 8.387981011969538 18.40884483061681 5.023771527861788 0 0 0
235 1 13.126795887182118 16.259068758781922 2.8702710081486003 0 0 0
240 1 14.717648203875928 18.031173824852377 4.450795778882236 0 0 0
952 1 19.384471984522744 16.522692116224615 3.3075123591102975 0 0 0
1049 1 20.907886554569057 18.11879719969487 4.894799313547056 0 0 0
954 1 25.413869740381482 17.134924398352965 3.2566169783590877 0 0 0
961 1 26.989506573721762 18.65826944683168 4.505815752568056 0 0 0
957 1 31.467776515819256 17.122710825605278 3.2210387286981526 0 0 0
1052 1 33.538991215340154 18.303525081989157 5.410760275552962 0 0 0
236 1 3.1408384361262245 19.925028825199124 3.1714762523436835 0 0 0
346 1 1.4733581345031415 18.755894891562054 5.003114835810993 0 0 0
355 1 4.783788118197087 21.640910605205963 4.8651797752760055 0 0 0
238 1 9.902892060697546 19.859778037888383 3.0315135714551866 0 0 0
357 1 11.32015317867023 21.333714242850448 4.6718452892399025 0 0 0
242 1 16.174663207544164 19.70103594764296 2.9749302089744067 0 0 0
360 1 17.833000327961955 21.07110612309936 4.878096781998269 0 0 0
958 1 22.393660781865368 19.402846324583525 3.191381576048653 0 0 0
1056 1 23.793210408731625 21.19640514480672 4.5574156325434405 0 0 0
960 1 28.75289183267475 20.13050653037975 2.946837679214317 0 0 0
967 1 30.519712663611905 21.363481268991134 4.514417096952653 0 0 0
963 1 34.83522658911582 19.66277548462601 3.4893108444393994 0 0 0
362 1 1.5212262559729894 25.087685066403264 4.599160716314878 0 0 0
244 1 6.235715971718056 23.387853860198508 3.0374049443500293 0 0 0
365 1 8.080704016124614 24.654602278590904 4.744169687994958 0 0 0
247 1 13.086298535501848 23.113821637504557 3.3905410176984336 0 0 0
367 1 14.219688552306536 24.835018727861836 4.965013221714938 0 0 0
248 1 19.14266291107728 22.712767666808436 3.2772943397525265 0 0 0
1061 1 20.68675156206802 24.509849010071083 4.770112839795744 0 0 0
965 1 25.29352092608078 23.249944693107775 3.4446370256855197 0 0 0
1064 1 27.11788285261536 24.69314485375803 4.906646385227319 0 0 0
968 1 31.900697084619107 22.886972647514995 3.111026878381454 0 0 0
1066 1 33.00298633523991 24.702211432129353 4.802800591922702 0 0 0
250 1 3.13874059505618 26.551121561276194 3.080637406681913 0 0 0
372 1 4.803622288014686 27.672374611190673 4.98871025615614 0 0 0
252 1 9.588972599107816 26.031160609055252 3.2764678804443426 0 0 0
373 1 11.043957542687547 27.842408796485014 4.535625383675504 0 0 0
255 1 16.19198303786507 26.065511010506082 3.308717590331607 0 0 0
377 1 17.434166395686354 27.973951349185967 4.9470710598815515 0 0 0
970 1 22.17948271763442 26.045302599169194 3.3029654125219245 0 0 0
978 1 23.684682030351542 28.17311587120528 4.217229300915551 0 0 0
973 1 28.64657497776824 26.269242585704667 3.114448074046617 0 0 0
980 1 30.394110746851375 28.02310878778398 4.465298772466199 0 0 0
975 1 34.84298187232528 26.19415826703783 3.1797886126841495 0 0 0
380 1 1.7578297581296927 31.005594559627223 4.832211704332096 0 0 0
256 1 0.3104177094618126 29.339357884628047 3.2227157835629168 0 0 0
258 1 6.272535855374378 29.276096183637613 3.1032425936130785 0 0 0
267 1 7.825223217019553 31.051216238234133 4.519600214133887 0 0 0
261 1 12.991943607499646 28.887609158353225 3.0201775587103827 0 0 0
262 1 14.406793764132438 30.65146034372012 4.410845253670682 0 0 0
263 1 19.023178926088583 29.22794253035632 3.0130731190039954 0 0 0
976 1 20.632466016415382 30.899014842254683 4.446320962390432 0 0 0
977 1 25.45093247629746 29.926379280313185 3.1804924206466483 0 0 0
1077 1 27.27981542141645 31.02467867529193 4.785962756864 0 0 0
990 1 33.333831858324245 31.228871253123014 4.440935378014835 0 0 0
264 1 3.2523056171240405 32.544742228529 3.0535070789785816 0 0 0
268 1 4.77778414732661 34.08633715880931 4.503007461961184 0 0 0
269 1 9.62518193277446 32.54516533408839 3.0836370305814063 0 0 0
270 1 11.481397544763864 33.963723235016026 3.9497336712119138 0 0 0
386 1 12.6699899075907 32.60696328407092 5.885436452036988 0 0 0
389 1 19.0928875173224 32.54663561857108 5.903040920289257 0 0 0
273 1 17.38995027460989 34.230748132856505 4.368027463801379 0 0 0
983 1 22.14511688337875 32.46513931608105 3.1177113835882735 0 0 0
1082 1 23.96269486542877 34.53323345651334 4.7976527110395635 0 0 0
987 1 28.744377144585 32.884827114086534 3.3237084680359748 0 0 0
1084 1 30.196730994045634 34.32915100353606 4.916402494118457 0 0 0
274 1 0.4388939052552452 35.94821891114188 3.164462871730219 0 0 0
390 1 1.8882237964929278 37.343292102620325 4.991796356120723 0 0 0
275 1 6.10352038852194 35.912279981739125 2.9564068293267547 0 0 0
394 1 9.465473480386045 35.70109326089469 5.925027189375964 0 0 0
392 1 7.752543741473313 37.25230561823168 4.56962997009627 0 0 0
280 1 13.08749794010941 35.85766145962076 2.778209198293209 0 0 0
396 1 14.402710490697746 37.193694469284345 4.816144996908689 0 0 0
282 1 18.88794843634925 35.79569650818086 2.86030100972164 0 0 0
991 1 20.462311949156884 37.22882185151369 4.2888183595864104 0 0 0
992 1 25.53786004067188 36.10493377403124 3.3600454940560285 0 0 0
995 1 32.14824782572302 35.813052930494955 3.5364416528148332 0 0 0
1093 1 33.49580421148285 37.68197856552368 5.102999951325409 0 0 0
284 1 3.256364639856225 38.769383116590205 3.478652494246895 0 0 0
400 1 5.022302136495945 40.52130072524148 4.961647319445383 0 0 0
285 1 10.014193920225036 38.70958484607831 2.8647443716604037 0 0 0
403 1 11.358177388332406 40.38139165363854 4.628803620027452 0 0 0
288 1 15.899810619322826 39.007465655592085 3.120911316155605 0 0 0
405 1 17.305707896037944 40.418793626655315 4.968461597888968 0 0 0
996 1 21.898263185832473 39.30699235836749 3.4157711169691707 0 0 0
1088 1 23.63733930272862 40.64729146262073 5.136825961728945 0 0 0
1090 1 26.836580339048073 37.922503975577655 4.951280466789691 0 0 0
998 1 28.754160033954175 39.18503837269188 3.4042849934372383 0 0 0
1092 1 30.444981523861625 40.588477434987404 5.105733847114882 0 0 0
289 1 0.49735971563754766 42.27814795919497 3.1975753593394205 0 0 0
407 1 1.9512586333771482 43.64819844167727 4.8544309893884545 0 0 0
290 1 6.707095495343267 41.988798709842335 3.295213254528829 0 0 0
410 1 7.8671915751979675 44.02246362805356 4.785550336142524 0 0 0
293 1 12.887764251009369 42.05218402934766 3.388317409553521 0 0 0
413 1 14.460594433591405 43.76812924184849 5.077545184173036 0 0 0
295 1 19.063944056652332 41.89257097810531 3.341392755616431 0 0 0
1095 1 20.633026393792033 43.66399239971517 4.760511120624957 0 0 0
1002 1 25.34735120567746 42.3201559143341 3.4954025760549814 0 0 0
1097 1 26.672301265022806 43.85483297483319 5.203873730561684 0 0 0
1004 1 31.542457798420827 41.970448266174 3.114277393709622 0 0 0
1101 1 32.88451465694635 43.741442974942025 4.567478110220077 0 0 0
297 1 3.309642029055053 45.13256064040512 3.194178561996648 0 0 0
418 1 4.786424539159011 46.91112221519039 4.617819609741279 0 0 0
299 1 9.30457016845783 45.47476252233118 3.406309134532989 0 0 0
420 1 11.168057706259631 46.59820846000207 4.866822790225458 0 0 0
301 1 16.110832219544122 44.99740698104669 3.4919345703661486 0 0 0
423 1 17.441772382515733 46.93192902512946 4.8498892260656845 0 0 0
1006 1 21.862709895928532 45.393853889598475 3.053618153836934 0 0 0
1104 1 23.22257475975965 47.139673163412944 4.9386048846163275 0 0 0
1008 1 28.347227441029574 44.984318386231514 3.384098952650455 0 0 0
1106 1 30.070891212956685 46.58341593163379 5.074873034356843 0 0 0
425 1 1.7931294703812108 49.882273843965876 4.813886253294064 0 0 0
302 1 6.442679762391194 48.8190280801845 3.0967182332352414 0 0 0
428 1 8.140473780660633 50.00983193777113 4.927603790346098 0 0 0
305 1 12.98960217472559 47.80586620929161 3.3845644364420644 0 0 0
306 1 14.409042636175089 49.8148706727311 4.438509160338652 0 0 0
308 1 18.915321108657583 48.58852621402441 3.241896591246172 0 0 0
1108 1 20.419157170584782 49.81990239050768 4.968525118582609 0 0 0
1011 1 25.114566376240198 48.460525531541535 3.5720900081764957 0 0 0
1110 1 26.733765671494712 49.958736821494334 5.260546289709872 0 0 0
1013 1 31.794114324644067 48.163221091058354 3.744537945780227 0 0 0
1112 1 33.224212863861354 49.63495592230671 4.987701835350999 0 0 0
434 1 1.5706179657754722 1.5814938299286372 7.991227478751995 0 1 0
436 1 6.144606573949999 0.5256838619889251 6.3377402892012595 0 1 0
437 1 7.929493926249794 2.105239183828015 7.908843431170059 0 1 0
439 1 13.26777488143157 0.3573835804591624 6.172724818163577 0 1 0
440 1 14.80362318793023 1.9438168818978032 7.714974416562768 0 1 0
442 1 18.69730323043873 0.4402171914518256 6.461846105386196 0 1 0
1114 1 20.10923304927033 2.2744227313602625 8.031081988933094 0 1 0
1116 1 25.115781333139864 0.39737074748235846 6.785211762454226 0 1 0
1208 1 26.996797710288455 2.0281409194941853 8.138597859706673 0 1 0
1119 1 31.916843359227354 0.33712960260799807 6.496081930852049 0 1 0
1120 1 33.26324309018039 2.081869497360907 7.869564329827048 0 1 0
433 1 3.1534330614032546 3.290198920204304 6.541254191512565 0 1 0
446 1 4.701114765513048 5.225055543668297 8.0265383865113 0 1 0
448 1 9.547282193690384 3.394310345384303 6.422291978783615 0 1 0
449 1 11.395691816938353 5.041117276201686 7.6787056604715485 0 1 0
452 1 15.861685311319947 3.8582961257447677 6.315919263253117 0 1 0
555 1 17.38512840881286 4.685532638099758 8.50722230407279 0 1 0
1122 1 22.049345193618922 3.474996210090472 6.425405443874071 0 1 0
1124 1 23.638803828781402 5.106097646784711 7.819168869355687 0 1 0
1118 1 28.577832311334078 3.1622925371675206 6.5104735020015045 0 1 0
1126 1 29.96185743729723 4.958225234530059 7.982101907972346 0 1 0
1129 1 34.91060685669954 3.5536433335485826 6.481307528623861 0 1 0
443 1 0.46950504779291846 6.6089554633322685 6.407582238210465 0 0 0
323 1 1.960106316216842 8.820738931113471 8.052563960004532 0 0 0
445 1 6.282243718488076 6.4743287504127975 6.360664503438311 0 0 0
327 1 8.494085174511673 9.0136032884533 7.729195823674305 0 0 0
450 1 12.846223470440618 6.677633567966382 6.434232446839598 0 0 0
329 1 14.275136620460245 8.931105389276919 8.057812744785418 0 0 0
453 1 19.058553840729953 6.7062915576173685 6.812590842295791 0 0 0
1123 1 25.113055183788937 6.664592357366872 6.320090027048047 0 0 0
1029 1 26.89991338281699 8.985316213687286 7.82830124022437 0 0 0
1127 1 31.49780244488001 6.506889927173466 6.304004671813241 0 0 0
1134 1 33.14715567874989 9.000855184324472 8.27927069117592 0 0 0
324 1 3.1054435952157924 10.56788546816503 6.180749710456048 0 0 0
461 1 4.740129423503066 11.715211343689328 8.15864295203754 0 0 0
328 1 9.65303125222508 10.84209949927993 6.182904308736373 0 0 0
331 1 16.002933949845037 10.670289832490122 6.563676139595784 0 0 0
1027 1 22.360009954145717 10.452594247789294 6.1323239390914 0 0 0
1028 1 20.588011622278437 9.22622147603891 7.961284041315885 0 0 0
1035 1 23.981069662019255 12.117617743933355 8.10245348679818 0 0 0
1031 1 28.41077024164751 10.59450466826211 6.233394820980094 0 0 0
1038 1 29.86776487855777 12.213515974240597 7.843537204066143 0 0 0
1032 1 34.96185709385596 10.536720501677003 6.703395050599873 0 0 0
466 1 1.6041679139893423 15.368979103705652 8.230719980401744 0 0 0
333 1 6.459129442562831 13.513209857575394 6.483722947961297 0 0 0
342 1 8.17943709013825 15.304902497037732 7.811990687430363 0 0 0
335 1 11.183296917207697 12.372544479966804 7.6003296829253735 0 0 0
337 1 12.913521341564516 13.710107732812457 6.219424654203293 0 0 0
343 1 14.568481646256124 15.47697202761318 7.600752070254687 0 0 0
338 1 17.5034931683659 12.42698456737944 8.096268117150924 0 0 0
1033 1 19.29841408024215 13.686910291258311 6.338443013664964 0 0 0
1042 1 21.108564548427264 15.317215275031808 7.883135703970229 0 0 0
1036 1 25.779381641613565 13.685525896046316 6.575284722316697 0 0 0
1040 1 31.523623617847665 13.532817440702692 6.656791822457842 0 0 0
1047 1 33.359127608458145 15.37632441771464 7.952067225282335 0 0 0
339 1 3.0256829909454144 16.887441437473637 6.590729304893674 0 0 0
348 1 5.399951854184025 17.990474509296057 7.598888466752859 0 0 0
341 1 9.820492950665294 16.73201840768863 6.455147839898978 0 0 0
350 1 11.300546588744488 18.698944711113217 7.51159382244435 0 0 0
345 1 16.454340785033217 16.764972164562437 6.177308061844397 0 0 0
352 1 17.989673070447385 18.33048601158974 7.599843087932493 0 0 0
1041 1 22.847929616390523 16.63306158350175 6.393274880998786 0 0 0
1051 1 24.036952293903713 18.28160587616583 8.045697604238162 0 0 0
1046 1 27.388614601779352 15.621340049244754 7.447523233786419 0 0 0
1045 1 28.7329948637687 17.495763304963333 6.234509060480708 0 0 0
1152 1 30.611228201172384 18.474016877068504 8.308016382915646 0 0 0
354 1 2.092034680186726 21.72640035469156 7.841903901150115 0 0 0
347 1 6.535115386388881 20.052656597333485 6.130000235419494 0 0 0
473 1 3.8790996865147673 19.90886215441212 8.89158961807788 0 0 0
356 1 8.15302994711547 21.531105295075644 8.008734419867439 0 0 0
351 1 13.397758512034333 20.09424173617478 5.973248026488388 0 0 0
359 1 14.400076978087931 21.68684971971713 7.795205174905778 0 0 0
1048 1 19.410271069701313 19.79206378111715 6.270777888351604 0 0 0
1055 1 21.141735328288963 21.288878422230905 7.749755071736038 0 0 0
1050 1 25.390779006105344 19.922669830428646 6.288368818813071 0 0 0
1057 1 26.952664349793004 21.587311386704734 7.762883230434671 0 0 0
1053 1 31.976226954238154 20.035348021860354 6.353278012324934 0 0 0
1059 1 33.432727316025755 21.59577263299638 7.521403107712308 0 0 0
353 1 2.948124425865201 23.370019840247313 6.110668028159464 0 0 0
364 1 5.107808560237057 24.78091743206939 7.669261924145085 0 0 0