LAMMPS data file via write_data, version 29 Oct 2020, timestep = 200000

4608 atoms
1 atom types

-0.3657184989663449 53.76571849896695 xlo xhi
-0.05183777161098746 50.95895777161347 ylo yhi
-0.05183777161098746 50.95895777161347 zlo zhi

Masses

1 18.015

Atoms # atomic

2775 1 1.8696310071106268 31.246139668427382 19.317544049845853 1 -1 0
1545 1 5.724325918959533 50.78751819474142 1.254628282326535 -1 0 0
3021 1 0.8705847419546291 31.88060515038804 1.228304485294044 1 1 0
3723 1 9.716870822993139 49.074047402138916 8.489259252309179 0 0 1
534 1 16.69920105595998 3.452949930469114 3.064557113212745 0 1 -1
419 1 11.682604237958385 17.21163121565867 0.3881535961207345 -1 0 -1
3423 1 3.32011341306052 3.5854486354326833 0.9525723735771168 0 0 0
1760 1 8.772950046103903 2.9194512201196545 1.040402163047034 0 1 0
3016 1 8.330434210093346 39.32583617062966 0.054988678549080766 -1 -2 0
3354 1 11.378151825355294 50.81550980851105 4.327478814243127 1 1 1
829 1 16.56886394840009 47.20839123843723 0.2531142154382174 0 0 2
316 1 14.136055961482922 4.055065425120669 3.6590157707180015 1 1 1
144 1 9.146177030823916 49.2388350365425 24.454887006074284 -1 -1 -1
2850 1 0.9589274917810322 20.77235481263407 24.113362785121577 0 1 1
1530 1 2.730026150002763 49.63331681552508 22.193791770532368 0 1 0
3742 1 7.339850555426362 4.4631135187566615 3.084096122579572 1 1 0
3143 1 5.363542426658812 5.406361771676149 1.4622171103919608 2 0 1
2698 1 -0.14478210472612266 20.480680420015226 17.732698581622422 0 1 1
1076 1 15.47312525519029 40.77272410384009 25.411868617239005 -1 0 0
4210 1 4.158534085251935 46.953137061908606 25.26430539357801 1 -1 0
3200 1 0.14590277689300046 23.52474362225242 12.657125002338912 0 0 -1
4232 1 2.261838876811277 8.568195893134558 4.642995881988201 0 0 0
1612 1 5.272846055969701 40.10204531955641 8.55605719578085 1 -2 0
1874 1 8.878010603490074 45.81576828883499 22.37375847537625 1 0 0
3764 1 3.0946550110249094 12.174910833960114 2.1299436657391038 2 1 -1
3075 1 5.309982676720692 12.992711515956193 0.5049675054050569 0 0 -1
2916 1 5.083892527210757 15.866725547599474 0.5583761863226866 0 -1 1
1020 1 1.8443304845350563 6.285981116894276 9.28879352432685 0 1 0
173 1 -0.009520969886468778 32.77365002848035 5.040342831047031 1 -1 1
3864 1 17.659429400868913 12.736864102100089 19.83692018457453 0 -1 1
2216 1 4.219926028023888 8.110720971922234 9.049386336857443 0 -1 0
1421 1 0.1410627427342137 46.36623174889405 10.462772618057844 1 -1 0
4580 1 2.3857892550937145 16.38832287727883 0.47288444004668306 1 0 1
4008 1 2.798522461381493 39.448589394894995 0.28644476753194076 1 0 1
3045 1 10.286198276761239 13.018762460261017 3.6463036111268714 1 1 0
4376 1 5.987612558705958 48.98331329378472 25.39495834213813 1 -1 0
440 1 1.0499715278763615 34.343022890682136 22.331671655518022 0 1 -1
2763 1 9.66170315469262 34.473316699494916 1.0942742170058644 0 -1 1
865 1 2.435488071978748 36.45208902824304 24.20386748054972 -1 -2 0
4302 1 2.0873657088613635 22.17938261781598 14.757890592662632 0 0 1
1897 1 9.208286084129554 21.16978130528969 0.47787736283654425 0 -1 -1
2522 1 -0.14080586687729932 30.571246095468858 13.42146674185209 0 0 0
2177 1 -0.11190863115935523 16.909967364518046 17.37944951135324 1 0 -1
2111 1 8.43828961273629 43.24895226543158 21.43736678952186 1 -1 -1
4237 1 12.294022439560575 27.245651656435314 0.5235270809443757 0 0 1
2436 1 1.781531530681618 24.403241489311863 6.241204430667542 0 1 1
2669 1 11.065831278229957 24.99273920449169 2.042614984097961 0 -1 1
2756 1 17.499021880897136 49.50492035902141 5.543143987108343 0 0 2
1293 1 17.15569274841233 26.56885524977237 0.15485591842421714 -2 0 1
1659 1 5.170906263342292 8.934098831048605 24.92478207840071 0 -1 -1
884 1 1.5078735071982199 30.16191942997246 21.988325134650605 0 0 1
669 1 0.32700585333341325 40.30680358419899 13.438610323005818 0 1 0
782 1 6.672086657871145 23.68989801240264 2.141025599622632 0 1 0
1155 1 9.621196640803714 28.219290275349685 1.1790006689550037 1 -1 2
2552 1 2.1716290876135544 27.905417994979185 1.6417572214370348 1 0 0
2181 1 7.649715759746581 39.18587658492022 2.7523324083467475 0 -1 0
2509 1 0.548549200858558 50.35314790211363 7.116864504498174 1 -1 0
913 1 1.1437064094915665 34.45769415043222 2.0523696997310306 0 0 0
4103 1 16.676104659328736 13.789262959002071 9.407759965308115 1 0 1
3111 1 7.08258137610053 19.2169742191696 14.69695791687096 1 1 0
4271 1 1.6891736260682402 4.266393423251259 25.402427475592898 1 0 0
3107 1 0.13268993139999513 14.392031642919473 8.850322655626073 1 1 0
1522 1 15.611565389554542 16.064630977282643 24.394837855557025 0 0 1
1710 1 6.330377696743894 30.28550025478683 0.8215226401259752 1 0 -1
2968 1 9.003542727491775 31.698241332372678 1.3518948166386584 0 0 0
3499 1 1.729448704349461 9.184413906655484 1.9889706272553376 1 -1 2
2373 1 13.247153952592397 35.565698363645 24.214754291860345 0 -2 0
1264 1 1.6326265328252256 35.014944490023666 4.516359727892039 1 0 2
573 1 -0.20667312684078806 5.318400433138459 13.183851543538799 0 1 0
1505 1 2.516823331242056 17.698738121697357 2.8980253120240116 0 0 1
2707 1 2.542275158222944 43.63384952522817 24.184664628715126 1 1 2
505 1 15.198288808536265 46.10025437146649 9.463380582852995 -1 0 0
3361 1 1.8354733747081529 39.67958099013387 7.628493173953417 0 0 0
1812 1 10.65889908306126 36.64713260546928 4.517342678217092 0 0 0
3424 1 6.300929966780975 37.0789811377045 0.2689308843264634 0 -2 0
4332 1 8.354206863332198 41.934803892502956 3.1503314937454827 1 0 0
1147 1 10.6386438538832 42.88068199758882 4.288781970957777 -1 0 1
1670 1 1.4377875448272668 42.97440621465681 10.957053480957946 -1 0 -1
3900 1 8.605248012525346 0.44526779922550724 2.1018603272557987 -1 1 2
3524 1 14.99519653212452 9.75887743873973 24.20127200471052 1 -1 0
4407 1 -0.173615282440055 18.65681688690379 19.82528379147598 0 1 0
3561 1 14.033187362366927 36.400608007857855 1.7872449660525678 1 -2 1
3783 1 5.4657849154007785 44.645502174218265 2.1305658907062752 0 0 0
2946 1 10.16147635326562 45.446922453929844 5.766095922488206 1 1 1
2163 1 11.872385229434917 42.568578868951306 1.7434174900953259 0 0 0
1662 1 11.098340073421364 15.435072666409711 23.48700203419231 0 0 -1
796 1 16.815386864459892 13.195959111860061 2.8849446833544734 0 1 0
4325 1 0.23402000417746072 45.11582800702169 23.165670529127393 0 0 0
1146 1 -0.20262022497248283 37.33905435199159 22.10453801505791 2 0 -1
1027 1 9.336355167213092 44.85834369769334 1.7694671289823989 1 1 1
1319 1 13.55018526567246 44.517565742153636 0.4897074974885607 0 -2 2
1162 1 1.857266689388108 33.51728080749709 17.02164774043047 0 0 1
1758 1 7.100029053102251 34.748270922125286 1.4320106190660087 1 1 -1
4348 1 4.588299960241386 49.43667854130415 4.678044953806524 2 0 2
827 1 1.3229822113732461 15.553865949082518 4.5855740776216765 0 -1 0
3034 1 1.6874651920134514 36.560128521870794 16.868232050829953 0 -1 1
3074 1 11.978674113836872 46.45257636133577 1.0322917197874428 1 0 -1
2644 1 14.573054278710105 49.54497979412403 3.975111899964954 0 0 1
1489 1 1.623643386490287 10.523052138532671 8.490909171473566 0 1 0
3401 1 2.8168455230566543 45.7920438725902 11.51260416544508 0 -1 -1
3570 1 1.7734118854803063 3.0969112514286965 5.944067807391145 0 1 -1
3659 1 4.786011921807504 1.9246735363855807 2.8536548151580567 2 0 0
951 1 12.032315488060386 2.393228257601795 5.579822849118366 0 0 0
4518 1 13.987736433301398 1.8211150440018948 7.575332233083145 0 0 1
2454 1 16.071222908511942 1.4754831330639753 5.041689234825719 0 1 1
2560 1 2.118590714784724 4.683796863207404 3.4880319491460203 0 1 0
4370 1 9.36228554115103 6.979101951008483 4.208336829391621 1 -1 0
2369 1 13.823278680585881 5.1334444551462095 9.052871186348414 0 -1 1
804 1 10.04043231860636 5.486409417793066 1.4306308367325882 0 2 1
722 1 8.524735769913045 1.0123121545311642 5.0796717873811 0 0 1
634 1 16.856004547960932 6.541530377091518 7.593361137703677 -1 1 0
4530 1 4.048620891745752 8.028490204695467 1.6867975366176011 0 2 0
319 1 10.862290006442477 4.98098081555101 5.873001650262783 0 -1 0
206 1 14.311354572462836 5.606723320581012 6.239709616810707 -1 0 0
3010 1 0.13868927404276787 23.73735123173319 19.801820881957582 0 0 0
1025 1 15.934104722576201 8.218765555088464 2.2419032116906465 0 0 2
1855 1 -0.050905340986194036 50.46591416922456 19.176167552097837 1 0 0
3981 1 5.157032683977496 13.851332825627157 5.792115429421065 0 1 0
2108 1 6.383585147580442 9.399439232132796 2.9190131850614005 0 1 1
3207 1 8.16322532755271 9.431059407111336 0.8493127138950042 1 0 -1
4082 1 16.10275286216834 13.794826082215241 6.465498325188961 0 0 1
4272 1 3.081605632019242 12.705389023936533 4.744563415617477 2 0 2
2498 1 6.641208259268305 15.12061126922092 3.2930241660280273 1 1 1
4512 1 9.284137668434214 15.566731514440685 3.779042608440873 1 -1 1
716 1 9.664613176218 18.249910929286955 2.4046073926992304 1 1 1
1311 1 10.383408054629825 11.88917115922231 6.441473517008778 -1 -1 0
4038 1 13.974717361282488 7.9502488861985245 4.339597360679795 0 0 0
1680 1 12.448423873533308 13.445991724561932 7.7480476417926125 -1 0 -1
895 1 14.286704073412668 14.534365347981701 2.7980880889294224 0 0 2
3132 1 14.299272436619418 13.354761434209339 10.646992677090369 1 1 0
1865 1 0.7664642730838345 27.031646669440185 24.82238284018967 -1 0 -2
2687 1 7.448462445594695 18.86906168447286 0.8339759667532752 1 0 1
3845 1 13.988746640916903 14.953582169801477 5.374159284630455 1 -1 1
984 1 12.925614682042944 17.75741862282468 4.5073681410886515 -1 1 0
163 1 13.048052701138468 16.09965867315147 9.708649466406218 0 1 1
455 1 0.9392424312251311 19.99308008098581 0.8763898189525153 0 0 1
2286 1 9.869236467774424 22.244962354593063 24.83645286290039 1 -1 1
398 1 3.872035328839619 20.722822268427194 1.2683173413650706 0 0 1
589 1 14.12715916189546 16.762299884351766 1.0450847386493713 0 0 -1
3150 1 4.30177375696664 21.87685248343625 5.285650714088993 0 0 0
1054 1 10.624008776185107 18.46892484810767 6.094046528818249 0 0 1
3328 1 14.659435761008574 20.678319569025234 3.2699423850601192 1 -1 1
4014 1 0.37544114512315074 22.45265741855701 4.508784482831032 -1 -1 0
2943 1 2.599489504348044 22.70526928974514 3.0721456578817756 1 -1 1
2118 1 11.709355649534407 22.038049007684204 4.321795344109306 1 0 1
1586 1 14.776991562187385 24.288612869205522 4.253265802097511 1 -1 1
524 1 16.9232912277672 37.23419764675759 23.621350728635225 -1 -1 1
3869 1 12.790622680327626 12.287490185032066 2.0820500992807 1 0 1
1320 1 2.3834225016076656 26.68630533793302 4.2928515360532575 1 -1 0
4574 1 7.920804061820752 24.631234352834326 4.666077096192348 0 -1 2
2215 1 7.1093457689885655 28.769714552844988 8.410238308584272 1 0 1
1970 1 10.77017255241161 24.434687313183954 4.48006444342233 0 0 0
1327 1 15.288565503697239 27.23640735206495 2.2223312701033104 0 1 0
540 1 1.9766643470116385 30.79229352983619 5.138481703414621 -1 0 0
3102 1 3.1497483643191657 30.38773117972144 2.798349302864345 2 -1 0
3754 1 4.076382768211253 24.774835211845406 1.9670600107300364 1 -1 1
1989 1 7.463181812867572 27.945773307302403 3.3855069622297878 0 0 0
4115 1 11.321345354350427 28.76453977047786 3.7852023203723895 0 -1 0
3753 1 15.301965561227009 30.352338541898174 1.3697998328058978 0 -1 0
661 1 1.0005162160617647 14.20232833810541 2.2525759158688246 1 1 1
3815 1 5.040232179188678 27.523358467971164 1.1037924798809322 0 0 -1
2600 1 6.384417146515304 32.71690611836743 5.957458108573289 1 -1 2
1577 1 4.252718834889238 32.95644270951236 1.8715896753889891 2 -1 0
2802 1 11.751169316119691 34.00021742168691 5.49587685936902 0 0 1
3567 1 14.91752948702094 30.45559237965875 4.149789923826785 0 -1 0
4117 1 0.3382252873995619 37.791284309637376 5.202680133201245 0 -1 2
1197 1 3.3111890019479406 38.12616800956866 4.711786170098828 -1 2 1
2656 1 5.746808324806614 34.466067132933844 3.993938505750525 0 0 1
1002 1 12.758690392256254 37.915803361279586 3.490741353110539 0 -1 1
1694 1 12.088770592556314 34.03005413162526 2.5581691028168434 0 1 0
4391 1 14.70449902523663 33.267884941469234 1.1418898407313642 0 -1 1
1136 1 2.335703889778914 41.095926183757186 4.612200927268938 0 0 1
918 1 4.774012653451936 38.534104191698134 2.2938814462262886 0 -1 1
1422 1 13.558837201192617 41.328343456460274 7.851114435525147 -1 -1 2
1698 1 6.356229830124854 42.02994380842388 5.117067360339607 0 1 1
890 1 14.1790461430391 37.55690423485608 5.887345221565146 0 0 1
3239 1 3.1370642520801875 46.031990940460986 2.5700672500314394 0 0 0
3912 1 3.2491207566827947 42.44771225747043 7.148908033199146 1 0 -1
4548 1 12.433037503954361 45.96939886217665 8.451851843564985 1 0 1
1895 1 13.668699522096333 40.50947060832944 2.0391615677255066 0 0 1
1001 1 16.755556027614894 23.602516100670023 22.518740166435006 0 1 2
1744 1 15.211402549187065 43.19919235040838 9.50036108975211 0 0 -1
1792 1 0.9704465764506613 9.261171260705886 17.13077466394719 1 1 0
4183 1 7.336907960182719 45.74403129260624 3.590039945866572 2 0 2
2239 1 9.137413770207209 47.85356093556605 3.1435074199252235 0 -1 -1
3407 1 7.423382537562219 49.662127813223066 4.777844699704214 1 -1 0
181 1 13.614739188720279 44.91360089078317 6.023400237771302 0 0 -1
3856 1 0.3283796449805565 49.473588801343595 2.544653940756787 1 0 1
176 1 1.6174270566477622 0.8109733309600753 2.6379443654113897 0 1 0
4353 1 10.841896892995745 48.35264614344487 5.820334208487074 1 0 1
1440 1 3.3416640862070364 49.32623486714979 2.061271938415359 0 0 1
881 1 12.804168677246404 47.27355904474858 4.138470713862614 -1 -1 0
4067 1 13.370204249182045 42.30526176719633 5.041172381313272 1 -1 1
1441 1 13.103134954533065 48.684396989618165 7.981296071635306 -1 0 1
361 1 0.334284135947173 20.491126235874184 7.015404273774292 -1 0 -1
2348 1 8.390098013716363 48.99197279251658 0.8077216304113373 1 0 1
3591 1 0.7058051170216244 27.813183185636365 13.418368708988277 1 0 1
621 1 6.23059790212035 50.77035393685237 8.832604649426669 1 0 0
1431 1 9.310862580150106 4.792942373621475 10.394429081518519 1 -1 0
383 1 16.73007157226918 3.658342580087188 7.999036157436864 0 2 0
1748 1 12.978448586676208 0.6798211117224093 9.872494070993115 1 1 1
677 1 16.4519306469126 46.752229641197715 21.64488053815721 1 -1 0
2461 1 6.634065421235978 4.03023045089167 5.926157773837859 1 1 0
1055 1 5.648607981424158 1.6482893021005245 5.457437818386465 -1 1 0
3313 1 13.349333336408487 6.850369253850386 22.841423378313454 0 1 -1
720 1 6.871918433960032 7.467335991587087 4.870592943818846 -1 0 0
506 1 3.603632470923813 4.823804139195576 6.7201671980775055 0 1 -1
311 1 4.126016054869942 6.542905580916856 4.598927296666676 0 0 0
1908 1 9.404066384414897 10.031054668089412 3.5984398916476583 0 2 0
3530 1 11.399258907626416 8.624823774061966 5.791487538363786 1 0 1
614 1 11.293421831843439 5.521254082418174 8.322924988627193 0 0 -1
557 1 6.166074205030321 10.988125618056108 5.495090884343243 1 0 0
3158 1 8.04291924791269 9.007452633064885 9.485153759500283 1 0 0
1473 1 10.573382201444268 8.28281728842034 9.084714027126262 0 0 1
4317 1 12.284295839076933 9.293786095391274 2.3825073432226365 0 0 0
3653 1 12.035484042367985 22.516868844921103 0.055820614239278865 0 0 0
3219 1 11.184214997832793 2.0799766901857892 24.95045848965428 1 0 -2
3808 1 0.32691465257980357 11.21361036466246 4.68736635499772 1 0 0
4061 1 8.010005673543686 11.117582743379957 7.299643250001529 1 0 1
1835 1 7.465621693362244 13.32188081410683 8.621615998923843 -1 0 1
4076 1 12.329295765404357 10.721489897480998 8.55729980942501 0 1 0
4020 1 4.824503786979732 16.996175839751835 4.393913995550102 0 0 1
4337 1 1.2373138977026366 17.354895927078083 9.130769561324456 1 1 0
1368 1 9.209630107903687 20.041603034634008 4.165252749453934 -1 0 0
3232 1 8.910041955637313 17.29346990340472 7.986210086714152 1 -1 1
2541 1 17.37049070913205 16.3626185358252 9.733078858739313 1 1 1
1947 1 17.182676975712248 10.917023386684619 8.594581544611705 0 1 -1
1796 1 2.831559017947274 21.48229293826706 7.51509180897374 1 0 0
4410 1 6.67821662363428 20.184430678997995 5.549268005771936 1 1 0
2370 1 5.6633310418366545 19.406229698018592 3.1387882296163405 -1 1 1
2281 1 10.188602704854214 21.898083852357033 13.642636728851539 1 0 0
3641 1 11.321631606647156 21.040799768349714 7.307227279022255 -1 -1 1
668 1 16.3443812054686 21.916868134572674 5.090091970143223 -1 0 -2
818 1 15.947693056155014 2.124932473538586 12.145106569236766 0 0 2
2010 1 4.870947885040063 26.530368268972058 4.751008061115753 1 -1 -1
4227 1 9.28461613928361 21.665488703774322 8.858873611694301 1 0 2
73 1 4.8720686261596295 20.06186336705963 11.161955893490351 0 0 0
3055 1 11.969493756644228 26.105603873730388 9.144094258980052 1 -2 0
2848 1 9.891295301283936 24.29357135890821 9.61440915275773 1 -1 1
2503 1 13.810587361391997 25.045253607562252 7.358932693531649 1 0 1
3691 1 0.006052985184487714 27.664582671111628 8.682630217107695 0 0 0
2672 1 2.391048055361336 25.897943575607954 9.216200265467295 1 0 0
4471 1 5.294878462947626 24.25329540267206 6.497109660795782 1 0 -1
4341 1 8.212236701097405 25.917283270976228 7.671647653963865 0 1 0
102 1 12.68505491119569 26.395054905663567 4.7536552183399685 0 0 -1
929 1 15.495080889038132 26.90163331320165 8.73165264285567 0 -1 0
3650 1 6.6961688816004825 0.7945763205444516 22.197644894717858 1 -1 0
2684 1 13.460300573660069 28.59946604434521 7.1188034170092465 0 -2 2
228 1 9.010222185167311 31.333489325029383 7.126245090508786 -1 1 -1
1613 1 11.968488226336826 31.08494182066935 5.2764859616913204 1 1 0
568 1 15.9423261941634 29.56192206112559 6.205982854641288 -1 -1 0
2516 1 0.24531312215253454 33.988757378369485 7.828123664323991 0 0 0
4073 1 4.60719067051044 28.9286261531591 6.204965655493158 1 -1 1
797 1 4.124461306233519 31.750678010840428 6.979377245425813 0 0 1
4369 1 5.805425639456703 30.249421443453407 3.8733805853437233 1 -1 1
3493 1 10.753020260848329 35.13405899968092 9.453782084795586 0 -1 1
1952 1 14.470660011420506 34.909732715059704 5.924124292330097 -1 1 -1
587 1 10.417245748899093 8.716611543648732 -0.013574030217484392 0 0 0
584 1 5.437455079722854 32.137130518602845 9.531679473532117 0 0 0
2377 1 3.2243185560262324 34.276322786390054 7.007471610056401 0 0 0
430 1 10.948813148763055 32.884316967769735 8.416360668338 -1 1 1
4208 1 8.13795343682202 35.55226478638873 8.180453078500728 0 2 0
3643 1 8.076107308297253 36.499979142401784 3.8244319831395046 1 -1 0
3865 1 11.340889055551584 39.74982613356978 8.32938736650932 0 0 0
3863 1 15.701265087110961 20.584088665484515 7.6066287985853105 -1 1 1
30 1 1.855320613700263 44.80999544092673 6.38277054035485 0 1 0
2907 1 4.109231635454608 38.00236945783115 7.488414174470183 0 1 2
2618 1 4.980747253949215 41.768452237745166 2.710913188459627 1 0 -1
269 1 0.006378982673772626 18.165573623655032 4.195288703510598 1 0 -1
3291 1 0.7886903409929069 44.60719211833464 1.9185150175134333 0 0 1
3374 1 0.8494812739547586 43.392001924918446 4.437348290625401 1 -2 -1
3739 1 7.174232152582504 44.742619513380035 6.120555611764805 1 -1 -1
4496 1 11.353727532052691 44.33121853376835 11.588210261069745 1 0 1
3982 1 1.7113239968953153 2.784987408955069 22.6342072958981 1 1 -1
2504 1 3.291596850738023 46.95040928670876 5.401181348288568 -1 0 2
1669 1 1.2785810410113307 15.8869051485603 25.06074083872927 1 1 -1
1296 1 5.3001933690548615 46.17263055371474 7.451254835970933 0 -1 0
153 1 6.960078986457444 48.77455875969619 7.255843057092638 0 0 -1
2045 1 8.313219252523787 42.96604647127913 8.407233716078856 -1 0 1
116 1 10.131628575386847 44.52499086426049 9.269825003606172 0 1 0
2685 1 5.841304643166126 10.780854121215429 22.837378668097305 1 -1 0
1373 1 2.4505038479978567 0.43697164518084153 5.574090924141621 -1 1 2
1828 1 8.838587217564887 47.3106206047363 12.93429871645179 1 0 0
287 1 8.360913055627774 47.01591575779355 9.869588410133037 0 0 0
774 1 11.921317849084355 49.23475244720288 10.432305941362504 0 -1 1
46 1 9.035472928736723 24.55694692163437 0.5381675131117022 0 -1 1
3226 1 4.178149390290999 3.290307216425774 9.219162491472506 1 0 1
2425 1 9.696441745093777 0.9149099987583402 12.971995139795943 0 -1 1
2662 1 6.925848029743135 0.4740425641258088 11.954002989870444 1 1 2
438 1 8.39231660562759 49.43397298217124 16.53221049412653 0 -1 0
2014 1 15.57888534791483 0.8245022110408451 15.52954060933968 1 -1 0
1925 1 16.622066572260312 49.0341624136137 9.803287466823596 0 -1 0
2456 1 16.856116691594455 20.142499781507777 0.37943561947451976 1 -1 1
1063 1 6.110265327481134 7.670022911748839 11.250516560138136 0 1 1
2772 1 9.270664125950857 2.0141319414898207 7.255236121486098 0 1 0
1064 1 14.125590752863747 6.520032139207056 11.520614598183235 0 0 0
1300 1 11.24813650702143 3.6118576501729676 13.812623253064613 0 0 1
3928 1 13.242779263718042 2.2193970439799844 15.883001943649276 0 0 1
2400 1 10.36953455152153 6.851507151668256 16.10317912748885 1 0 2
703 1 14.790850093818875 4.253160838167263 13.234486570228531 0 1 1
3799 1 0.0561759129870143 9.178691050483847 19.901254748459166 0 0 -1
279 1 7.82286959614375 12.590515374522319 1.571543214676128 -1 1 0
1720 1 8.441204245235811 10.002180513164197 13.673002673118553 1 0 1
286 1 10.141059892868723 6.051512745740026 12.436096622087318 1 0 1
2632 1 12.021081029283675 8.041069544199805 11.451016180925253 2 -1 1
707 1 16.15600964724829 8.320337365706223 9.357764498546786 0 0 0
2586 1 6.434623663591552 17.34407494186506 23.979017372358953 1 0 1
3729 1 16.938810160251208 6.352422955949684 17.584861407876872 1 1 0
4458 1 4.590410731590996 10.359353133591394 12.019749534677809 1 0 -1
536 1 6.410530335636324 6.618507281771894 7.720357804156077 0 1 0
1486 1 8.454684780650851 11.103901090203802 11.361628886618071 0 0 1
2995 1 13.324998482074298 10.958651787144706 11.150267318623808 0 1 1
3032 1 13.916948628369394 9.191011475491033 7.25383850420622 0 -1 0
713 1 9.445649110290363 44.97039276046452 25.109985129755778 0 1 0
4026 1 0.9150274809028802 11.954843906519203 16.472159240951164 1 1 0
730 1 3.602280391697766 9.730663902168816 6.583813589354539 0 0 0
1534 1 3.2074258324597262 15.4422200196625 9.660722023319881 0 -1 0
1434 1 2.271681350609026 15.163152465318635 13.777939376057159 0 -1 1
3377 1 9.953157831812307 14.445879127124705 8.769622032293078 0 0 0
1279 1 12.150197026596327 15.864706562044608 13.362497564033195 -1 0 1
2419 1 11.041805457224207 16.563140674905895 16.231019682959374 0 0 0
396 1 17.24907384051969 49.52751106117968 16.326940104685153 -1 1 0
872 1 14.299945699115577 24.458393721485276 1.2720159300490625 1 0 0
4248 1 3.7221733058517588 18.997991572251152 8.66908535171013 1 -1 0
1168 1 5.640959570717638 15.48784961079866 8.006438309726068 0 0 1
4192 1 7.231834453373679 19.04274618591982 9.993068713564387 0 0 0
1399 1 13.952617635142467 17.894831667033152 7.452430228906776 0 1 0
1644 1 16.473842487092472 17.00044865338939 7.221206017813442 0 0 -1
2257 1 15.355390211872958 49.58783728022537 1.355579862116138 0 0 1
3189 1 4.777430437268138 23.022863300751958 11.586191514217381 1 0 0
864 1 5.985985344864187 18.006256054190164 7.420339258982465 0 0 0
1316 1 10.164251591397193 20.110605619544984 11.018137825098236 0 0 0
1361 1 -0.15684803692665034 8.396119118943648 12.995258440751927 1 0 1
1075 1 2.873641743755009 23.22930971554678 9.537668383181803 0 0 1
1584 1 6.404150583655132 25.4040998371405 11.806329324107109 1 -2 1
87 1 6.696870451117654 23.329136077393663 8.748378111457965 0 0 1
1290 1 8.904827043871027 23.57425086273972 11.907892195312435 0 1 0
2002 1 13.975291392138796 22.027682060685926 10.978962917015478 0 -2 1
1358 1 4.467064385284699 28.031176528059028 8.972573494105209 1 0 0
6 1 8.281782026986264 27.457949374843647 10.449532707663696 0 1 -1
49 1 9.197857705892059 28.418527079201628 5.544080923860759 0 -1 0
1355 1 13.408117271536936 27.197775397011466 11.062178973527962 0 0 0
811 1 14.419979962695914 30.21511872116771 10.326614140479226 0 0 0
2846 1 1.6201360737547854 44.807406376569844 15.273068679545865 1 1 0
1019 1 2.958946631699104 30.211047139786743 9.481513913785564 0 0 0
1106 1 -0.10804422695821803 30.485036819993645 9.777595325936122 0 1 2
2517 1 10.544982016202999 28.825223268987774 8.223731122755309 0 0 0
647 1 11.55735341334836 28.510473816810972 12.231114791130308 0 0 0
1018 1 15.381109902482608 33.47231804225298 8.077950490755216 0 1 0
2020 1 1.8799569770176192 0.22161996003498385 24.63008660153185 1 1 0
2576 1 1.3609054618600922 32.443512797067825 11.850277011499882 1 1 1
1512 1 8.06487691151204 31.2924547908274 9.805213812596522 -1 0 1
1518 1 5.925163751473846 34.83370181524286 9.214649086540277 0 0 -1
3610 1 11.02963262039478 29.79101488918793 17.38290001776759 1 0 0
756 1 11.110403979773732 30.6563541340833 10.984330130003032 0 -1 1
2247 1 9.329227613980505 33.48611539221754 11.7480598954985 0 0 0
507 1 11.921232184062008 37.085118010682976 7.334677362663046 -1 1 1
3117 1 11.620958366039766 35.65291029737766 12.084954668256364 1 0 0
3437 1 3.750026766993681 35.86375335385317 9.63057180436108 1 -1 -1
915 1 3.2227232979218567 36.13847477230898 12.938781597839586 0 0 0
2939 1 5.695865184452354 34.17853647673627 13.17833728835356 0 1 -1
4234 1 8.863701609433718 37.83250585739869 10.311078008252485 0 -1 1
231 1 11.82519940056278 38.404022938275546 11.107065682627567 0 -1 -1
3456 1 16.040905738127485 6.393812761803139 23.122060544025175 1 0 0
2341 1 2.9766238001838277 41.22224766431256 12.999018846196648 0 -1 1
2961 1 6.521513786231176 37.078660839207544 6.295214969304299 0 -1 0
2195 1 7.905731650504967 39.726180072263745 5.925032349809803 0 0 0
4081 1 10.94490512260585 39.873530571929095 5.372006055692955 2 1 1
4291 1 12.490131948574962 41.64603575246589 12.064128806676836 0 -1 1
3339 1 14.660771712686346 39.51777008254095 11.42337833962183 0 -1 0
54 1 2.645575686400019 38.42849304299328 14.729374492125935 0 -1 0
687 1 6.4963131275019075 42.64158466472652 10.865735892693433 0 1 0
1519 1 5.287277974489185 40.25369945881718 11.333404895388819 0 -1 1
674 1 8.177322314903405 40.41436388937619 8.478774101536263 0 0 1
1223 1 15.506054398092214 39.47717247301081 7.105404102578614 0 1 1
3331 1 15.21962715715087 50.08293162208511 7.3923247996457055 1 -1 0
3482 1 4.2897029653828405 44.09096338921029 9.521032229729268 0 0 1
2699 1 5.531041482292823 47.083540026853285 10.330264299454816 0 -1 1
2843 1 4.11445932147314 0.9068509677976732 7.959511019663918 0 1 0
2222 1 3.1341482389402997 42.326604792711294 15.548392282265656 2 -1 0
179 1 6.1724003060620305 45.067292550246066 12.570881542439876 -1 0 -1
3012 1 9.365203562789596 44.866782034532974 13.62803467840336 0 -1 -1
3457 1 13.388565487511933 46.879088061594786 11.7855756678065 -1 0 0
2138 1 16.79095925744381 26.100869530936098 11.146117599711943 -1 0 1
1369 1 4.098182318656153 49.498002233052034 10.650883407246098 0 -1 1
2742 1 2.048674779470454 -0.01600532930055107 9.40793303585875 0 1 1
2556 1 9.017364939067564 0.48650757313796833 9.544323960582501 -1 1 1
1563 1 10.81758622572226 49.36426040478479 13.036731045872866 0 -1 1
3367 1 10.23722725799915 9.579619295483834 22.249324200701885 1 0 -1
200 1 1.0566861097494993 2.141091127557939 11.739772838695293 0 1 -1
2705 1 5.0901281009904356 50.80987502705193 13.728035633026522 -2 -1 1
3308 1 8.786598447485272 4.40073796765649 15.40442443860198 0 -1 1
1325 1 10.632697599705285 0.9325527337180272 16.19631799482083 1 1 1
591 1 13.151031794475818 48.06719896439449 17.673155069290345 0 -1 0
2880 1 16.965478951658802 3.9288856733377795 15.244112387396445 1 1 1
4189 1 1.0972988946059108 3.3753065032141287 9.03827819752831 1 1 0
4604 1 6.622329006111897 5.325500070944983 10.646342972886284 1 1 1
1997 1 5.785744687248229 2.9495622310205984 11.893787226839947 0 0 0
1543 1 7.890759088660056 8.264598145104507 16.84464898336038 1 -1 0
4552 1 9.482140585599993 6.334836730036088 20.402134385585565 1 1 1
3887 1 0.9251590246839798 28.13047707556066 17.919699860690233 2 0 1
187 1 2.3037809129257143 5.546627906411717 11.971788531692413 0 1 -1
1312 1 7.846521687493894 7.412240732861342 13.741549459788494 0 0 1
3788 1 11.759868087734766 8.825585606910725 14.333245700603525 0 0 0
1491 1 14.058491010830304 7.868895222218106 16.34457340204055 0 1 1
2056 1 16.30846237486017 41.94249599419152 18.826996783411555 0 -1 0
2750 1 3.211473744383803 12.534125103115555 14.845683907893212 0 1 0
3177 1 10.893138181046647 11.742981815308553 11.854717326432382 0 0 1
2147 1 10.986254430592892 11.218455079724153 14.587978238390015 0 -1 0
2198 1 16.26789333738798 7.211158715662283 14.226744174622562 0 0 1
2046 1 15.666203975610944 8.946636228936915 12.126553777180222 1 1 1
836 1 5.281742248515414 32.64890263510236 24.415321443573358 0 0 0
3765 1 5.8225222153418175 14.894492622749661 12.659089132458412 1 -1 1
3933 1 10.626894563627205 14.527105419882359 11.5212998698006 0 0 0
3029 1 8.540810509354401 15.595505287534381 12.91705409136407 1 1 0
3131 1 14.664510163483214 14.730499469524005 13.481232018426653 1 0 0
4513 1 12.941021516336395 17.08184379654931 24.473457035930377 0 -1 0
689 1 16.481613069505663 12.51258092633794 15.057312682422813 0 1 0
2493 1 -0.3284842590398755 26.828209029274312 15.804554356582527 -1 0 0
943 1 7.616425054257387 21.987675801968578 15.461984875411428 0 1 0
3071 1 6.392466374706856 12.76066979232853 10.973864229805152 -1 0 -1
1536 1 8.570171438052236 18.222821379034187 12.896848440662822 0 0 -1
2658 1 12.51607991409163 19.570560515987943 9.772476216511928 -1 0 1
477 1 11.360256054711273 19.17381051418242 14.453468728065129 0 0 -1
672 1 3.8343191715551592 16.593815830734826 11.957873791001768 0 -1 1
556 1 0.6821988850606935 19.060237752054324 11.192896203034357 0 0 0
1548 1 2.9440909048709747 18.84492227299109 12.789638623669115 1 1 0
2524 1 4.026487287037248 19.33643144315636 15.531673672609289 2 0 0
1856 1 7.664179566787128 21.029542002228624 17.906788634244357 1 1 0
4440 1 13.233710199000296 22.741896125021068 16.866324408281884 0 0 0
1935 1 14.677189009807272 22.754005162423944 14.363881502437136 1 0 1
3375 1 14.373251243667863 20.022945308516938 14.086045448022544 1 -1 0