
# Import phase coexistance setup
#
read_data           data.coexist_${TEMP}K_${PRES}atm_mW
read_data           data.coexist_276K_${PRES}atm_mW
read_data           data.coexist_276K_-1000atm_mW
Reading data file ...
  orthogonal box = (0.30765202 -0.41657222 -0.41657222) to (104.40672 50.659143 50.659143)
  3 by 1 by 2 MPI processor grid
  reading atoms ...
  8498 atoms
  reading velocities ...
  8498 velocities
  read_data CPU = 0.058 seconds

# Define potential
#
pair_style 	    sw
pair_coeff	    * * /data/emrosky-sim/Freezing_Simulations/Melting/mW_fancy/mW.sw mW
Reading sw potential file /data/emrosky-sim/Freezing_Simulations/Melting/mW_fancy/mW.sw with DATE: 2019-02-27

# Reset velocity/set timestep
#
velocity	    all create ${TEMP} 120598 rot yes dist gaussian
velocity	    all create 276 120598 rot yes dist gaussian
timestep	    10.0

# Define output
#
compute	            1 all msd
compute             2 all orientorder/atom nnn NULL degrees 2 4 12
thermo              1000
thermo_style        custom step temp press vol etotal ke pe c_1[4]

# Neighbor lists
#
neigh_modify        delay 0 every 1 check yes

# Set fixes
#
fix                 1 all momentum 10 linear 1 1 1 rescale
fix                 2 all nph iso ${PRES} ${PRES} ${PCOUPL}
fix                 2 all nph iso -1000 ${PRES} ${PCOUPL}
fix                 2 all nph iso -1000 -1000 ${PCOUPL}
fix                 2 all nph iso -1000 -1000 10000.0
fix                 3 all temp/csvr ${TEMP} ${TEMP} ${TCOUPL} 837492
fix                 3 all temp/csvr 276 ${TEMP} ${TCOUPL} 837492
fix                 3 all temp/csvr 276 276 ${TCOUPL} 837492
fix                 3 all temp/csvr 276 276 5000.0 837492

# Run very short equilibration
#
dump		    1 all atom 50 eq.${NAME}.dump
dump		    1 all atom 50 eq.melt_276K_-1000atm_mW.dump
run	            500
Neighbor list info ...
  update every 1 steps, delay 0 steps, check yes
  max neighbors/atom: 2000, page size: 100000
  master list distance cutoff = 6.3065
  ghost atom cutoff = 6.3065
  binsize = 3.15325, bins = 34 17 17
  2 neighbor lists, perpetual/occasional/extra = 1 1 0
  (1) pair sw, perpetual
      attributes: full, newton on
      pair build: full/bin/atomonly
      stencil: full/bin/3d
      bin: standard
  (2) compute orientorder/atom, occasional, copy from (1)
      attributes: full, newton on
      pair build: copy
      stencil: none
      bin: none
Per MPI rank memory allocation (min/avg/max) = 4.603 | 4.603 | 4.604 Mbytes
Step Temp Press Volume TotEng KinEng PotEng c_1[4] 
       0          276   -906.26574    271566.22   -78912.953    6990.5123   -85903.465            0 
     500    323.67312   -991.96502    265305.66   -80735.462    8197.9745   -88933.436    17.197435 
Loop time of 1.67424 on 6 procs for 500 steps with 8498 atoms

Performance: 258.028 ns/day, 0.093 hours/ns, 298.643 timesteps/s
99.4% CPU use with 6 MPI tasks x no OpenMP threads

MPI task timing breakdown:
Section |  min time  |  avg time  |  max time  |%varavg| %total
---------------------------------------------------------------
Pair    | 0.91293    | 1.1649     | 1.4353     |  18.7 | 69.58
Neigh   | 0.15621    | 0.16121    | 0.16395    |   0.7 |  9.63
Comm    | 0.038057   | 0.31126    | 0.56826    |  36.5 | 18.59
Output  | 0.0078047  | 0.0083455  | 0.0088593  |   0.4 |  0.50
Modify  | 0.023229   | 0.023636   | 0.024234   |   0.2 |  1.41
Other   |            | 0.004898   |            |       |  0.29

Nlocal:        1416.33 ave        1437 max        1400 min
Histogram: 1 0 2 0 1 0 1 0 0 1
Nghost:        2184.67 ave        2205 max        2154 min
Histogram: 1 1 0 0 0 1 0 0 1 2
Neighs:        0.00000 ave           0 max           0 min
Histogram: 6 0 0 0 0 0 0 0 0 0
FullNghs:      45134.3 ave       45787 max       44248 min
Histogram: 1 0 0 1 0 0 2 1 0 1

Total # of neighbors = 270806
Ave neighs/atom = 31.867028
Neighbor list builds = 83
Dangerous builds = 0

reset_timestep      0
undump              1
unfix               2
unfix               3


################################################
#######         Run Simulation         #########
################################################

log                 log.run_${NAME}
log                 log.run_melt_276K_-1000atm_mW
