
# Define the lattice
#
variable	    lattice_constant equal 6.36339
lattice		    diamond ${lattice_constant}
lattice		    diamond 6.36339
Lattice spacing in x,y,z = 6.3633900 6.3633900 6.3633900

# Define region
# multiples of lattice spacing
#
region 		    simbox block 0 9 0 8 0 8

# Create Atoms
#
create_box          1 simbox
Created orthogonal box = (0.0000000 0.0000000 0.0000000) to (57.270510 50.907120 50.907120)
  3 by 1 by 2 MPI processor grid
create_atoms        1 box
Created 4608 atoms
  create_atoms CPU = 0.000 seconds
mass                1 18.015

# Define potential
#
pair_style          sw
pair_coeff          * * /data/emrosky-sim/Freezing_Simulations/Melting/mW_fancy/mW.sw mW
Reading sw potential file /data/emrosky-sim/Freezing_Simulations/Melting/mW_fancy/mW.sw with DATE: 2019-02-27

# Add velocity/set timestep
#
velocity            all create ${TEMP} 120598 rot yes dist gaussian
velocity            all create 276 120598 rot yes dist gaussian
timestep            5.0

# Define output
#
compute	            1 all msd
thermo              100
thermo_style        custom step temp press vol etotal ke pe c_1[4]

# Neighbor lists
#
neigh_modify        delay 0 every 1 check yes

# Set fixes
#
fix                 1 all momentum 10 linear 1 1 1 rescale
fix                 2 all nve
fix                 3 all temp/csvr ${TEMP} ${TEMP} 500.0 928347
fix                 3 all temp/csvr 276 ${TEMP} 500.0 928347
fix                 3 all temp/csvr 276 276 500.0 928347
fix                 4 all press/berendsen iso ${PRES} ${PRES} 1000.0 modulus 20000
fix                 4 all press/berendsen iso -1000 ${PRES} 1000.0 modulus 20000
fix                 4 all press/berendsen iso -1000 -1000 1000.0 modulus 20000

# Run 0.5 ns equilibration
#
dump		    1 all custom 1000 eq.${NAME}.dump id type x y z vx vy vz
dump		    1 all custom 1000 eq.ice_276K_-1000atm_mW.dump id type x y z vx vy vz
run                 100000
Neighbor list info ...
  update every 1 steps, delay 0 steps, check yes
  max neighbors/atom: 2000, page size: 100000
  master list distance cutoff = 6.3065
  ghost atom cutoff = 6.3065
  binsize = 3.15325, bins = 19 17 17
  1 neighbor lists, perpetual/occasional/extra = 1 0 0
  (1) pair sw, perpetual
      attributes: full, newton on
      pair build: full/bin/atomonly
      stencil: full/bin/3d
      bin: standard
Per MPI rank memory allocation (min/avg/max) = 4.778 | 4.778 | 4.778 Mbytes
Step Temp Press Volume TotEng KinEng PotEng c_1[4] 
       0          276   -4566.2965    148418.52   -52763.327    3790.1954   -56553.522            0 
     100    218.01095    -1510.596    142568.91   -51551.737    2993.8554   -54545.592   0.21091257 
     200    214.31125    -1002.843    142090.57   -50661.167    2943.0489   -53604.216   0.27535141 
     300    228.19121   -966.50905    142263.19   -50085.388    3133.6568   -53219.045   0.28978902 
     400    247.31581   -1011.0752       142464   -49691.232    3396.2871   -53087.519   0.26388378 
     500      263.731   -1022.3122    142611.59    -49410.98    3621.7102    -53032.69   0.27275253 
     600    265.29465   -959.56597    142729.83   -49146.773    3643.1832   -52789.957   0.29724438 
     700    273.28649   -954.42897     142767.8   -49073.808    3752.9318    -52826.74   0.25023289 
     800    270.27444   -997.52212    142813.24   -48988.776    3711.5685   -52700.344   0.27906352 
     900    273.00631     -1003.54    142878.67   -48977.865    3749.0842   -52726.949   0.27237856 
    1000    279.61224    -993.1615    142832.34   -49019.084    3839.8008   -52858.885   0.26408157 
    1100    279.31001   -984.83554    142876.87   -48959.218    3835.6504   -52794.868   0.25495027 
    1200    283.46416   -982.44398    142859.11   -48957.681    3892.6977   -52850.379    0.2653174 
    1300     278.7645   -1011.3785     142886.5   -48869.598    3828.1591   -52697.757   0.28744909 
    1400    272.64986   -974.02259    142888.44   -48965.119    3744.1893   -52709.308   0.25295541 
    1500    273.86365   -1020.3092    142850.39   -48999.236    3760.8578   -52760.094    0.2712256 
    1600     275.2323   -982.89453    142852.97   -48937.077    3779.6528    -52716.73   0.28221157 
    1700    274.46709   -1016.2974    142832.35   -48956.921    3769.1445   -52726.065   0.26446361 
    1800    272.83636   -992.64906    142830.18   -48954.919    3746.7504   -52701.669   0.26041783 
    1900    279.00927   -986.38975    142858.51   -48863.109    3831.5205    -52694.63   0.27771656 
    2000    280.01061    -1005.101    142878.75   -48811.735    3845.2715   -52657.006   0.28753729 
    2100    275.19367   -1028.7031    142863.35   -48977.711    3779.1223   -52756.834   0.25252175 
    2200    275.97952   -1012.0383    142876.06   -48911.709    3789.9142   -52701.623   0.27405702 
    2300    279.04284   -981.24785    142863.65   -48842.345    3831.9814   -52674.326   0.28844682 
    2400    275.40891   -980.05122    142861.18   -48868.846    3782.0782   -52650.924   0.26013212 
    2500    276.19722   -1002.4146    142856.88   -48910.938    3792.9037   -52703.841   0.26514984 
    2600    273.59381   -1010.7104    142845.25   -48947.105    3757.1522   -52704.257   0.28980561 
    2700     284.0338   -954.72498     142849.9   -48922.586    3900.5202   -52823.106   0.26453283 
    2800    281.71521   -956.47493    142870.44   -48832.845      3868.68   -52701.525   0.24998727 
    2900    276.94285   -989.65895    142919.87   -48848.577    3803.1431    -52651.72   0.28777227 
    3000    280.17519   -1000.5258    142876.33   -48903.955    3847.5316   -52751.487   0.27764607 
    3100    275.84405   -1014.8266    142846.07   -48877.003    3788.0537   -52665.056    0.2563286 
    3200    278.39527   -1003.3097    142834.24   -48983.734    3823.0887   -52806.822   0.27489269 
    3300    272.76362   -995.43105    142772.48    -49042.44    3745.7514   -52788.191   0.28072084 
    3400    276.03692   -987.28272    142789.98   -48977.602    3790.7024   -52768.305   0.26257144 
    3500    280.25505   -993.16725    142797.27    -48936.46    3848.6282   -52785.088   0.27096355 
    3600    271.66218   -993.15641    142823.93   -48946.363    3730.6259   -52676.989   0.28628517 
    3700    271.62334   -981.65384     142831.8   -48910.806    3730.0924   -52640.898   0.27504663 
    3800    279.73175   -1006.8574    142846.83   -48906.428     3841.442    -52747.87   0.26055845 
    3900    276.68433   -1011.6635    142848.66    -48902.34    3799.5929   -52701.933   0.28432061 
    4000    271.46641   -1033.4661    142850.24   -48954.293    3727.9375   -52682.231   0.28086234 
    4100    275.85206   -994.54395    142847.76   -48973.133    3788.1638   -52761.297   0.26273293 
    4200    277.56154   -982.39756    142848.25   -48923.577    3811.6394   -52735.216    0.2643735 
    4300    272.41173   -1022.4395    142824.21   -49056.809    3740.9191   -52797.728    0.2806172 
    4400    278.44033   -991.67262    142851.08   -48949.187    3823.7075   -52772.894   0.27404255 
    4500    280.01521   -1031.2716    142851.39   -49006.394    3845.3346   -52851.728   0.24609634 
    4600    268.28502   -994.49529     142825.9   -49038.115    3684.2487   -52722.363   0.28622236 
    4700    277.28454   -1017.9989    142816.86   -48940.207    3807.8354   -52748.042   0.28440885 
    4800     280.2054   -986.23507       142846   -48843.611    3847.9465   -52691.557   0.25722658 
    4900    283.19822   -1018.4383    142875.22   -48813.626    3889.0456   -52702.672   0.27513745 
    5000    277.16472   -1059.0025    142883.32   -48938.496      3806.19   -52744.686   0.29102704 
    5100    276.98238   -1039.2827    142855.47   -48867.701     3803.686   -52671.387   0.26379598 
    5200    274.59187   -979.58035    142861.48   -48932.343    3770.8581   -52703.201   0.26401837 
    5300    269.34334     -975.957    142788.25   -49035.016    3698.7822   -52733.798   0.29682758 
    5400    275.96002   -980.94096    142759.95    -49006.85    3789.6464   -52796.497   0.25984197 
    5500    278.04545   -964.06895    142782.68   -48969.021    3818.2847   -52787.306   0.26109514 
    5600     268.8843   -980.45076    142780.04   -48999.943    3692.4784   -52692.422   0.28903114 
    5700    271.62258   -1018.2748    142821.23   -49000.318     3730.082     -52730.4   0.27436461 
    5800    274.99212   -996.64962    142811.34   -48936.266    3776.3546   -52712.621   0.25956202 
    5900    273.49161   -1014.8116    142815.63   -49019.604    3755.7486   -52775.353   0.27471659 
    6000    274.33734   -969.65868    142800.58   -48993.188    3767.3628   -52760.551   0.27215638 
    6100    268.48954   -1012.9164    142790.99   -49065.734    3687.0573   -52752.791   0.25930509 
    6200    272.96636   -985.27911     142807.7   -49051.512    3748.5356   -52800.048   0.26946391 
    6300    275.40228   -985.93169    142838.07   -48935.807    3781.9871   -52717.794   0.27126313 
    6400    277.51678   -988.22313    142850.41   -48987.658    3811.0247   -52798.683   0.26387003 
    6500    273.30462   -1012.5232    142819.37   -48998.322    3753.1809   -52751.503   0.26680149 
    6600    278.47727   -1000.8644    142821.08   -49011.593    3824.2147   -52835.808   0.25932013 
    6700    272.53192   -1020.6505    142804.52   -49057.184    3742.5696   -52799.754   0.28684227 
    6800    275.97585   -956.21634    142824.26   -49018.673    3789.8637   -52808.536   0.25367988 
    6900    275.65242   -985.73146    142840.12   -48942.541    3785.4221   -52727.963   0.26021091 
    7000    276.95508   -972.69423    142824.38   -48938.252    3803.3111   -52741.563    0.2868004 
    7100    278.31036     -969.153    142848.53   -48949.911    3821.9226   -52771.834   0.25841243 
    7200     270.7163   -1015.0269    142830.25   -49061.386    3717.6365   -52779.022   0.26005014 
    7300    271.73186   -1062.7125    142781.01   -49104.756    3731.5827   -52836.338   0.27962637 
    7400    271.87278   -1011.7669    142803.52   -48999.467    3733.5179   -52732.985   0.28014593 
    7500    277.87474   -969.32663    142834.12   -48930.502    3815.9404   -52746.442    0.2469353 
    7600    275.29225   -986.42045    142849.05   -48900.806    3780.4761   -52681.282   0.27846304 
    7700    276.77534    -1031.366    142841.64   -49000.888    3800.8428    -52801.73   0.28130214 
    7800    272.24343   -1013.0633    142783.66   -49055.422     3738.608    -52794.03    0.2485368 
    7900    271.41396   -1024.6634    142794.49   -48999.284    3727.2172   -52726.501   0.28102214 
    8000    278.41486   -975.54555     142798.2   -48897.057    3823.3576   -52720.414   0.29481484 
    8100     277.4322    -983.3583     142838.9   -48867.058    3809.8632   -52676.921   0.26214748 
    8200    276.33381   -976.69084    142846.17   -48886.071    3794.7795   -52680.851   0.26601131 
    8300    277.96483   -1014.1204    142852.43   -48851.359    3817.1775   -52668.537   0.28674024 
    8400    276.32885   -1002.6113     142880.6   -48818.092    3794.7113   -52612.803   0.27927337 
    8500    276.59922   -985.99024    142876.51   -48910.186    3798.4242    -52708.61   0.25433874 
    8600    275.46276   -1002.0888    142842.11   -48919.685    3782.8177   -52702.503   0.28091527 
    8700    278.85139   -992.82268    142853.25       -48894    3829.3524   -52723.353   0.27796336 
    8800    280.39439   -995.42695    142819.24   -48932.449    3850.5418   -52782.991   0.26330036 
    8900    272.68815   -987.90797    142804.36   -48994.254     3744.715   -52738.969    0.2732921 
    9000    275.43077   -996.95554    142814.23   -48928.965    3782.3784   -52711.343   0.28165217 
    9100    273.21703    -1013.717    142819.46   -48971.635     3751.978   -52723.613   0.27556818 
    9200    276.30896    -969.8746       142863   -48873.956    3794.4382   -52668.394   0.25893975 
    9300    277.41925   -1003.2481    142829.27   -49013.053    3809.6853   -52822.739   0.27575621 
    9400    272.32949   -1032.7046    142792.05   -48981.045    3739.7897   -52720.835   0.28342457 
    9500    270.17801   -1015.0395    142792.86    -49022.79    3710.2443   -52733.034   0.27046517 
    9600    271.98105   -991.79141    142787.76    -49016.26    3735.0048   -52751.265   0.26386994 
    9700    280.23287   -984.28763    142806.76   -48893.909    3848.3237   -52742.232   0.28437949 
    9800    276.60305   -988.54187    142838.74   -48846.033    3798.4768    -52644.51   0.28307015 
    9900    278.36101   -949.98903    142866.99   -48882.545    3822.6182   -52705.163   0.25283957 
   10000    278.60893   -1011.0717    142830.27   -48934.562    3826.0227   -52760.584    0.2804977 
   10100    277.06311   -937.96157    142859.07    -48888.01    3804.7947   -52692.804   0.27481408 
   10200     279.1862   -1003.4488    142871.16   -48857.928    3833.9502   -52691.879   0.25235234 
   10300    276.55853   -994.73101    142890.26   -48859.906    3797.8654   -52657.772   0.27268696 
   10400    278.52035    -982.4536    142875.66   -48863.259    3824.8062   -52688.065   0.29540549 
   10500    275.97998   -988.86164    142838.47   -48909.375    3789.9204   -52699.295   0.25747419 
   10600    277.19043   -1007.8563     142849.9    -48930.46     3806.543   -52737.003   0.26113602 
   10700    276.05261   -1007.3033    142851.68   -48958.089    3790.9178   -52749.007   0.29013816 
   10800    266.48269   -1031.5756    142820.55   -49085.307    3659.4981   -52744.805   0.26151081 
   10900    267.33629   -1030.3283    142781.66   -49072.721    3671.2202   -52743.941   0.25934014 
   11000    268.04622   -1012.9031    142771.01   -49083.057    3680.9693   -52764.026   0.28926603 
   11100    273.17214   -999.30605    142791.39   -48990.626    3751.3615   -52741.988   0.27406616 
   11200    270.61922   -1029.4936    142792.73   -49095.213    3716.3033   -52811.517   0.25564385 
   11300    273.18219   -1018.1971    142812.84   -49010.472    3751.4995   -52761.971   0.27965865 
   11400    273.42117   -997.48509    142827.44   -48990.494    3754.7813   -52745.275   0.27864071 
   11500    279.46235   -992.07214    142856.19   -48895.724    3837.7423   -52733.467   0.25942951 
   11600      276.832   -1034.5827    142906.92   -48897.834    3801.6209   -52699.454   0.27328281 
   11700    280.32524   -980.35983    142949.46    -48770.06    3849.5921   -52619.652   0.27519231 
   11800    279.38249   -974.47411    142927.96   -48836.083    3836.6457   -52672.728   0.26301169 
   11900    275.03137   -998.49616    142887.59   -48882.535    3776.8936   -52659.428   0.27060252 
   12000    281.60873   -1040.3068    142908.88   -48854.159    3867.2178   -52721.377   0.26809053 
   12100     276.3807    -961.2155    142888.41   -48901.921    3795.4233   -52697.345   0.27996099 
   12200    279.14971   -998.08109    142897.54   -48902.247    3833.4491   -52735.696   0.26252665 
   12300    277.18509   -1032.2992    142893.23   -48960.189    3806.4697   -52766.659   0.26171679 
   12400    276.49811   -971.26545    142893.23   -48953.084    3797.0358    -52750.12   0.27821339 
   12500    277.45984   -952.71785    142916.42   -48891.961    3810.2427   -52702.204   0.26767622 
   12600    278.02961   -1004.7429    142903.54   -48855.146    3818.0672   -52673.214   0.25647355 
   12700     277.1075   -1040.0039    142873.41   -48921.176    3805.4042    -52726.58   0.27890146 
   12800    276.85121   -1008.0104    142881.64   -48908.652    3801.8847   -52710.536   0.28354335 
   12900    275.22908   -1011.6233    142844.24   -48963.496    3779.6087   -52743.105    0.2537485 
   13000    276.60829   -1002.0592    142837.97   -48942.486    3798.5488   -52741.035    0.2749163 
   13100    270.44303   -1023.3259    142790.45   -49010.452    3713.8838   -52724.336   0.29380668 
   13200    271.01506   -993.80032     142808.3   -49043.532    3721.7392   -52765.271   0.25288657 
   13300    268.02462   -999.58084    142809.12   -49121.593    3680.6727   -52802.266   0.26277558 
   13400    269.03754   -983.91456    142783.35   -49105.716    3694.5828   -52800.299   0.28854027 
   13500    277.21322   -989.98487    142801.33   -49020.028    3806.8561   -52826.884   0.25986362 
   13600    277.78366   -981.90951     142830.3   -48968.662    3814.6896   -52783.351   0.26065403 
   13700    272.58779    -984.7635    142830.44   -49004.441    3743.3369   -52747.778   0.28246515 
   13800    275.16495   -974.90014    142846.65   -48945.082    3778.7279    -52723.81   0.27592597 
   13900     276.9007   -1034.4997    142864.55   -48946.276    3802.5643    -52748.84   0.25106241 
   14000    279.24625   -1033.4516     142898.6   -48837.141    3834.7748   -52671.916   0.28226628 
   14100    278.54808   -1049.4754    142895.51    -48923.76    3825.1871   -52748.947   0.27146138 
   14200    279.14704   -978.81876    142867.68   -48931.451    3833.4123   -52764.864   0.25320764 
   14300    271.74646   -1033.8556    142869.91   -48961.359    3731.7832   -52693.142   0.27507559 
   14400    267.82918   -1035.7796    142831.61   -49017.815    3677.9889   -52695.804   0.27478776 
   14500    275.41135   -1006.5904    142823.95   -49037.235    3782.1116   -52819.346   0.26970098 
   14600    274.01392    -1012.668    142796.69   -48986.741    3762.9214   -52749.662    0.2631853 
   14700     276.1733   -986.94939    142808.25   -48944.497    3792.5752   -52737.072   0.27109861 
   14800    276.48943   -1044.7877     142839.4   -48914.564    3796.9166   -52711.481   0.27859934 
   14900    276.12035   -1031.7261    142827.58   -48925.257    3791.8481   -52717.105   0.27318554 
   15000    273.86657   -1020.0126    142813.71   -48985.164    3760.8978   -52746.062   0.27025471 
   15100    271.39392   -982.58135    142821.49   -49001.778    3726.9419    -52728.72    0.2731693 
   15200    279.09258   -978.40923    142825.16   -48931.057    3832.6644   -52763.721   0.28102381 
   15300    268.82832    -1056.686    142831.51    -49014.26    3691.7096    -52705.97   0.25885933 
   15400    275.35424   -980.09835     142827.6    -49004.87    3781.3275   -52786.198   0.27439696 
   15500    274.97944   -1023.2853     142806.7   -48942.035    3776.1804   -52718.215   0.29062258 
   15600    282.75741   -1002.7324    142879.78   -48832.524    3882.9922   -52715.516   0.24822842 
   15700    282.47368   -993.07415    142860.66   -48842.677    3879.0958   -52721.773   0.27342531 
   15800    276.91026   -1002.7727     142876.5   -48845.952    3802.6956   -52648.648   0.29576512 
   15900    278.14242   -1017.2286    142863.15    -48865.31    3819.6163   -52684.927   0.25747504 
   16000    271.33906   -1050.3916    142832.95   -48902.814    3726.1886   -52629.003   0.26812952 
   16100    275.18314   -979.28213    142803.07   -48941.522    3778.9777     -52720.5   0.29726178 
   16200    269.01474   -1009.7245    142841.04   -48950.103    3694.2696   -52644.373   0.26936669 
   16300    275.94104   -1021.6305    142819.93   -48965.424    3789.3856   -52754.809   0.25184884 
   16400    269.29356   -991.69688    142807.34   -48975.026    3698.0986   -52673.124   0.29891086 
   16500    279.84842   -1009.7441    142836.92   -48898.386    3843.0441    -52741.43   0.27199914 
   16600    279.92152   -1041.8069    142847.07   -48825.695    3844.0479   -52669.743   0.25784832 
   16700    278.60522   -998.05606    142844.39   -48866.118    3825.9717    -52692.09   0.28810542 
   16800    274.92123   -989.15366    142849.93   -48923.363     3775.381   -52698.744     0.273999 
   16900    274.33057   -1020.2483    142824.81   -48946.892    3767.2697   -52714.162   0.26327545 
   17000    275.93344    -993.1205    142792.54   -48988.339    3789.2814    -52777.62   0.27699126 
   17100    277.93152   -1009.0229    142820.81   -48940.825    3816.7202   -52757.545    0.2775221 
   17200    275.66756   -995.23279    142814.87   -48999.172      3785.63   -52784.802   0.26558807 
   17300    271.16558   -1046.6572     142772.9   -49087.575    3723.8063   -52811.382   0.27975224 
   17400    269.80431   -1014.7667    142723.42   -49078.929    3705.1125   -52784.042   0.27338523 
   17500    276.24042   -983.57194    142770.31   -48981.639     3793.497   -52775.136   0.27845302 
   17600    273.51001   -998.12681    142786.22   -48992.577    3756.0014   -52748.579   0.28227965 
   17700    275.33813   -995.31633    142785.85    -49046.13    3781.1062   -52827.236   0.26013377 
   17800    269.32823   -1033.9449    142742.81   -49000.387    3698.5747   -52698.962   0.29279371 
   17900    273.90211   -986.34787    142783.36   -48946.181    3761.3859   -52707.567   0.28116856 
   18000    278.17396   -1009.2346    142798.56   -48861.022    3820.0494   -52681.072   0.25857136 
   18100    278.57037   -1017.8779    142814.38   -48867.617    3825.4932    -52693.11   0.28661527 
   18200     277.4067   -1002.5034    142791.88   -48911.574     3809.513   -52721.087   0.29546654 
   18300    275.60685   -1008.2596    142782.75   -48913.423    3784.7964    -52698.22   0.25742072 
   18400    275.87011   -1004.8339    142760.94   -49005.957    3788.4117   -52794.368   0.26868364 
   18500    271.06292   -1022.9209    142769.94   -48949.375    3722.3965   -52671.771   0.30466359 
   18600    275.99467   -1009.9873    142792.52    -48905.15    3790.1222   -52695.272   0.25612588 
   18700    277.14778   -992.37803    142800.77   -48920.763    3805.9574    -52726.72   0.26615156 
   18800    272.20766   -1001.0466    142758.29   -48937.319    3738.1167   -52675.435   0.30140348 
   18900    274.45315   -996.37872    142782.39   -48899.233    3768.9531   -52668.186    0.2668552 
   19000    275.35396   -1013.9053    142792.33   -48927.203    3781.3236   -52708.527   0.26911014 
   19100    279.63559   -955.06745    142817.02   -48839.071    3840.1214   -52679.193   0.29757338 
   19200    278.74189   -1007.8392    142843.95   -48876.565    3827.8486   -52704.413    0.2738746 
   19300    280.48132    -971.8849    142877.23   -48765.787    3851.7355   -52617.523   0.26201842 
   19400    278.26647   -1022.3575    142878.77    -48833.16    3821.3198    -52654.48   0.28477815 
   19500    278.00554   -996.27138    142867.08   -48831.482    3817.7367   -52649.219   0.28135907 
   19600    283.43633   -947.55931     142871.1   -48825.772    3892.3154   -52718.087   0.26206668 
   19700    277.56617   -983.64429    142899.85   -48878.973    3811.7029   -52690.676   0.26545857 
   19800    282.03411   -985.00063    142897.82   -48829.316    3873.0594   -52702.376   0.27984652 
   19900    282.30762   -1012.7021    142884.21   -48909.398    3876.8154   -52786.213   0.26813267 
   20000    279.51885     -1032.21    142866.96   -48932.199    3838.5183   -52770.717   0.26469522 
   20100    272.97305   -1020.7577     142822.1   -48978.697    3748.6275   -52727.324   0.27152129 
   20200     274.9263   -946.19707    142836.26   -48956.153    3775.4507   -52731.604   0.28098355 
   20300    279.49699   -988.30536    142850.48   -48923.476     3838.218   -52761.694   0.26879042 
   20400    272.06257   -1047.6798    142814.48   -48974.213    3736.1243   -52710.337   0.26585391 
   20500     268.9271   -1059.6736    142789.51   -49014.143    3693.0661   -52707.209   0.29835455 
   20600    273.73018   -994.01685    142790.35   -49032.683    3759.0248   -52791.708   0.27533293 
   20700    275.20605   -969.10614    142816.33   -48980.932    3779.2923   -52760.224   0.26080983 
   20800    279.04026   -999.85006    142835.77   -48845.517     3831.946   -52677.463   0.29034805 
   20900    280.54438    -1020.665    142856.02   -48952.652    3852.6015   -52805.254   0.27918001 
   21000    276.59928   -1021.6924    142841.61   -48956.928    3798.4251   -52755.353   0.25050307 
   21100    278.16376   -1012.4836    142836.02   -48838.541    3819.9095    -52658.45   0.27825446 
   21200    278.98464   -992.25497    142891.47   -48865.801    3831.1822   -52696.984   0.28925533 
   21300    274.22219   -1020.5423    142857.48     -48855.6    3765.7814   -52621.381   0.25841244 
   21400    280.22049   -990.55513    142828.64   -48892.562    3848.1537   -52740.716   0.26661768 
   21500     279.8138   -987.93573    142849.33    -48804.48    3842.5687   -52647.048    0.2932862 
   21600    279.84309   -998.15032    142868.73   -48808.246     3842.971   -52651.217    0.2638861 
   21700    270.73761    -984.9526    142871.01   -48938.652    3717.9291   -52656.581   0.26049117 
   21800    274.74288   -1027.6032    142834.38   -48971.002    3772.9318   -52743.934   0.29187316 
   21900    273.55827   -1002.7143     142821.3   -48941.853    3756.6641   -52698.517   0.27240672 
   22000    272.46397   -991.93341    142830.38   -48978.457    3741.6365   -52720.093   0.24908736 
   22100    275.89289   -1014.4481    142837.53   -49019.563    3788.7245   -52808.288   0.27919242 
   22200    274.03032   -1020.9053    142776.35   -49101.713    3763.1466    -52864.86   0.27248108 
   22300    275.20429   -993.31407    142780.93   -48990.481    3779.2681   -52769.749   0.26249762 
   22400    275.71179   -1026.1192    142819.45   -48939.977    3786.2375   -52726.214   0.27363834 
   22500    280.07316   -978.86366    142841.26   -48891.349    3846.1304   -52737.479   0.27231265 
   22600    278.92989   -978.04818    142809.65   -48923.405    3830.4304   -52753.835   0.27292199 
   22700    275.17728   -985.80947    142775.74   -48981.771    3778.8973   -52760.669   0.26884256 
   22800    278.32258   -1014.0929    142807.37   -48912.278    3822.0904   -52734.368    0.2784361 
   22900    276.12731   -970.86259    142798.54   -48948.549    3791.9437   -52740.492   0.27792644 
   23000    273.32293   -966.03821    142788.77   -49016.785    3753.4323   -52770.218   0.27296952 
   23100    275.51161   -960.94151    142815.14   -48962.386    3783.4885   -52745.875   0.25636049 
   23200    271.60675   -1007.8627     142837.1    -48912.17    3729.8646   -52642.035   0.28472031 
   23300     277.7671   -1025.6741    142839.79   -48906.605    3814.4623   -52721.067   0.27608018 
   23400    274.16017   -1018.5502    142852.59    -48951.45    3764.9297   -52716.379   0.24546097 
   23500    276.15737   -987.79022    142860.02   -48842.963    3792.3565    -52635.32   0.28547289 
   23600    279.05623   -983.19443    142883.84   -48860.039    3832.1653   -52692.205    0.2796502 
   23700    281.16192   -1004.6463    142860.19   -48852.159    3861.0819   -52713.241   0.24836694 
   23800    278.62613   -1006.7632    142837.54   -48861.073    3826.2589   -52687.332   0.27583171 
   23900     273.2189   -1042.3467    142828.63   -48944.639    3752.0036   -52696.643   0.29543887 
   24000    281.52781   -1012.2897    142876.08    -48899.21    3866.1065   -52765.316   0.25240734 
   24100    281.47545   -931.49846    142896.77   -48826.537    3865.3875   -52691.924   0.25761481 
   24200    273.26717   -999.14703     142870.7   -48951.285    3752.6666   -52703.951   0.28997489 
   24300    275.34277   -983.73166    142840.71   -48992.591    3781.1699   -52773.761   0.25406991 
   24400     275.1088   -1011.1551    142835.61   -49022.288    3777.9568   -52800.245   0.25944875 
   24500    272.99647    -1021.239    142834.15   -48973.854    3748.9491   -52722.803   0.29527655 
   24600    278.82753   -992.24265    142828.39   -49025.023    3829.0247   -52854.048   0.25485577 
   24700    274.73689   -1012.0955    142823.92   -49026.787    3772.8496   -52799.636   0.26697579 
   24800    272.97416   -991.28493    142842.97   -48967.726    3748.6427   -52716.369   0.27463466 
   24900    275.17274    -986.7466    142799.72   -49022.933    3778.8349   -52801.768   0.26874628 
   25000    277.36054   -1024.2365    142818.46   -49013.257    3808.8791   -52822.136   0.25990289 
   25100    273.29919   -1025.0084    142806.34   -49059.052    3753.1062   -52812.158    0.2713416 
   25200    264.49676   -1035.8311    142759.39   -49190.996     3632.226   -52823.222   0.26971559 
   25300    275.32402     -983.434    142780.02   -49034.378    3780.9124   -52815.291   0.26758898 
   25400    272.65157   -985.54056    142787.81   -49070.142    3744.2127   -52814.355   0.27080334 
   25500    275.97275   -978.61258    142792.92   -48956.467    3789.8211   -52746.288   0.27027111 
   25600    277.30208   -972.36469    142850.67   -48885.938    3808.0764   -52694.014   0.28158288 
   25700    275.87622   -955.35736    142819.12   -48965.229    3788.4956   -52753.724   0.26640682 
   25800    277.35691    -998.1557     142873.4    -48832.59    3808.8292    -52641.42   0.26496373 
   25900    280.54326   -1014.7786    142891.97   -48856.713     3852.586   -52709.299   0.27885393 
   26000    273.56832   -1014.4502    142845.96   -48895.515    3756.8021   -52652.317   0.28202576 
   26100    276.36202   -998.70511    142856.68    -48886.01    3795.1668   -52681.177    0.2579566 
   26200    275.51667   -983.47429    142842.74   -48982.535     3783.558   -52766.093   0.28480297 
   26300    272.60803   -1014.0203    142825.89   -48946.947    3743.6148   -52690.561   0.28005544 
   26400    269.90906   -1024.2338    142822.05   -49001.084     3706.551   -52707.635   0.25074965 
   26500    274.58779   -997.98357    142844.15   -48916.343    3770.8021   -52687.146   0.28730786 
   26600     276.8005   -991.81683    142891.46   -48868.592    3801.1883    -52669.78   0.27916929 
   26700    272.52353   -1025.6692    142882.69   -48867.812    3742.4544   -52610.267    0.2582734 
   26800    273.95692    -1027.099    142865.16   -48920.672    3762.1386   -52682.811   0.27868047 
   26900    280.73113   -979.46868    142850.58   -48859.778     3855.166   -52714.944    0.2897713 
   27000    277.20235   -1028.4085     142857.1   -48892.722    3806.7067   -52699.428   0.26376559 
   27100    283.44433   -970.51321    142865.22   -48834.941    3892.4254   -52727.367   0.26483856 
   27200    277.04518   -1023.5651     142864.6   -48903.495    3804.5484   -52708.043   0.28719451 
   27300    284.96949   -967.53284    142880.52   -48740.809    3913.3697   -52654.178   0.26962418 
   27400    275.98343    -1043.991    142886.57   -48855.982    3789.9678    -52645.95   0.26710275 
   27500    274.79645   -1033.1353    142833.74   -48961.225    3773.6676   -52734.892   0.28581727 
   27600    274.53649   -1010.3481    142764.19   -49008.904    3770.0975   -52779.002   0.27901394 
   27700    276.69712   -994.92566    142799.96   -48905.554    3799.7686   -52705.323   0.27786009 
   27800    280.61441   -980.97942    142820.01   -48881.274    3853.5632   -52734.837   0.27431863 
   27900    274.82565    -1016.753    142817.77   -48941.613    3774.0685   -52715.682   0.27792432 
   28000    269.82258   -1016.0308    142796.06   -49009.387    3705.3634    -52714.75   0.27705015 
   28100    268.33079   -1028.0323    142789.79   -48989.323    3684.8772     -52674.2   0.27539639 
   28200    274.08972   -1020.0451    142804.95   -48964.758    3763.9623    -52728.72   0.27127244 
   28300    274.13796   -996.62012    142777.12     -48981.1    3764.6248   -52745.725   0.28632807 
   28400    279.10958   -993.76543    142801.46    -48917.59    3832.8979   -52750.488   0.27769252 
   28500    277.05608    -1008.128    142796.32   -48948.779    3804.6981   -52753.477   0.26567979 
   28600    276.61161   -1016.8069    142797.64   -48955.745    3798.5944   -52754.339    0.2882512 
   28700    277.55788   -956.20854    142780.35   -48951.819    3811.5891   -52763.408   0.28254802 
   28800    276.13695   -988.45244    142773.68   -48991.847     3792.076   -52783.923   0.25877131 
   28900    275.31772   -996.43813    142765.65   -48966.454    3780.8258    -52747.28   0.28641686 
   29000    275.33106   -999.98435    142761.53   -48908.779    3781.0091   -52689.788   0.30309053 
   29100    279.21401   -1037.0291    142771.98   -48906.536    3834.3321   -52740.868   0.26044265 
   29200     280.2995   -1016.8902     142798.7   -48841.098    3849.2386   -52690.336   0.29347897 
   29300    276.76348   -978.68276    142824.15   -48846.572    3800.6799   -52647.252   0.29772831 
   29400    272.24049      -1020.5    142821.46   -48858.004    3738.5675   -52596.572   0.26477521 
   29500    279.30465   -1038.3349    142843.87   -48906.868    3835.5768   -52742.444   0.27419017 
   29600    274.37061   -961.15987    142797.06   -48872.966    3767.8197   -52640.786   0.29939711 
   29700    276.56854   -992.82349    142812.66   -48948.655    3798.0029   -52746.658   0.26316749 
   29800     276.2322   -956.81769    142779.14   -49034.631     3793.384   -52828.015   0.25770374 
   29900    271.61679   -982.71146    142768.14   -49017.323    3730.0025   -52747.326   0.30100047 
   30000    274.76643   -1015.3716    142778.07   -48984.109    3773.2553   -52757.365   0.26847887 
   30100    270.62215   -1003.1593    142810.62   -48956.794    3716.3435   -52673.137   0.27293957 
   30200    273.88951   -1030.1214    142838.47   -48969.485    3761.2129   -52730.698   0.28295649 
   30300    278.71618   -981.93115    142824.74   -48958.193    3827.4956   -52785.689   0.27041879 
   30400    277.80431   -1001.6633    142818.77   -48993.165    3814.9733   -52808.138   0.26849467 
   30500    272.09162   -979.57771    142791.81   -49087.958    3736.5232   -52824.481   0.27090557 
   30600    277.38334    -971.8889    142805.11   -48969.808    3809.1922       -52779   0.27918615 
   30700    275.89096   -970.17307    142797.73   -48998.832    3788.6979    -52787.53   0.27268367 
   30800    277.98422    -963.9265    142813.92   -48936.237    3817.4438    -52753.68   0.27142956 
   30900    276.28504    -984.6872    142833.84   -48909.031    3794.1097   -52703.141   0.27553156 
   31000    271.17969   -1002.4052    142825.79   -48940.556    3724.0001   -52664.556    0.2784757 
   31100    274.90611   -993.74128    142793.09   -48952.309    3775.1734   -52727.482   0.27334025 
   31200    278.21858   -990.89789    142812.45   -48896.154    3820.6622   -52716.816   0.26720022 
   31300     275.2364   -977.09527    142868.98   -48837.807    3779.7091   -52617.516   0.29010681 
   31400    273.61046   -1009.0707    142846.33    -48946.72    3757.3808   -52704.101    0.2788275 
   31500    273.89937   -1019.4581     142839.8   -48899.389    3761.3482   -52660.738   0.26123337 
   31600    277.00336   -1007.6141    142832.18   -48925.626    3803.9741     -52729.6   0.28307354 
   31700     280.6458   -1001.4955     142815.5    -48893.45    3853.9942   -52747.444   0.28020477 
   31800     277.1474    -1018.498    142846.54    -48955.65    3805.9522   -52761.602   0.25065218 
   31900    276.66551   -973.09333    142839.77   -48942.747    3799.3345   -52742.082   0.27640077 
   32000    276.84664   -997.28276    142813.26   -48895.678    3801.8219   -52697.499   0.28975982 
   32100    274.15048    -1045.036    142804.46   -48927.471    3764.7967   -52692.267   0.26956448 
   32200    271.83562   -1049.0246    142778.65   -49050.908    3733.0076   -52783.916    0.2701396 
   32300    275.97278   -980.36212    142779.37   -48995.729    3789.8216   -52785.551    0.2885069 
   32400    269.43882   -1031.3941    142772.53   -49086.654    3700.0934   -52786.747   0.26922813 
   32500    277.33073   -996.15358    142791.37   -48946.379    3808.4697   -52754.849   0.26616557 
   32600    280.03533   -1012.5461    142798.52   -48901.109     3845.611    -52746.72   0.29263549 
   32700    273.82115   -1004.0076    142796.38   -48992.357    3760.2742   -52752.632   0.27094693 
   32800    276.60657    -996.9217    142836.45   -48867.206    3798.5251   -52665.732   0.27095699 
   32900    273.32501   -1039.5796    142824.19    -48937.33    3753.4608   -52690.791   0.27970376 
   33000    277.42203   -1018.2134    142822.38   -48925.817    3809.7235    -52735.54    0.2843629 
   33100    274.83867   -1032.9652    142800.37   -48954.024    3774.2473   -52728.271   0.27494512 
   33200    280.20723    -988.3256     142801.6   -48934.649    3847.9715   -52782.621    0.2660208 
   33300    280.52011   -981.37081    142782.56   -48934.451    3852.2681   -52786.719    0.2784703 
   33400    275.09443   -1033.9328    142803.42   -48958.642    3777.7595   -52736.401   0.28133686 
   33500    276.45878   -999.37888    142786.42   -48976.807    3796.4957   -52773.303   0.27122502 
   33600    272.49589   -975.90952    142789.65   -48987.222    3742.0748   -52729.296   0.26883585 
   33700    276.47213   -969.46769    142788.97   -48887.045    3796.6789   -52683.724   0.29118994 
   33800    283.06907   -967.86352    142853.39   -48788.958     3887.272    -52676.23   0.27907679 
   33900    285.29545   -1011.0601    142858.52     -48814.4    3917.8459   -52732.246   0.26507254 
   34000    273.40213   -1018.9256    142792.13   -48949.041    3754.5198    -52703.56   0.29228322 
   34100    277.86692   -997.55154    142788.68   -48968.605     3815.833   -52784.438   0.28376112 
   34200    275.28999   -1008.2636    142781.09   -48966.559    3780.4451   -52747.004   0.25925359 
   34300    276.90291    -984.5991    142772.57    -48997.27    3802.5947   -52799.865   0.28496936 
   34400    279.10304   -998.91916    142773.34   -48930.047    3832.8082   -52762.855   0.29200025 
   34500    282.67206   -1003.8088    142805.52   -48859.809    3881.8201   -52741.629   0.26431541 
   34600    278.64617   -1034.0815    142849.74   -48860.542    3826.5341   -52687.076   0.28364942 
   34700     274.5545   -1080.4802       142792    -48971.83    3770.3448   -52742.175   0.30124313 
   34800    276.27466   -1025.7405    142762.66   -48964.462    3793.9672   -52758.429   0.26630935 
   34900    276.43295   -993.94287    142776.46   -48950.534    3796.1409   -52746.675    0.2705915 
   35000    278.60649   -941.72356    142738.71   -48922.061    3825.9892    -52748.05   0.29536297 
   35100     275.7463   -1008.0125    142744.32   -48936.608    3786.7114   -52723.319   0.27926201 
   35200     280.8672   -986.21099    142798.05   -48876.597    3857.0347   -52733.632   0.26554994 
   35300    276.06739   -1036.1237    142789.61   -48949.007    3791.1208   -52740.128   0.29632797 
   35400    275.27906   -999.90233    142768.14   -48951.897     3780.295   -52732.192   0.28364754 
   35500    273.35382   -981.13533     142754.8   -48939.114    3753.8564   -52692.971   0.26425859 
   35600    271.81561   -1003.7256    142759.28   -48914.569    3732.7329   -52647.302   0.29535276 
   35700    277.42858   -1004.1298     142752.9   -48929.512    3809.8135   -52739.326   0.27986327 
   35800    277.91022   -975.84993    142819.95   -48769.507    3816.4276   -52585.935   0.27933564 
   35900    275.07827   -1013.5626    142793.67    -48878.52    3777.5376   -52656.057    0.2829916 
   36000    278.44758    -1003.734    142794.39   -48934.194    3823.8069   -52758.001   0.28102513 
   36100    275.95858   -973.45381    142792.45   -48977.378    3789.6266   -52767.005   0.27847311 
   36200    273.85483   -996.79203     142801.2   -49008.791    3760.7367   -52769.527   0.26875878 
   36300    270.57785   -1017.3342    142783.22   -48945.949    3715.7352   -52661.684   0.28138008 
   36400    273.64412   -1026.5045    142796.09   -48996.788    3757.8431   -52754.631   0.27943489 
   36500    277.23868   -982.51534    142830.57   -48980.293    3807.2056   -52787.498   0.26869453 
   36600    273.42268   -991.39725    142823.15   -48977.516     3754.802   -52732.318   0.26303618 
   36700    271.07596     -1016.53     142824.5   -49019.955    3722.5756   -52742.531   0.28342522 
   36800    270.23391   -1043.4538    142780.79   -49091.354     3711.012   -52802.366   0.28224521 
   36900    270.76423   -983.13176    142793.78   -49006.172    3718.2947   -52724.467   0.25705241 
   37000    274.09461   -1023.0819    142807.64   -48996.371    3764.0294   -52760.401   0.28462185 
   37100    272.38247   -1029.5474    142756.66   -49030.282    3740.5172   -52770.799   0.28813357 
   37200    271.07038   -979.51076    142784.71   -49037.242    3722.4989   -52759.741   0.25651657 
   37300    273.68761   -986.73696    142780.98   -49036.727    3758.4402   -52795.167   0.27822559 
   37400    274.57357   -982.91832    142794.04   -49047.341    3770.6068   -52817.948   0.28525734 
   37500    272.14402   -983.14627    142779.81   -49018.734    3737.2427   -52755.976   0.26524117 
   37600    267.71209   -969.22449    142806.78    -49067.54    3676.3809   -52743.921    0.2738769 
   37700     271.0287   -1004.8141    142767.24    -49142.85    3721.9266   -52864.777   0.29238723 
   37800    267.50926   -977.35355    142740.62   -49162.627    3673.5954   -52836.222   0.26611606 
   37900    272.14385   -990.30933    142765.21   -49073.296    3737.2404   -52810.536    0.2651018 
   38000     276.4184   -1013.1212    142803.63   -49010.804    3795.9411   -52806.745   0.29324357 
   38100    278.74182   -996.83792    142811.17   -48948.832    3827.8476    -52776.68   0.27279757 
   38200    280.05412   -993.67429     142827.5   -48919.045    3845.8689   -52764.914   0.27275714 
   38300    279.97276   -938.80469    142843.21   -48965.889    3844.7516   -52810.641    0.2706196 
   38400    276.28809   -1022.5167    142837.85   -48902.775    3794.1516   -52696.927   0.28323931 
   38500    278.24891   -1005.8447    142810.22   -48962.687    3821.0787   -52783.766    0.2816914 
   38600    277.28402   -1006.3926    142803.94    -48918.33    3807.8283   -52726.158   0.27123899 
   38700    277.49671   -992.22403     142811.9   -48883.643    3810.7491   -52694.392   0.29027719 
   38800    273.73979   -974.60565    142819.68   -48920.521    3759.1569   -52679.678   0.28282821 
   38900    275.92475   -1008.4592    142835.05   -48866.282     3789.162   -52655.444   0.27296433 
   39000    276.95272   -1002.0407    142815.24   -48915.989    3803.2787   -52719.268   0.27878253 
   39100    271.96597   -971.09992    142789.42   -48927.951    3734.7977   -52662.749   0.28730063 
   39200    272.92578   -1021.5147    142763.47   -49050.238    3747.9783   -52798.216   0.27459357 
   39300     269.6038   -995.61536    142716.84   -49065.792     3702.359   -52768.151    0.2778262 
   39400    272.77963   -1007.0683    142765.47   -48946.264    3745.9713   -52692.235   0.29745971 
   39500    275.62522   -1000.2322    142790.18   -48924.543    3785.0486   -52709.591   0.27389862 
   39600    281.04576   -969.51908    142809.61   -48924.976    3859.4867   -52784.463   0.26819253 
   39700    276.09676   -1009.9389    142788.33   -48910.169    3791.5241   -52701.693   0.29305456 
   39800    274.94253   -1047.6727    142802.19   -48937.738    3775.6735   -52713.412   0.27641342 
   39900    278.87371   -1012.5866    142797.39   -48903.565    3829.6588   -52733.224   0.27486288 
   40000    273.31741   -968.88202    142799.57   -48965.359    3753.3564   -52718.716   0.27638367 
   40100    271.87985   -988.17599    142811.58   -48979.744    3733.6151   -52713.359   0.28347528 
   40200    275.87212   -1035.1739    142815.94   -48954.495    3788.4392   -52742.934   0.27263923 
   40300     280.9679   -998.98168    142792.24   -48961.535    3858.4175   -52819.952   0.27135777 
   40400    270.21347   -1004.6485    142765.88   -49049.148    3710.7314   -52759.879   0.28385499 
   40500    274.48792   -1042.9341    142786.45   -48914.116    3769.4305   -52683.547    0.2886466 
   40600    274.12085   -1013.4897     142776.6   -48980.302    3764.3897   -52744.691   0.27638298 
   40700    277.06315   -967.88486    142757.05   -48985.566    3804.7951   -52790.361   0.26992796 
   40800    278.91911   -1004.7533    142790.24   -48965.571    3830.2824   -52795.854   0.29083249 
   40900    275.76108   -961.02052    142771.93    -48950.55    3786.9143   -52737.464   0.27327179 
   41000    274.89203   -1069.4266    142734.39   -49013.065      3774.98   -52788.045   0.28204189 
   41100    274.23331   -1003.9151     142758.2   -48984.421    3765.9341   -52750.355   0.28829147 
   41200    277.85084   -995.23689    142787.47   -48872.424    3815.6122   -52688.036   0.27308596 
   41300    276.55051    -1012.339    142790.67   -48955.085    3797.7553    -52752.84   0.27212705 
   41400    281.44702    -1008.261    142796.83   -48905.157    3864.9971   -52770.154   0.28083029 
   41500    273.76371   -993.00361    142786.82     -48915.5    3759.4852   -52674.985   0.27897049 
   41600    277.73432   -984.12328    142799.18   -48923.917    3814.0121   -52737.929    0.2745416 
   41700    271.15655   -977.17347    142775.42   -49024.312    3723.6822   -52747.994   0.27872518 
   41800    283.72924   -982.78879    142852.97   -48953.515    3896.3379   -52849.853   0.27428471 
   41900    273.71944   -996.84365    142846.19   -49028.633    3758.8774    -52787.51   0.26598072 
   42000     275.0816   -958.98555    142806.24   -48997.107    3777.5833    -52774.69   0.27072457 
   42100    275.39888   -992.21685    142812.98   -49069.572    3781.9404   -52851.512   0.27362319 
   42200    273.29431   -999.43431     142810.6   -49037.162    3753.0392   -52790.201   0.28019973 
   42300    270.29681   -1028.8865    142837.98   -49001.694    3711.8757    -52713.57   0.26793119 
   42400    272.09017   -1021.1953     142825.3   -49023.349    3736.5032   -52759.852   0.27081484 
   42500    274.48948   -959.46097    142815.06   -48981.224     3769.452   -52750.676   0.28300301 
   42600    270.97794   -1020.5093    142809.24   -49018.282    3721.2294   -52739.512   0.26508478 
   42700    269.65184   -1020.1355    142803.01   -49083.983    3703.0186   -52787.001   0.27982253 
   42800    271.55587    -958.7514    142792.14   -48997.381    3729.1659   -52726.547   0.28445248 
   42900    276.32199   -1019.1512    142806.57   -49021.385    3794.6171   -52816.002   0.26767017 
   43000    276.02554   -998.34349    142796.95   -49040.431    3790.5461   -52830.977   0.26959669 
   43100    278.63852     -983.417    142802.18   -48961.459    3826.4291   -52787.888   0.28396385 
   43200    272.62111   -1008.7648    142773.33   -48971.438    3743.7944   -52715.232   0.27851394 
   43300    274.88309   -986.51198    142779.72   -48968.674    3774.8573   -52743.531   0.27127657 
   43400    277.21735    -1013.439    142786.39   -48901.975    3806.9127   -52708.888   0.29042401 
   43500    277.89279   -1019.8547    142798.27   -48954.698    3816.1882   -52770.886   0.27805771 
   43600    273.11266   -984.89952    142768.58   -48996.849    3750.5447   -52747.394   0.26672233 
   43700    278.47975   -979.47651    142744.23   -49037.939    3824.2488   -52862.188   0.27749281 
   43800    269.07045   -1014.3818    142757.95   -49070.927    3695.0347   -52765.961   0.28348625 
   43900    272.74511   -1004.4202    142762.83   -48990.567    3745.4972   -52736.064   0.27972597 
   44000    272.08501   -1029.4155    142742.06   -49069.041    3736.4324   -52805.474   0.27673743 
   44100    271.77154   -986.82373    142726.16   -49026.535    3732.1277   -52758.663   0.28283728 
   44200    275.66548   -986.75295    142733.77   -48991.401    3785.6015   -52777.003   0.28741557 
   44300     278.9141   -971.28368    142739.08    -48988.18    3830.2135   -52818.393   0.27195942 
   44400    274.86401   -973.64105    142729.33    -49002.12    3774.5952   -52776.716   0.28079214 
   44500    273.30349   -1012.6122    142748.19   -49005.212    3753.1653   -52758.377   0.27972068 
   44600    276.61862   -1003.4899    142745.21   -49009.869    3798.6906   -52808.559   0.27644546 
   44700    272.22497   -1002.4081    142753.74   -49000.344    3738.3544   -52738.698   0.27375813 
   44800     280.8065   -952.01843    142781.64   -48958.957     3856.201   -52815.158   0.27944721 
   44900    276.68249   -994.01517    142800.66    -48944.73    3799.5677   -52744.298   0.27464133 
   45000    268.21895   -1011.2946    142772.32   -48989.056    3683.3414   -52672.398   0.27685999 
   45100    278.01403    -997.7239    142796.96   -48881.696    3817.8532   -52699.549   0.28580719 
   45200    276.95087   -1024.4391    142811.26   -48914.856    3803.2533   -52718.109   0.27896027 
   45300    275.37698   -1008.4959    142812.57   -48936.083    3781.6396   -52717.723   0.27357652 
   45400    276.23979   -986.76916    142788.66   -48999.138    3793.4883   -52792.626   0.27156434 
   45500    272.01246   -1014.6883    142765.42   -48938.358    3735.4362   -52673.794   0.29384151 
   45600    275.42815   -1004.1264    142794.02   -48932.584    3782.3424   -52714.926   0.27787242 
   45700    273.87474   -1009.4606    142794.63   -48885.439      3761.01    -52646.45   0.27391015 
   45800    273.34827   -1013.6537    142799.36   -48962.101    3753.7803   -52715.882   0.28770012 
   45900     282.5685   -986.76951    142827.57   -48830.326     3880.398   -52710.724   0.27946569 
   46000    282.23242   -988.49685    142828.75   -48893.682    3875.7826   -52769.465   0.27034188 
   46100    279.55729   -976.08172     142844.4   -48798.368    3839.0461   -52637.414     0.278047 
   46200    281.17266   -1005.1642    142848.06   -48851.721    3861.2294    -52712.95   0.28379789 
   46300    279.93624   -1000.9398    142850.34    -48850.57    3844.2502   -52694.821    0.2707448 
   46400    278.33415   -1003.9059    142836.28   -48895.354    3822.2493   -52717.603   0.27066134 
   46500    278.66326   -1003.8062    142840.68   -48858.591    3826.7688    -52685.36   0.28302522 
   46600    279.34252   -1000.8316    142821.88   -48914.495    3836.0969   -52750.592   0.26554896 
   46700    277.77849   -1001.5469    142857.37   -48857.619    3814.6186   -52672.237   0.27333955 
   46800    278.96302   -1027.9309    142858.94   -48866.773    3830.8853   -52697.658   0.28103583 
   46900    276.31659    -1028.201    142852.93   -48920.773    3794.5429   -52715.316   0.27414867 
   47000     276.8256   -1023.9475    142852.44   -48957.012     3801.533   -52758.545    0.2674586 
   47100    274.00938    -980.8865    142818.08   -48961.888     3762.859   -52724.747   0.26900251 
   47200    278.74796   -965.65545    142803.71   -48935.592     3827.932   -52763.524   0.27908783 
   47300    275.50689   -1006.3993    142797.39   -49049.343    3783.4237   -52832.767   0.26865776 
   47400    278.40845   -1000.2554    142803.13   -48986.896    3823.2696   -52810.165    0.2729175 
   47500    273.12176    -1008.326    142800.91   -48991.261    3750.6697   -52741.931   0.27850266 
   47600    273.39924   -993.16873    142788.07   -48983.035    3754.4802   -52737.515   0.27150532 
   47700     279.7185   -946.16874    142828.59   -48908.412      3841.26   -52749.672   0.26977011 
   47800    275.32445   -997.12951    142856.24   -48962.374    3780.9183   -52743.292   0.27812882 
   47900    275.62515   -1019.1465    142833.49   -49013.511    3785.0477   -52798.559   0.27198623 
   48000    278.02814   -1017.5315    142834.49   -48979.109     3818.047   -52797.156   0.26344205 
   48100    275.63358   -1023.1794    142802.94   -49019.752    3785.1635   -52804.916   0.27042009 
   48200    275.29718   -992.62495    142822.63   -49012.594    3780.5439   -52793.138   0.27302899 
   48300     275.3121    -1041.849    142814.69   -48963.196    3780.7487   -52743.944   0.26999632 
   48400    272.61012   -1025.0739    142832.08   -49003.681    3743.6436   -52747.325    0.2714219 
   48500    271.99404   -1034.9362    142811.84   -49081.635    3735.1831   -52816.818   0.27882021 
   48600    268.50359   -1006.5649    142792.36   -49077.837    3687.2502   -52765.087   0.26926286 
   48700    276.02196   -989.67507     142809.8    -48971.37    3790.4969   -52761.867   0.27125096 
   48800    276.93526   -1017.3543    142839.05   -48960.867    3803.0388   -52763.906   0.27314751 
   48900    276.73508   -1002.4805    142826.08   -48985.749    3800.2899   -52786.039   0.27617363 
   49000    273.80472   -1025.8042    142820.92   -49016.847    3760.0484   -52776.895   0.27480303 
   49100    277.12127   -994.23705    142833.75    -48934.67    3805.5933   -52740.263   0.26742113 
   49200    278.34358   -997.48888    142834.52   -48966.188    3822.3788   -52788.567   0.27875335 
   49300    273.19594   -1025.0474    142810.54    -49030.27    3751.6883   -52781.958   0.26786409 
   49400     272.4406   -966.63378     142798.4   -49046.731    3741.3156   -52788.047   0.25544356 
   49500    271.00895   -1009.4816    142833.55    -48988.82    3721.6553   -52710.475   0.28545504 
   49600    274.42073   -965.72394     142825.5   -48981.989    3768.5079   -52750.497   0.27482981 
   49700     276.6305   -1011.1521    142828.46   -48985.861    3798.8537   -52784.714   0.25893713 
   49800    268.66998   -995.25722       142806   -48994.477    3689.5351   -52684.012   0.27975365 
   49900    278.23202    -975.9614    142772.03   -48971.477    3820.8468   -52792.324   0.28130593 
   50000    281.64108   -998.19789    142765.76   -48979.102     3867.662   -52846.764    0.2641576 
   50100    281.73988   -1009.2185    142811.67   -48841.677    3869.0188   -52710.696   0.27243295 
   50200    277.97681    -982.2885    142818.99   -48915.877    3817.3421   -52733.219   0.28670539 
   50300    275.26323   -1002.5948    142804.96   -48929.569    3780.0775   -52709.646   0.27276925 
   50400    278.02494   -1006.6242    142816.87   -48952.344     3818.003   -52770.347    0.2667705 
   50500    275.74161   -989.27753    142794.49   -48854.158    3786.6469   -52640.805   0.29035779 
   50600    282.27478   -972.50793    142853.42   -48790.359    3876.3644   -52666.723   0.27570341 
   50700    278.99469   -960.69866    142824.21   -49017.088    3831.3202   -52848.409   0.26079099 
   50800    271.09725   -998.33817    142774.09   -48996.164    3722.8679   -52719.032     0.279926 
   50900    280.97714   -1013.1336    142782.53   -49028.061    3858.5444   -52886.605    0.2714598 
   51000    279.06868   -988.78999    142808.72   -48987.626    3832.3362   -52819.962   0.27165884 
   51100    273.55404   -1023.5993    142820.72     -49002.9    3756.6061   -52759.506    0.2647231 
   51200    273.98197   -989.78915    142797.38   -49059.657    3762.4827   -52822.139   0.27453123 
   51300    271.55485   -981.55884     142800.4   -49071.673     3729.152   -52800.825   0.27733378 
   51400    276.50361   -1003.1915    142838.11   -49015.616    3797.1112   -52812.727   0.25818543 
   51500    272.25881   -1011.9724    142836.17   -49075.304    3738.8191   -52814.124   0.27013658 
   51600    270.43965   -1009.6755    142831.87   -48993.063    3713.8374     -52706.9   0.28067232 
   51700    280.69668   -1006.4809    142872.33   -48901.258    3854.6929   -52755.951   0.25667788 
   51800    280.02079   -988.14733    142859.83   -48943.312    3845.4113   -52788.723   0.25949862 
   51900    273.40471   -1022.9681     142840.8   -49001.998    3754.5554   -52756.554   0.28461942 
   52000    271.45376   -1010.5548     142780.1   -48982.434    3727.7637   -52710.198   0.27582935 
   52100    272.40321   -1034.0064    142777.87   -49052.145    3740.8022   -52792.947   0.26386809 
   52200    269.56413   -998.00313    142765.31   -49108.144    3701.8142   -52809.959   0.27638404 
   52300    271.43453   -997.37624    142770.49   -49085.372    3727.4996   -52812.872   0.27290408 
   52400     269.3424   -1001.3094    142753.18   -49171.241    3698.7693    -52870.01   0.25649111 
   52500    269.16031   -1021.4261    142768.32   -49026.206    3696.2687   -52722.475   0.27749051 
   52600    272.25887   -1003.6017    142830.92   -48989.986      3738.82   -52728.806    0.2845574 
   52700     278.8763    -963.1051    142866.22   -48933.537    3829.6945   -52763.232   0.25627059 
   52800     277.5322   -993.89639    142879.54   -48902.504    3811.2364    -52713.74   0.26744867 
   52900    276.12992   -1003.0255    142888.99   -48925.933    3791.9796   -52717.913   0.27494068 
   53000    277.20798   -984.34766    142877.23   -48879.706     3806.784    -52686.49   0.26869982 
   53100     277.0116   -1009.1149    142869.51   -49012.635    3804.0872   -52816.722   0.25742059 
   53200    276.04863   -1002.2106    142809.57   -49056.312    3790.8632   -52847.176   0.26750393 
   53300    272.56453   -1019.6232    142815.55   -49024.363    3743.0175   -52767.381   0.27587317 
   53400    275.89951   -1022.4032    142861.87   -48959.411    3788.8154   -52748.226   0.26252578 
   53500    276.28012   -1006.4322    142861.33   -48946.512    3794.0421   -52740.554   0.26661312 
   53600    272.10193   -1012.2862    142827.62   -49005.661    3736.6648   -52742.326   0.28236732 
   53700    276.09593   -1019.6897    142842.53   -48990.643    3791.5127   -52782.156   0.26381825 
   53800    274.16553   -1039.4624    142825.98   -49020.224    3765.0034   -52785.228   0.26523401 
   53900    272.35305   -1006.6476    142801.56   -49019.899    3740.1134   -52760.012   0.27272929 
   54000    274.92105   -1010.6144    142814.42   -49029.683    3775.3786   -52805.062   0.27092954 
   54100    273.72002   -980.20712    142768.78   -48997.384    3758.8854    -52756.27    0.2634176 
   54200     274.2845   -1009.6536    142795.45    -48956.34    3766.6371   -52722.977    0.2720289 
   54300    278.30809   -993.96323    142824.59   -48886.193    3821.8914   -52708.085   0.29075638 
   54400    278.53007   -986.56875    142844.32   -48803.009    3824.9397   -52627.949   0.26600236 
   54500    277.19683   -1007.3011    142836.08    -48872.53    3806.6309   -52679.161   0.26829152 
   54600    277.29987   -1034.9734    142832.73   -48886.491    3808.0459   -52694.537   0.29376478 
   54700     271.9107   -992.82846    142844.82   -48944.603    3734.0387   -52678.642    0.2651443 
   54800    281.97151   -995.04488    142851.35   -48878.072    3872.1997   -52750.272   0.25611761 
   54900    281.13186   -1043.6477    142863.82    -48896.47    3860.6691   -52757.139    0.2842144 
   55000    276.18493   -1002.9452    142868.11   -48919.245    3792.7349    -52711.98   0.27680709 
   55100     277.1838   -973.72099    142865.37   -48936.449    3806.4521   -52742.901   0.25776362 
   55200    273.56959   -999.19665    142832.35   -49052.543    3756.8196   -52809.362   0.26948549 
   55300     269.2306   -1006.3313    142792.92   -49092.999    3697.2339   -52790.233   0.28655224 
   55400    273.37383   -989.94721    142792.48   -49056.626    3754.1313   -52810.758   0.25324259 
   55500    273.48155    -998.3364    142787.76    -49020.86    3755.6106   -52776.471   0.26835324 
   55600    283.29478   -968.88712    142826.62     -48923.3    3890.3716   -52813.672    0.2810706 
   55700    280.53243   -1009.6805    142878.53   -48884.296    3852.4374   -52736.734   0.26573422 
   55800    275.39716   -977.70782    142889.89   -48872.368    3781.9168   -52654.285   0.26764927 
   55900    274.99272   -1014.9759    142859.02    -48882.85    3776.3628   -52659.213   0.27892141 
   56000     276.4256   -994.27871    142873.63   -48899.889    3796.0399   -52695.928   0.27727949 
   56100    277.12181   -1009.4599    142861.05   -48878.347    3805.6008   -52683.948   0.27104142 
   56200     279.8582   -994.52431    142887.16   -48917.263    3843.1784   -52760.441   0.26534318 
   56300    276.14292   -999.94455    142856.57   -48984.347     3792.158   -52776.505   0.27746517 
   56400    274.88718   -1027.4784    142807.59   -49029.803    3774.9134   -52804.716   0.27503568 
   56500    268.26336   -1000.4944    142779.44   -49078.168    3683.9513    -52762.12   0.26403078 
   56600     269.4558    -990.0548    142794.51   -49139.397    3700.3265   -52839.723   0.27693208 
   56700    268.94253   -960.44568    142814.65   -49113.227     3693.278   -52806.505   0.27756301 
   56800    274.58884   -946.74346    142847.36   -49008.449    3770.8165   -52779.266   0.25665315 
   56900    273.49291   -1067.1723    142815.62   -49100.526    3755.7666   -52856.292   0.27297812 
   57000    271.30482   -1043.9575    142778.57   -49087.607    3725.7183   -52813.325   0.28796296 
   57100     276.1917   -985.59294    142809.84   -49008.153    3792.8279   -52800.981   0.26320753 
   57200    277.22733   -1006.9385    142837.31   -48960.136    3807.0498   -52767.186   0.26583977 
   57300    271.92527   -995.90551    142811.24   -49088.663    3734.2387   -52822.902   0.28149531 
   57400    271.05907    -1028.128    142801.04   -48977.735    3722.3435   -52700.078   0.27030485 
   57500    277.24686   -995.65289    142831.14   -48942.342     3807.318    -52749.66   0.26156403 
   57600    271.66992   -979.98452     142791.1   -49044.904    3730.7322   -52775.637   0.28792387 
   57700    280.38578   -953.64893    142783.03   -48957.908    3850.4235   -52808.332   0.27479789 
   57800    276.11423   -988.03655    142781.04   -48908.992     3791.764   -52700.756   0.26716127 
   57900    277.75197   -1025.2736    142767.41   -48943.504    3814.2545   -52757.759   0.28532754 
   58000    274.60936   -1006.1881    142762.41   -48903.617    3771.0983   -52674.716   0.28445391 
   58100    274.20798   -1015.0368    142756.62   -48947.637    3765.5862   -52713.224   0.27078161 
   58200     278.7298   -979.99224    142797.25   -48852.486    3827.6825   -52680.169   0.27242802 
   58300    275.59475   -985.73542    142789.78    -48915.03    3784.6303    -52699.66   0.28788261 
   58400    272.11418   -973.40834    142796.71   -48955.191    3736.8329   -52692.024   0.27386575 
   58500    270.10186   -1041.3871       142783   -48959.734    3709.1987   -52668.933   0.26873957 
   58600    273.51329   -970.86906    142754.17   -48995.371    3756.0464   -52751.417   0.28368747 
   58700    276.98226   -995.31924    142773.89    -48949.81    3803.6844   -52753.494   0.28283912 
   58800    274.28071   -1018.2202    142780.41   -48997.167     3766.585   -52763.752   0.26681345 
   58900    273.97507   -966.62856    142793.57   -48914.704    3762.3878   -52677.092   0.27173885 
   59000    279.77196   -1008.4375    142820.68    -48886.79    3841.9942   -52728.784   0.28638788 
   59100    282.57578   -972.06684    142824.29   -48846.273    3880.4979   -52726.771   0.26526166 
   59200    278.04633    -1024.342    142803.57   -48963.005    3818.2967   -52781.302    0.2635331 
   59300    273.96518   -1005.7057    142787.15   -48943.665     3762.252   -52705.917   0.28513641 
   59400    276.95363    -979.9643     142807.1     -48929.1    3803.2911   -52732.391   0.27752847 
   59500    274.67462   -969.91696     142769.4   -49037.108    3771.9945   -52809.103   0.25822189 
   59600    271.06923   -1042.0614    142745.27    -49009.62    3722.4831   -52732.104   0.28735139 
   59700    274.79102     -1033.06    142783.32     -48946.5    3773.5929   -52720.093   0.28923671 
   59800    274.59906   -1010.1665    142762.57   -49049.409    3770.9569   -52820.366     0.263677 
   59900    267.59413   -1042.6552    142762.76   -49044.035    3674.7609   -52718.796   0.27700746 
   60000    271.06096   -998.38865     142772.5   -49012.986    3722.3695   -52735.356   0.28515846 
   60100    278.25687   -972.53319    142772.24   -48977.031    3821.1881    -52798.22   0.27127232 
   60200    277.04729   -960.53116    142795.07   -48945.163    3804.5773   -52749.741   0.26509578 
   60300    278.80197   -994.92924     142812.8    -48905.13    3828.6737   -52733.803   0.28413911 
   60400    280.53516   -994.14559     142831.6   -48855.583    3852.4749   -52708.058   0.28298029 
   60500    280.07953   -982.28796    142842.22   -48884.347    3846.2179   -52730.565   0.26330616 
   60600    277.99112   -946.67846    142868.81   -48950.628    3817.5387   -52768.166   0.26802666 
   60700    278.90241   -1012.4052    142886.03   -48777.267     3830.053    -52607.32   0.28797672 
   60800    284.22599   -1027.3739    142877.54   -48799.429    3903.1595   -52702.588   0.26871007 
   60900    278.05276   -1032.0018    142842.44     -48888.4    3818.3851   -52706.785   0.27367913 
   61000    277.17223   -1017.7876    142817.77   -48928.658    3806.2931   -52734.951   0.28639743 
   61100    273.37963   -995.91954    142823.96    -48913.93    3754.2109    -52668.14   0.27896339 
   61200    277.03029   -983.42395    142838.02   -48859.186    3804.3439    -52663.53   0.26601711 
   61300     278.4352   -981.59178    142818.32    -48945.51     3823.637   -52769.147   0.27312355 
   61400    277.97403    -1017.107    142809.87   -48998.867    3817.3039   -52816.171   0.28144577 
   61500    276.28961    -1019.827    142801.39    -48935.45    3794.1725   -52729.623   0.26552351 
   61600    279.11268   -973.13659    142816.97   -48979.814    3832.9405   -52812.754   0.26575445 
   61700    271.02945   -989.41415    142780.57   -49036.433    3721.9368    -52758.37   0.29255278 
   61800     267.7307   -1061.8968    142788.95   -49032.959    3676.6365   -52709.595   0.27203868 
   61900    278.36585    -987.6265    142810.53   -48930.252    3822.6846   -52752.937   0.26443727 
   62000    272.92231   -987.39202     142821.4   -48943.818    3747.9307   -52691.749   0.27880571 
   62100    276.12932   -1006.7967    142824.53   -49013.556    3791.9713   -52805.527   0.27070143 
   62200    277.80256   -999.22761    142846.98   -48909.631    3814.9492    -52724.58    0.2606052 
   62300    278.48666   -973.35956    142849.83   -48954.661    3824.3437   -52779.004   0.26513946 
   62400    272.02333   -1006.9109    142844.49   -49002.535    3735.5854    -52738.12   0.28020586 
   62500    275.11218   -1006.7019    142851.14   -48991.004    3778.0033   -52769.007   0.25119339 
   62600    274.83803   -985.56284    142820.71   -49014.824    3774.2385   -52789.063   0.26778914 
   62700    274.32667   -995.32642    142831.52   -49054.364    3767.2162    -52821.58   0.27337565 
   62800     273.2312   -990.64643    142801.99   -49026.647    3752.1726    -52778.82   0.26945712 
   62900    273.77108   -1004.0294    142843.65   -48937.543    3759.5865   -52697.129   0.26628807 
   63000    271.57076   -994.14202    142852.27     -48968.2    3729.3705    -52697.57   0.27252514 
   63100    272.23387   -972.63927    142825.57   -49039.635    3738.4766   -52778.112   0.27079874 
   63200    270.54196   -1012.7847    142845.42   -48919.809    3715.2423   -52635.051   0.27016397 
   63300    275.55188   -1006.1486    142833.69   -49006.504    3784.0415   -52790.546    0.2758317 
   63400    273.44853   -987.96919    142825.61   -49082.468     3755.157   -52837.625   0.27718756 
   63500    265.58444   -1004.2296    142847.32   -49055.382    3647.1628   -52702.545   0.26584936 
   63600    266.82689   -1009.2627    142818.85    -49107.89    3664.2248   -52772.115   0.26233375 
   63700    271.72958   -1041.3838    142797.34   -49075.236    3731.5515   -52806.787   0.28115117 
   63800    273.53699   -1010.4133     142755.8   -49147.099    3756.3718    -52903.47   0.26967761 
   63900    272.02582   -997.74238    142779.21   -49046.733    3735.6196   -52782.352   0.25829797 
   64000    274.99618   -1003.8771    142810.29    -48970.62    3776.4103    -52747.03    0.2734721 
   64100    279.59262   -979.02941    142852.38   -48928.861    3839.5314   -52768.392   0.27952223 
   64200    275.54326   -1017.2915    142861.81    -48914.92    3783.9232   -52698.844   0.25725103 
   64300    273.71945   -967.48621    142845.83   -48952.384    3758.8775   -52711.261   0.27043963 
   64400    276.16999   -1007.7296    142809.16   -49005.832    3792.5297   -52798.362   0.28474667 
   64500    276.45789   -995.69169    142778.91   -48989.729    3796.4834   -52786.212   0.26170789 
   64600     272.8992   -983.45207    142794.89   -49026.683    3747.6134   -52774.296   0.26301736 
   64700    269.89292   -994.87797    142783.19   -49028.578    3706.3294   -52734.907    0.2880916 
   64800    272.41729   -998.66678     142786.6    -48980.59    3740.9954   -52721.586   0.26750216 
   64900    279.81965    -979.5116    142781.42   -48893.602    3842.6491   -52736.251    0.2637442 
   65000    279.74889   -985.34527    142811.37   -48886.395    3841.6774   -52728.072   0.28411927 
   65100    275.91447   -988.75361    142791.08   -48940.471    3789.0208   -52729.492   0.28019081 
   65200    274.22554   -978.37712    142793.52    -48957.98    3765.8275   -52723.807   0.26796095 
   65300    278.09624    -1003.694    142803.27   -48897.818    3818.9822     -52716.8   0.27756616 
   65400    277.92407   -971.81307    142800.09   -48942.172    3816.6179    -52758.79   0.27638491 
   65500    276.22235   -1042.6634    142819.76   -48880.849    3793.2488   -52674.097   0.27390927 
   65600    277.34168   -986.43836    142827.28   -48892.816    3808.6201   -52701.436   0.26815405 
   65700    279.20985   -1009.7097    142863.44   -48860.714    3834.2749   -52694.989    0.2802349 
   65800    279.19643   -1027.5409    142843.54   -48919.447    3834.0906   -52753.537   0.27862198 
   65900    276.38961   -1045.8095    142829.79   -48937.832    3795.5457   -52733.378   0.26773955 
   66000    278.38066   -962.56452    142822.05   -48944.436    3822.8879   -52767.324   0.27754164 
   66100    277.41749   -992.59483    142833.62   -48917.117    3809.6612   -52726.779   0.27982497 
   66200    273.20018    -991.3931    142781.09   -49038.718    3751.7466   -52790.464   0.27003796 
   66300     274.2012    -999.1894    142796.97   -48976.941    3765.4932   -52742.434   0.26479118 
   66400    277.98541   -969.90845    142792.19   -48977.922    3817.4602   -52795.382   0.28858024 
   66500    275.23895   -1047.4048    142806.97   -49015.435    3779.7441   -52795.179   0.27413201 
   66600    272.02731   -960.15969    142814.52   -49014.589      3735.64    -52750.23   0.25249526 
   66700    273.34772   -1005.0643    142811.57   -49002.728    3753.7726     -52756.5   0.28723647 
   66800    272.50744   -996.55796    142843.58   -49029.331    3742.2335   -52771.565   0.27437985 
   66900     272.0149   -981.56807    142850.42   -49039.265    3735.4696   -52774.734   0.25328126 
   67000    269.75425   -1008.1544       142819   -49143.624    3704.4251   -52848.049   0.27127448 
   67100    277.07222   -1003.2868    142840.52   -48989.725    3804.9197   -52794.645   0.27872405 
   67200    271.88091   -1035.8979    142810.66   -49087.012    3733.6295   -52820.641   0.25918554 
   67300    274.98901    -982.6756    142829.29    -49006.75    3776.3119   -52783.061   0.26309447 
   67400    278.07664   -983.39412    142861.11   -48990.754     3818.713   -52809.467   0.27930079 
   67500    276.66028   -975.76926     142862.2   -48975.472    3799.2627   -52774.734   0.26460043 
   67600    280.64788   -979.03795    142909.02     -48841.1    3854.0228   -52695.123   0.25672745 
   67700    273.81273   -1019.6017    142883.78   -48904.112    3760.1584    -52664.27   0.28540442 
   67800    274.54539   -1024.7414    142890.65   -48951.964    3770.2198   -52722.184   0.27121322 
   67900    273.81558   -1012.7443    142885.81   -48981.762    3760.1976    -52741.96   0.25689419 
   68000    278.89594   -1026.5342    142859.68   -49013.805    3829.9641   -52843.769   0.26951373 
   68100    271.22832   -1000.8293    142851.43   -49016.011    3724.6678   -52740.679   0.27244248 
   68200     274.5433   -991.32848    142862.29   -48983.849    3770.1912    -52754.04   0.26234652 
   68300    278.54967   -1000.8387    142882.87   -48935.691    3825.2089     -52760.9   0.26027747 
   68400    279.52805   -1006.1966     142909.2   -48904.985    3838.6446    -52743.63   0.27492617 
   68500    277.61538    -984.1504    142921.74   -48902.283    3812.3788   -52714.662   0.27006552 
   68600    273.46498   -1003.7827    142890.49   -48986.022    3755.3829   -52741.405   0.26111317 
   68700    277.08075   -997.86963    142878.15   -48959.443    3805.0369    -52764.48   0.27080323 
   68800    274.92001   -969.27815    142903.77   -48955.178    3775.3643   -52730.542   0.27640336 
   68900    275.76183   -1019.4425    142904.52   -48961.148    3786.9246   -52748.072   0.25838816 
   69000     279.3255    -981.2515    142893.83   -48961.668    3835.8631   -52797.531   0.25757347 
   69100    274.84994   -998.58144    142841.45   -49019.694     3774.402   -52794.096   0.28473044 
   69200    275.66324   -1002.8321     142826.2   -49035.223    3785.5708   -52820.794   0.26982534 
   69300    271.26192   -1007.7743    142784.75   -49064.509    3725.1293   -52789.638   0.25566987 
   69400    271.60069   -988.36516    142786.28   -49110.935    3729.7814   -52840.717     0.282098 
   69500    278.73931   -961.19503     142787.9   -48981.337    3827.8132    -52809.15   0.28260203 
   69600    275.34845   -989.14724    142854.37   -48871.426    3781.2479   -52652.674   0.25559338 
   69700    274.19922   -1025.9262    142873.68   -48969.315     3765.466   -52734.781   0.27311537 
   69800    282.99037   -981.14267    142844.61   -48963.735    3886.1913   -52849.926   0.28420149 
   69900    273.59952   -1032.7694    142820.97   -49059.619    3757.2305   -52816.849    0.2568474 
   70000    274.88495   -1010.0126    142829.99   -48986.705    3774.8828   -52761.588   0.26514952 
   70100    267.94509   -1004.9883    142797.22   -49098.407    3679.5806   -52777.987   0.29248931 
   70200    278.51269   -990.12272    142842.74   -48945.525    3824.7011   -52770.226   0.26154742 
   70300    273.04288   -1023.2908     142831.6   -48949.298    3749.5864   -52698.885   0.26963933 
   70400    273.97569   -995.64519    142856.25   -48844.591    3762.3963   -52606.987   0.29095017 
   70500    274.35178   -999.30227    142866.27   -48915.299     3767.561    -52682.86   0.27217539 
   70600    274.68559   -1000.7024    142829.19   -48969.304    3772.1451   -52741.449   0.27077337 
   70700    274.89702   -1003.2603    142829.27   -48943.859    3775.0486   -52718.907   0.28325583 
   70800    271.29746   -1020.8654    142806.79   -48977.563    3725.6173    -52703.18   0.28484727 
   70900    276.18114   -987.45036    142824.87   -48974.632    3792.6829   -52767.315   0.27077868 
   71000    273.77111   -1022.6104    142828.69   -48989.793    3759.5869    -52749.38   0.27177513 
   71100    275.85216   -984.28298    142805.68   -48986.485    3788.1652    -52774.65   0.27801024 
   71200    272.94432   -1023.8488    142805.37   -49022.963     3748.233   -52771.196   0.28265945 
   71300    271.62166   -1014.2165    142764.79   -49067.579    3730.0694   -52797.649   0.26994572 
   71400    272.55237   -991.95558    142775.27    -49008.43    3742.8505   -52751.281   0.27513066 
   71500    276.47364   -996.51269    142818.02   -48959.858    3796.6997   -52756.558   0.29255473 
   71600    273.48254   -1024.5374    142811.21   -48979.155    3755.6241    -52734.78   0.27733174 
   71700    279.77677   -963.42963    142823.25   -48976.193    3842.0602   -52818.253   0.25602897 
   71800     268.4466   -1031.6099    142783.34   -49137.824    3686.4677   -52824.292   0.29254638 
   71900    275.31001   -959.66715    142752.77   -49079.909      3780.72   -52860.629   0.26958073 
   72000    277.97537   -958.67851    142779.18   -49050.642    3817.3223   -52867.964     0.254162 
   72100    276.86012   -989.97106    142817.84   -48923.969     3802.007   -52725.976   0.29851151 
   72200    285.24456   -957.52887     142871.9   -48812.762    3917.1472   -52729.909   0.27577269 
   72300    280.83343   -961.97607    142904.37   -48793.794    3856.5709   -52650.365   0.26453928 
   72400    276.24938   -1013.3211    142861.61   -48909.809      3793.62   -52703.429   0.28344344 
   72500    269.21519   -1001.7366    142870.49   -48908.544    3697.0224   -52605.567   0.28966518 
   72600    277.03126   -1000.6889    142856.53   -48848.895    3804.3572   -52653.252   0.26429784 
   72700    271.56644    -994.5221    142847.13   -49006.536    3729.3111   -52735.847   0.27107499 
   72800    274.48737   -990.60537    142835.45   -48934.376     3769.423   -52703.799   0.28876127 
   72900    276.10396   -1018.4297    142858.05   -48944.675     3791.623   -52736.298   0.26583248 
   73000    274.89888   -1026.8151    142857.31   -48957.215    3775.0741   -52732.289   0.26444847 
   73100    280.24058   -969.87402     142833.4   -48909.335    3848.4296   -52757.765   0.29032335 
   73200    279.74515   -1005.3758    142891.51    -48897.05     3841.626   -52738.676   0.27646158 
   73300    277.69943   -1023.7149    142911.41   -48877.411     3813.533   -52690.944   0.26721692 
   73400    283.24085    -966.1761    142917.44   -48858.411     3889.631   -52748.042   0.27817793 
   73500    278.13302   -1010.6449     142922.1   -48864.501    3819.4873   -52683.989   0.28105165 
   73600    279.21162   -979.70124    142878.79   -48904.813    3834.2993   -52739.112   0.27075185 
   73700    274.19834    -1020.384    142840.59   -48963.049    3765.4538   -52728.503   0.27123001 
   73800    275.28308   -982.08106    142810.92   -49050.369    3780.3502   -52830.719   0.28407797 
   73900    274.01579   -1011.6068    142848.55   -49031.796     3762.947   -52794.743   0.27541889 
   74000    280.60864   -1006.8011    142829.68   -48960.488     3853.484   -52813.972   0.26382505 
   74100    281.96219   -1049.2604    142908.43   -48797.889    3872.0716   -52669.961   0.28227386 
   74200    275.66175   -1003.1485    142896.31   -48957.922    3785.5504   -52743.473   0.27887355 
   74300    277.45308    -996.6544    142857.08   -48960.952      3810.15   -52771.102    0.2670929 
   74400    277.67653   -1009.2842    142848.74   -48993.764    3813.2185   -52806.982   0.26855745 
   74500    275.34878   -1000.5605    142838.08   -49010.477    3781.2525   -52791.729   0.28337229 
   74600     272.4237   -984.14514    142838.46    -49006.18    3741.0835   -52747.264   0.27615556 
   74700    274.51646   -1008.4767    142871.07    -48926.11    3769.8225   -52695.933   0.26295198 
   74800    275.92353   -1027.2915    142841.14   -48978.726    3789.1453   -52767.872   0.28523237 
   74900    275.96918   -1019.8975    142813.33   -48981.289    3789.7722   -52771.062   0.27987718 
   75000    275.96604   -964.01028     142794.9   -48956.862     3789.729   -52746.591   0.25810353 
   75100    281.31096   -989.86626    142806.43   -48893.169    3863.1287   -52756.297   0.28590196 
   75200    274.59397   -996.89644    142824.11    -48938.56    3770.8869   -52709.447   0.28522094 
   75300    273.48444   -984.82761    142777.26    -48982.86    3755.6502    -52738.51   0.26271682 
   75400    280.31999   -991.47999    142792.24   -48995.817      3849.52   -52845.337    0.2751298 
   75500    276.67167   -984.24791    142770.94   -48993.229    3799.4192   -52792.649   0.29039544 
   75600     275.3593   -1004.6499    142797.81   -48924.135    3781.3969   -52705.531    0.2740778 
   75700    274.94701   -1020.3674    142810.13   -48876.196    3775.7351   -52651.931   0.27714709 
   75800    280.27435   -1030.2158    142857.16   -48903.714    3848.8933   -52752.607   0.28307844 
   75900    279.24324   -1019.0578    142832.25   -48916.726    3834.7334   -52751.459   0.27706759 
   76000    273.26586   -1040.7013    142840.82   -48926.174    3752.6485   -52678.822   0.27266836 
   76100    270.81557   -991.76491    142798.71   -49015.025    3718.9997   -52734.024   0.27691862 
   76200    268.69254    -1039.358    142760.11   -49053.554     3689.845   -52743.399   0.27938361 
   76300    271.84729   -995.07891    142772.61   -49000.075    3733.1679   -52733.243   0.27781978 
   76400    273.18298   -981.88849    142756.95   -48991.439    3751.5104   -52742.949   0.27435389 
   76500    278.69946   -955.30194    142792.95   -48983.316    3827.2659   -52810.582    0.2758592 
   76600     273.1892   -1006.9478     142817.9   -49022.867    3751.5958   -52774.463   0.28564363 
[...]
   81900    272.44758   -992.49129    142744.27   -49017.045    3741.4114   -52758.456   0.28989673 
   82000    277.92317   -968.02418    142775.77   -48935.984    3816.6054    -52752.59   0.28129634 
   82100    273.81667   -1018.9409    142804.84   -48885.591    3760.2125   -52645.803   0.26754203 
   82200    279.86887    -997.0367    142782.17   -48896.106     3843.325   -52739.431   0.28491281 
   82300    275.29806   -1009.3569    142781.42   -48966.287     3780.556   -52746.843   0.28775538 
   82400    281.92214   -972.57698     142806.9   -48853.333    3871.5216   -52724.855   0.25891428 
   82500    278.08199   -979.70796    142840.14   -48753.125    3818.7865   -52571.912   0.28256461 
   82600    280.87964   -1002.5037    142846.52   -48857.239    3857.2055   -52714.445   0.29068708 
   82700    277.33328   -1019.4495    142794.41   -48936.153    3808.5048   -52744.657   0.27054618 
   82800    278.05398   -960.57053    142792.22   -48943.571    3818.4019   -52761.973   0.26390368 
   82900    271.30099    -1028.988    142811.06   -48902.379    3725.6657   -52628.045   0.29513738 
   83000    280.65225   -973.15541       142826   -48839.732    3854.0828   -52693.815   0.27378644 
   83100    271.44817   -1062.2633    142850.51   -48880.147    3727.6869   -52607.834   0.27073149 
   83200    275.98177   -1002.9189    142849.73   -48914.971     3789.945   -52704.916   0.28957998 
   83300    277.79139   -968.99818    142819.06    -48901.23    3814.7957   -52716.025   0.27710086 
   83400     274.3497   -1008.7325    142804.53   -48973.701    3767.5324   -52741.234      0.26854 
   83500    272.39555   -1001.2003    142746.48   -49075.173    3740.6969    -52815.87   0.27683958 
   83600    275.33362   -994.87233    142740.65   -49023.536    3781.0443   -52804.581   0.27609862 
   83700    268.98222    -1014.324    142732.58   -49049.241    3693.8231   -52743.064   0.27903292 
   83800    273.05476   -997.44126    142761.29   -49010.979    3749.7496   -52760.729   0.27467058 
   83900    276.26925   -990.88054    142772.01   -49009.026    3793.8929   -52802.919   0.27495627 
   84000    275.14689   -989.70477    142768.32   -49029.707    3778.4799   -52808.187   0.27762051 
   84100     279.4661   -984.93737    142767.33   -48960.633    3837.7938   -52798.427   0.27070331 
   84200    275.37689   -1017.0507    142766.26   -48918.401    3781.6385   -52700.039    0.2828189 
   84300     279.5037    -975.8722    142781.42    -48966.16    3838.3102    -52804.47   0.27841522 
   84400    272.66812    -1020.683    142803.61   -48968.714      3744.44   -52713.154   0.28383525 
   84500     281.0872   -1016.7785    142807.91     -49021.1    3860.0558   -52881.156   0.26083433 
   84600    277.23082   -992.37337    142839.97   -48933.744    3807.0977   -52740.841   0.28363958 
   84700    272.03702   -996.48181    142833.77   -48942.919    3735.7734   -52678.692   0.27855404 
   84800    272.78895   -1043.8059    142778.19   -48937.947    3746.0994   -52684.046   0.26450742 
   84900    279.10437    -992.6859    142800.99   -48866.046    3832.8264   -52698.872    0.2866094 
   85000    278.91793   -983.23194    142803.71   -48933.286    3830.2661   -52763.552   0.28568854 
   85100     277.7128   -1006.3782    142806.43   -48955.353    3813.7165   -52769.069   0.26457708 
   85200    271.96796   -1038.4397    142789.68   -48997.865    3734.8249    -52732.69    0.2763943 
   85300    268.57941   -1002.6942    142748.36   -48997.811    3688.2914   -52686.103   0.30103513 
   85400    272.90106   -965.91241    142746.16   -49030.151    3747.6389    -52777.79   0.26832503 
   85500    272.34251    -1026.929    142757.63   -48976.999    3739.9685   -52716.968   0.27397164 
   85600     271.0936   -1001.7801     142781.4   -49007.848    3722.8178   -52730.665   0.28719806 
   85700    271.03035   -997.21026    142778.04   -48947.833    3721.9492   -52669.782   0.26924955 
   85800    276.67591   -999.92362    142790.26   -48936.861    3799.4774   -52736.338   0.27368118 
   85900    275.83863   -990.04656    142803.63   -48906.047    3787.9793   -52694.026   0.28921171 
   86000    276.00914   -979.77565    142794.77   -48953.977    3790.3208   -52744.298    0.2731831 
   86100    275.64127   -995.44743     142814.2   -48933.564    3785.2691   -52718.833    0.2718664 
   86200    273.51778   -1029.2127    142836.38   -48905.973    3756.1081   -52662.081   0.28270382 
   86300    275.90613   -972.25363       142806   -48945.246    3788.9063   -52734.152   0.27640558 
   86400     275.1242   -1006.6863    142788.68   -49000.043    3778.1683   -52778.211   0.26958069 
   86500    274.90011   -1035.5521    142759.51    -49027.81     3775.091   -52802.901    0.2777312 
   86600    277.86405   -939.85073    142805.12   -48873.916    3815.7936    -52689.71    0.2809473 
   86700    283.47803   -978.40112    142851.67   -48885.722    3892.8881    -52778.61   0.27456245 
   86800    275.72208   -1010.6118    142818.09    -48998.93    3786.3788   -52785.309   0.27080513 
   86900    275.39583   -1004.7827    142785.53   -48987.962    3781.8985    -52769.86   0.26988653 
   87000    275.44129   -1022.9336    142795.02   -48960.008    3782.5228   -52742.531   0.28386309 
   87100    271.11092   -962.53434    142801.97    -48934.13    3723.0556   -52657.186    0.2770279 
   87200    274.53382    -947.2477    142848.87   -48871.135    3770.0609   -52641.196   0.26874013 
   87300    278.00731   -957.94326    142855.22   -48881.132     3817.761   -52698.893   0.27873273 
   87400    272.97915   -1002.1943    142818.61     -48935.2    3748.7112   -52683.911   0.27834719 
   87500    275.74325   -1037.5286    142842.12   -48909.795    3786.6696   -52696.464   0.26745481 
   87600    275.82083   -1018.1816    142859.47   -48937.278    3787.7349   -52725.013   0.27455615 
   87700    276.51988   -969.38546    142846.45   -48907.121    3797.3347   -52704.455   0.27538284 
   87800    272.90073    -981.1475    142815.64   -48989.407    3747.6344   -52737.042   0.26645542 
   87900    268.70727   -1011.6316    142795.38   -49013.363    3690.0473    -52703.41   0.27203902 
   88000    275.59776    -1040.659     142797.4   -48986.266    3784.6716   -52770.938   0.29071684 
   88100    273.31883   -1006.9143    142786.95   -48948.962     3753.376   -52702.338   0.27401391 
   88200    272.49863   -964.67943    142764.96   -49037.581    3742.1125   -52779.693   0.27055833 
   88300    277.47877   -989.07775    142792.51    -48978.62    3810.5027   -52789.122   0.29289956 
   88400    275.68403   -1027.5813    142811.63   -48912.814    3785.8562   -52698.671   0.27684508 
   88500    275.30326   -998.11467    142821.01   -48984.001    3780.6274   -52764.629   0.27014651 
   88600    274.04229   -988.30479    142807.01   -48975.842     3763.311   -52739.153   0.27829076 
   88700    276.93116   -992.70968    142783.58   -48949.437    3802.9827    -52752.42   0.27473495 
   88800    274.44817   -1022.0377    142796.04   -49010.262    3768.8847   -52779.147   0.26977332 
   88900    275.53066   -1000.8176    142755.76   -48954.629    3783.7501   -52738.379   0.27852062 
   89000    276.34234   -1009.3531    142788.45   -48926.596    3794.8966   -52721.493   0.28379259 
   89100    272.78836   -1003.8951    142759.03   -48970.272    3746.0912   -52716.363   0.27741896 
   89200    274.01723   -1051.4419    142774.26   -48926.988    3762.9667   -52689.955    0.2760116 
   89300    272.56301   -1002.7474    142730.46   -49037.017    3742.9966   -52780.013   0.28611377 
   89400    276.53804   -1011.5979    142765.65   -48948.279    3797.5841   -52745.863   0.27897122 
   89500    272.76879   -1017.2639    142781.07   -49044.518    3745.8225   -52790.341   0.27228777 
   89600    273.25093   -964.06761    142749.01   -49063.663    3752.4435   -52816.106   0.27637882 
   89700    275.15019   -994.62124     142786.8   -48984.449    3778.5252   -52762.974   0.27694042 
   89800    274.39219   -989.09531    142802.58   -48923.271    3768.1159   -52691.387   0.27771724 
   89900    276.71877   -975.83308    142811.34   -48908.432     3800.066   -52708.497   0.26695099 
   90000    271.55507   -1031.7667    142799.06   -48922.798     3729.155   -52651.953   0.29013512 
   90100    275.09444     -1039.55    142818.03    -48907.79    3777.7596    -52685.55   0.27594272 
   90200    274.37395   -1032.3589    142807.07   -48982.142    3767.8655   -52750.008   0.26288389 
   90300    278.53381   -1006.8187    142819.44   -48962.017    3824.9912   -52787.008   0.28257275 
   90400    275.52606   -1014.7867    142815.28    -48946.38    3783.6869   -52730.067   0.27328139 
   90500    271.43276   -1035.1466    142807.48   -48958.614    3727.4753   -52686.089   0.27730499 
   90600    274.75884   -1038.4105    142802.77    -48980.99     3773.151   -52754.141   0.27431912 
   90700    272.53705   -1026.4648    142774.88   -49012.732    3742.6401   -52755.372   0.28263579 
   90800    270.81567   -1008.5735    142759.58   -49023.845     3719.001   -52742.846   0.27801607 
   90900    272.55041   -989.08206    142784.63   -49001.315    3742.8235   -52744.139     0.266773 
   91000    273.63095   -1009.0648    142757.07   -49019.022    3757.6621   -52776.685   0.28516531 
   91100    268.29905    -1023.172    142749.38   -49121.925    3684.4413   -52806.366   0.27119387 
   91200    273.57687   -953.93849    142737.78   -49069.163    3756.9195   -52826.082   0.26857297 
   91300    273.28482    -1018.376    142751.98    -49002.81    3752.9089   -52755.719   0.28137863 
   91400    274.22908   -995.16036    142778.42   -48976.467     3765.876   -52742.343   0.27670386 
   91500    278.90475   -979.67385    142828.47   -48826.469    3830.0851   -52656.554   0.27443833 
   91600    275.09472   -1021.9878    142831.99   -48880.039    3777.7635   -52657.802   0.27429079 
   91700     272.7833   -1036.2292    142791.38    -48950.66    3746.0218   -52696.682   0.28000827 
   91800     274.6698   -1008.9806    142805.12   -48919.292    3771.9283    -52691.22   0.27551354 
   91900    277.70775   -969.58101    142801.69   -48910.472    3813.6472   -52724.119   0.27080684 
   92000    274.25523   -1021.2452    142807.67   -48958.038    3766.2351   -52724.273   0.28218769 
   92100    275.47621   -989.78389    142781.77   -48942.469    3783.0023   -52725.471   0.27849315 
   92200    278.09975   -987.79123     142773.2   -48978.757    3819.0303   -52797.788   0.26890933 
   92300    277.03057   -990.30739    142804.27   -48852.764    3804.3477   -52657.112   0.28327895 
   92400    275.65109   -991.88413    142843.57   -48904.747     3785.404   -52690.151   0.27527737 
   92500    278.84076   -974.57139     142803.6   -48896.606    3829.2064   -52725.813   0.26936344 
   92600    275.87095   -990.09593    142817.74   -48814.399    3788.4231   -52602.822   0.27436019 
   92700    275.69404   -987.30745    142845.37   -48932.633    3785.9937   -52718.627   0.27738708 
   92800    276.86882   -1049.2175    142835.59   -48946.188    3802.1265   -52748.315   0.27430781 
   92900    276.05691   -973.45637    142826.15   -48983.729    3790.9769   -52774.705   0.26324798 
   93000    273.77332   -979.06394    142798.67   -48989.221    3759.6172   -52748.838   0.28020497 
   93100    276.89024   -975.12746     142794.9   -48907.288    3802.4206   -52709.709   0.27813098 
   93200    272.22341   -1011.3501    142812.19   -48965.478     3738.333   -52703.811   0.26897762 
   93300    275.67994   -1010.2883     142776.2   -49013.941    3785.8001   -52799.741    0.2693612 
   93400    272.20144    -1007.215    142766.02   -49065.686    3738.0313   -52803.717   0.27761466 
   93500    267.44573    -1028.248    142762.09   -49069.127    3672.7231    -52741.85   0.27250344 
   93600    272.94265   -999.42759    142768.99   -49023.087      3748.21   -52771.297   0.27143371 
   93700    275.28882   -988.01262    142791.19   -49000.542     3780.429   -52780.971   0.27331046 
   93800    277.92457   -1004.7309       142772   -48996.138    3816.6247   -52812.763   0.27386062 
   93900    273.61218   -1014.7922     142765.9   -49067.478    3757.4044   -52824.882   0.26561515 
   94000    275.44038   -969.89991    142750.45   -49041.697    3782.5103   -52824.207   0.27229968 
   94100    277.64688   -987.38445    142788.93   -48929.485    3812.8113   -52742.296   0.28989412 
   94200    276.97426   -1000.9163    142775.83   -48916.066    3803.5745   -52719.641   0.26758267 
   94300    275.25506   -962.37716    142779.61   -48923.261    3779.9655   -52703.226    0.2704483 
   94400    278.96004   -970.79689    142785.23   -48915.785    3830.8443    -52746.63   0.28815158 
   94500    277.95778   -979.95353    142813.94    -48926.62    3817.0807     -52743.7    0.2645017 
   94600    279.89616   -962.95253    142787.61   -48929.615    3843.6997   -52773.314   0.26422555 
   94700    280.29947   -1003.4413    142799.49    -48970.16    3849.2382   -52819.398    0.2816527 
   94800    272.23871   -1001.5476    142800.29   -49009.265    3738.5431   -52747.808   0.27266414 
   94900    275.58185   -950.31967    142766.64   -49032.803    3784.4531   -52817.256   0.26376753 
   95000    274.77874   -985.52186    142771.55   -48992.258    3773.4243   -52765.682   0.28290054 
   95100     276.1629   -1023.1027    142795.22   -48955.024    3792.4324   -52747.456   0.28923608 
   95200    274.10766   -991.96573    142781.96   -48983.389    3764.2086   -52747.597   0.26511626 
   95300    276.47205   -980.98187    142773.32   -48942.857    3796.6779   -52739.535   0.27845255 
   95400    278.50291   -951.18325    142765.45   -48908.469    3824.5667   -52733.036   0.28761228 
   95500    274.28014   -980.87891    142797.33   -48924.444    3766.5772   -52691.021   0.26282647 
   95600    272.16617   -1005.0279    142775.58   -48911.899    3737.5469   -52649.446   0.27962824 
   95700    276.52973   -1017.7958    142759.53   -48952.022    3797.4699   -52749.492   0.28506249 
   95800    282.69603     -955.241    142796.08     -48901.3    3882.1492   -52783.449   0.27044715 
   95900    281.01968   -957.97808    142792.47   -48917.763    3859.1286   -52776.891   0.27397221 
   96000    280.68543   -996.74047    142782.53   -48881.052    3854.5384    -52735.59   0.27721709 
   96100    278.90832   -1012.1916    142812.24   -48829.158    3830.1341   -52659.292   0.28863701 
   96200    276.12709   -1013.5989    142833.28    -48851.83    3791.9407    -52643.77   0.27466003 
   96300    275.59275   -988.68362    142843.92   -48866.658    3784.6028   -52651.261   0.27412635 
   96400    273.35008   -1043.2975    142792.24   -48922.599    3753.8051   -52676.404   0.28883863 
   96500    278.24269   -1007.8448    142777.06   -48915.979    3820.9933   -52736.972   0.26741761 
   96600     276.5697   -974.46597    142764.45   -48970.563    3798.0188   -52768.581   0.27582315 
   96700     274.9174   -1010.6766    142741.13   -48935.785    3775.3285   -52711.114   0.28533511 
   96800    274.50245   -966.42753    142760.93   -48954.507    3769.6302   -52724.137   0.27764187 
   96900    279.31748   -952.54013     142779.2   -48967.402     3835.753   -52803.155   0.28202431 
   97000    268.39976   -1046.7493    142772.95   -49039.889    3685.8244   -52725.713   0.26866815 
   97100    273.47944   -1031.8075    142772.58   -49011.289    3755.5815   -52766.871   0.28006823 
   97200    272.84196   -1012.7648    142758.01   -48954.275    3746.8273   -52701.103   0.28267552 
   97300     278.2581   -1007.2101    142775.97   -48848.095    3821.2049     -52669.3   0.27337233 
   97400    275.54952   -980.11826    142765.71   -48938.616    3784.0092   -52722.626   0.28643949 
   97500    278.42566   -960.08607    142761.47   -48908.212     3823.506   -52731.718   0.27898029 
   97600    277.00966   -968.63637    142769.82   -48846.575    3804.0606   -52650.636   0.27336817 
   97700    278.28011   -968.47886    142796.93   -48806.708    3821.5072   -52628.215   0.27761398 
   97800    274.42643   -996.35711    142788.39   -48911.987    3768.5861   -52680.573    0.2869739 
   97900    274.68012   -1022.5052    142781.83   -48876.968    3772.0701   -52649.038   0.27960168 
   98000    275.83283   -975.35589    142763.97   -48960.976    3787.8997   -52748.876   0.26835002 
   98100    276.40198   -996.81707    142770.87   -48947.015    3795.7155    -52742.73   0.29867651 
   98200     275.6307   -1004.1786    142760.07   -48940.472    3785.1239   -52725.596   0.27035837 
   98300    276.57746   -986.48872    142796.43   -48886.933    3798.1254   -52685.058   0.27453471 
   98400    276.70387   -1012.9699    142811.09   -48925.148    3799.8614   -52725.009   0.28873209 
   98500    275.33325   -1018.5872    142796.83   -48903.964    3781.0392   -52685.003   0.27253285 
   98600    275.57571   -1002.9285    142812.47   -48910.949    3784.3687   -52695.318   0.27230832 
   98700    279.16529   -981.37527    142831.13   -48881.309    3833.6631   -52714.972   0.28370114 
   98800    278.74385   -1016.7184    142808.73   -48887.835    3827.8756   -52715.711   0.28167714 
   98900     275.6631   -1015.1251    142778.64   -48948.041    3785.5689    -52733.61   0.26856868 
   99000    274.98073   -999.76805     142760.2   -48942.748    3776.1982   -52718.947   0.29086291 
   99100    272.91652   -1015.0885    142753.81   -49002.977    3747.8512   -52750.828   0.28869288 
   99200    273.71308   -1011.4589    142770.09   -49003.021    3758.7901   -52761.811   0.27579592 
   99300    277.43418   -977.93585    142778.72   -48928.602    3809.8903   -52738.492   0.28081962 
   99400    274.83019   -974.66038    142774.96    -48974.81    3774.1309   -52748.941   0.27298365 
   99500    277.83955   -1016.5434    142737.06   -48924.372    3815.4572   -52739.829   0.28475742 
   99600    269.98198   -990.75265    142771.53   -48918.582    3707.5523   -52626.135   0.28313073 
   99700    271.43978   -1000.0922    142763.12   -48963.605    3727.5717   -52691.177   0.27578749 
   99800    269.10592    -1014.295    142744.31   -48979.423    3695.5218   -52674.945   0.29355629 
   99900    272.36988   -1016.5138    142716.79   -49032.871    3740.3443   -52773.215   0.28658148 
  100000    274.87682   -1052.6131    142729.06   -48954.529    3774.7712     -52729.3    0.2725887 
Loop time of 112.372 on 6 procs for 100000 steps with 4608 atoms

Performance: 384.437 ns/day, 0.062 hours/ns, 889.900 timesteps/s
99.0% CPU use with 6 MPI tasks x no OpenMP threads

MPI task timing breakdown:
Section |  min time  |  avg time  |  max time  |%varavg| %total
---------------------------------------------------------------
Pair    | 93.849     | 94.843     | 96.775     |  10.0 | 84.40
Neigh   | 6.4165     | 6.5614     | 6.7941     |   6.2 |  5.84
Comm    | 6.4494     | 8.2179     | 9.1246     |  30.6 |  7.31
Output  | 0.19398    | 0.19468    | 0.19798    |   0.3 |  0.17
Modify  | 1.8639     | 1.9245     | 1.9863     |   3.1 |  1.71
Other   |            | 0.6312     |            |       |  0.56

Nlocal:        768.000 ave         795 max         754 min
Histogram: 2 1 0 1 1 0 0 0 0 1
Nghost:        1662.50 ave        1684 max        1642 min
Histogram: 2 0 0 1 0 0 1 0 1 1
Neighs:        0.00000 ave           0 max           0 min
Histogram: 6 0 0 0 0 0 0 0 0 0
FullNghs:      24105.3 ave       25145 max       23618 min
Histogram: 2 1 1 0 1 0 0 0 0 1

Total # of neighbors = 144632
Ave neighs/atom = 31.387153
Neighbor list builds = 6639
Dangerous builds = 0

undump              1
unfix               2
unfix               3
unfix               4




################################################
#######         Run Simulation         #########
################################################

reset_timestep      0
log                 log.run_${NAME}
log                 log.run_ice_276K_-1000atm_mW
