

read_data data.ice_${TEMP}K_${PRES}atm_mW group ice
read_data data.ice_276K_${PRES}atm_mW group ice
read_data data.ice_276K_-1000atm_mW group ice
Reading data file ...
  orthogonal box = (0.37380912 0.33227478 0.33227478) to (56.896701 50.574845 50.574845)
  3 by 1 by 2 MPI processor grid
  reading atoms ...
  4608 atoms
  reading velocities ...
  4608 velocities
  read_data CPU = 0.010 seconds
read_data data.liq_${TEMP}K_${PRES}atm_mW add append shift ${X_HI} ${YZ_LO} ${YZ_LO} group water
read_data data.liq_276K_${PRES}atm_mW add append shift ${X_HI} ${YZ_LO} ${YZ_LO} group water
read_data data.liq_276K_-1000atm_mW add append shift ${X_HI} ${YZ_LO} ${YZ_LO} group water
read_data data.liq_276K_-1000atm_mW add append shift 50.5748452247441 ${YZ_LO} ${YZ_LO} group water
read_data data.liq_276K_-1000atm_mW add append shift 50.5748452247441 -0.332274775259076 ${YZ_LO} group water
read_data data.liq_276K_-1000atm_mW add append shift 50.5748452247441 -0.332274775259076 -0.332274775259076 group water
Reading data file ...
  orthogonal box = (0.37380912 -0.38411255 -0.38411255) to (104.34056 50.626683 50.626683)
  3 by 1 by 2 MPI processor grid
  reading atoms ...
  4608 atoms
  reading velocities ...
  4608 velocities
  read_data CPU = 0.010 seconds

write_data data.icewater_test
System init for write_data ...
WARNING: Communication cutoff is 0.0. No ghost atoms will be generated. Atoms may get lost. (../comm_brick.cpp:167)

# Define potential
#
pair_style sw
pair_coeff * * /data/emrosky-sim/Freezing_Simulations/Melting/mW_fancy/mW.sw mW
Reading sw potential file /data/emrosky-sim/Freezing_Simulations/Melting/mW_fancy/mW.sw with DATE: 2019-02-27

# Delete water and ice atoms that are overlapping
#
delete_atoms overlap 2.5 water ice
System init for delete_atoms ...
Neighbor list info ...
  update every 1 steps, delay 10 steps, check yes
  max neighbors/atom: 2000, page size: 100000
  master list distance cutoff = 6.3065
  ghost atom cutoff = 6.3065
  binsize = 3.15325, bins = 33 17 17
  2 neighbor lists, perpetual/occasional/extra = 1 1 0
  (1) command delete_atoms, occasional, copy from (2)
      attributes: full, newton on
      pair build: copy
      stencil: none
      bin: none
  (2) pair sw, perpetual
      attributes: full, newton on
      pair build: full/bin/atomonly
      stencil: full/bin/3d
      bin: standard
Deleted 718 atoms, new total = 8498

# set timestep
#
timestep 10.0

# Define output
#
compute 1 all msd
thermo 50
thermo_style custom step temp press vol etotal ke pe c_1[4]

# Neighbor lists
#
neigh_modify delay 0 every 1 check yes

# Set fixes
#
fix 1 all momentum 10 linear 1 1 1 rescale
fix 2 all nph iso ${PRES} ${PRES} ${PCOUPL}
fix 2 all nph iso -1000 ${PRES} ${PCOUPL}
fix 2 all nph iso -1000 -1000 ${PCOUPL}
fix 2 all nph iso -1000 -1000 10000.0
fix 3 all temp/csvr ${TEMP} ${TEMP} ${TCOUPL} 837492
fix 3 all temp/csvr 276 ${TEMP} ${TCOUPL} 837492
fix 3 all temp/csvr 276 276 ${TCOUPL} 837492
fix 3 all temp/csvr 276 276 5000.0 837492


# Fix ice atoms in place
#
velocity ice set 0.0 0.0 0.0
fix 4 ice setforce 0.0 0.0 0.0

# Run 1.0 ns equilibration of water
#
dump 1 all atom 1000 eq.all.${NAME}.dump
dump 1 all atom 1000 eq.all.coexist_276K_-1000atm_mW.dump
run 100000
Neighbor list info ...
  update every 1 steps, delay 0 steps, check yes
  max neighbors/atom: 2000, page size: 100000
  master list distance cutoff = 6.3065
  ghost atom cutoff = 6.3065
  binsize = 3.15325, bins = 33 17 17
  1 neighbor lists, perpetual/occasional/extra = 1 0 0
  (1) pair sw, perpetual
      attributes: full, newton on
      pair build: full/bin/atomonly
      stencil: full/bin/3d
      bin: standard
Per MPI rank memory allocation (min/avg/max) = 4.596 | 4.604 | 4.612 Mbytes
Step Temp Press Volume TotEng KinEng PotEng c_1[4] 
       0    125.41522   -2254.1545    270532.02   -85722.979    3176.5096   -88899.488            0 
      50    152.34819   -1873.2123    268287.96   -85440.946    3858.6662   -89299.612   0.94202112 
     100      161.572    -943.3711    264283.91    -85239.92    4092.2865   -89332.206    2.2181376 
     150     164.4188   -351.35362    262635.48   -84956.265      4164.39   -89120.655    3.4011814 
     200    172.10938   -748.43111    263025.87   -84677.944    4359.1766   -89037.121    4.4807329 
     250    174.22082   -967.66478    264344.68   -84400.671     4412.655   -88813.326    5.5857984 
     300    177.70037   -1152.7427    265387.33   -84112.463    4500.7848   -88613.248    6.8811915 
     350    183.95604   -1156.5752    265594.15   -83820.709    4659.2282   -88479.937    8.3361785 
     400    186.74277   -903.29603    265231.65   -83652.853    4729.8102   -88382.663    9.9857233 
     450    192.52223   -782.74602    265144.58   -83452.894    4876.1921   -88329.087    11.620407 
     500    194.54434   -864.32491    265373.32    -83252.68    4927.4079   -88180.088    13.305897 
     550    199.68586   -984.29181     265836.2   -83078.296    5057.6321   -88135.928    15.220045 
     600    200.88393   -1084.0419    266289.46   -82881.783    5087.9767    -87969.76    17.095735 
     650    204.06493   -1014.7655    266627.23   -82721.994     5168.545   -87890.539    19.171641 
     700    209.44507   -1009.9301    266850.56   -82507.245    5304.8129   -87812.057    21.340778 
     750     213.5307   -1141.0253    267070.65   -82361.937    5408.2935    -87770.23    23.333422 
     800    217.06602   -923.77356    267025.66   -82211.589    5497.8357   -87709.425    25.865313 
     850    216.04929   -845.51468     267128.3   -82088.302    5472.0841   -87560.386    28.452042 
     900    220.63308   -1003.8294    267374.76   -81958.796     5588.182   -87546.978    31.057108 
     950    222.18649   -970.21372     267554.9   -81832.194    5627.5267   -87459.721    33.549895 
    1000    225.07656   -1198.1004    267896.05   -81663.458    5700.7263   -87364.185    35.875317 
    1050    221.68822   -875.85219    268130.81   -81546.477    5614.9065   -87161.384    38.440733 
    1100    228.47663   -1060.1254    268461.76    -81396.08    5786.8431   -87182.923    41.081609 
    1150    231.34197   -1113.9881    268748.93   -81246.865    5859.4161   -87106.281    43.845586 
    1200    232.21463   -1009.5636    268677.02   -81174.111    5881.5189    -87055.63    46.734355 
    1250    235.57835   -945.06972    268635.63   -81074.945    5966.7151    -87041.66    49.672141 
    1300    234.88529   -1214.4251    268975.34   -81011.145    5949.1612   -86960.306    52.421639 
    1350    237.68843   -962.66425    269210.07   -80857.208    6020.1591   -86877.367    55.186257 
    1400    235.43145    -876.1934    269507.81   -80759.289    5962.9943   -86722.283    58.069368 
    1450    245.84392   -1171.1219    269825.79   -80647.675    6226.7207   -86874.396    60.509579 
    1500    240.12406   -893.32303    269579.81   -80617.206    6081.8485   -86699.055    63.094365 
    1550    248.08988   -1042.6269    269448.48   -80516.797    6283.6063   -86800.403    65.551181 
    1600    245.79607   -815.98597    269464.78   -80439.924    6225.5088   -86665.433    68.055251 
    1650    245.91677   -902.35192    269733.58   -80380.479    6228.5658   -86609.045    71.169008 
    1700     251.9029   -887.99652    269927.68   -80317.491    6380.1822   -86697.674    73.619593 
    1750    247.15611   -1105.6004     270086.3   -80218.393    6259.9559   -86478.349    76.194163 
    1800    250.06253   -941.58857    270147.89    -80185.94    6333.5694   -86519.509    79.461908 
    1850    254.51445   -883.97218       270418   -80088.123    6446.3276    -86534.45    82.868273 
    1900    253.87906    -1128.944    270948.41   -80026.773    6430.2344   -86457.007    85.791459 
    1950    255.37246   -1096.1505    270922.65   -79962.967    6468.0591   -86431.027    88.599888 
    2000    260.85626   -923.30409     270453.8   -79879.563    6606.9525   -86486.515    91.603159 
    2050    261.99254   -1058.0191    270059.81   -79852.986    6635.7321   -86488.718    94.586981 
    2100    262.34708   -816.43783    269999.92   -79816.832     6644.712   -86461.544    98.012108 
    2150    265.27221   -1065.2843    270574.72   -79724.062    6718.7994   -86442.861    101.58648 
    2200    259.25594   -1033.8499    271297.18   -79654.491    6566.4195    -86220.91    105.37072 
    2250    262.43437   -1328.0042    271678.15   -79628.371    6646.9228   -86275.294    108.24444 
    2300    258.69999   -1105.9365    271358.59   -79619.626    6552.3387   -86171.964     110.9542 
    2350    262.52522   -944.13007    270659.92   -79566.426    6649.2239   -86215.649    113.82316 
    2400    260.88358   -829.83528    270330.51   -79575.679    6607.6445   -86183.324    116.89446 
    2450    259.22069   -763.09474     270455.4   -79597.881    6565.5269   -86163.408     120.4875 
    2500    259.34552    -985.4913    271009.62   -79596.184    6568.6887   -86164.873    123.67167 
    2550    263.84689   -1287.5481    271460.04   -79507.532     6682.699   -86190.231    127.26041 
    2600    262.45997   -987.59888     271120.7   -79518.095    6647.5711   -86165.666    130.29483 
    2650    266.57598   -836.83743    270688.22   -79534.777    6751.8212   -86286.598    133.48627 
    2700    267.47207   -861.60444    270618.94   -79492.158    6774.5173   -86266.675    136.11304 
    2750    268.99632   -1130.7152    271055.41   -79450.463    6813.1235   -86263.587    139.46303 
    2800    263.16368   -1149.4446    271556.85   -79473.133    6665.3947   -86138.528    142.82608 
    2850    265.15125   -1367.1497    271905.79   -79421.129    6715.7357   -86136.865    146.16209 
    2900    267.51272   -1228.2091    271504.47   -79388.744     6775.547   -86164.291    149.18123 
    2950    264.59006   -892.78716     270972.6   -79388.482    6701.5219   -86090.004      152.395 
    3000    271.42703   -967.31353    270857.57   -79392.691    6874.6884   -86267.379    155.61931 
    3050    269.62941   -1004.5652    271100.36   -79368.791    6829.1584   -86197.949    158.86522 
    3100    268.09587   -1100.2888    271469.78   -79301.872     6790.317   -86092.189    162.11577 
    3150    274.30268   -1187.7885    271689.71   -79260.564    6947.5227   -86208.087     165.1885 
    3200    269.60066   -1279.9973    271648.43   -79227.739    6828.4301   -86056.169    168.06277 
    3250    267.56644   -1002.9367    271482.94   -79200.973    6776.9074   -85977.881    171.39589 
    3300    272.51464   -1051.1176    271400.42   -79217.836    6902.2354   -86120.071    174.47846 
    3350    275.07019   -1007.3792     271415.2    -79241.88     6966.962   -86208.842    177.78474 
    3400    270.78833   -949.41463    271664.95   -79250.348    6858.5114    -86108.86     181.4769 
    3450    266.88659   -1115.5205    271766.31   -79294.168    6759.6884   -86053.856    184.94788 
    3500    271.23244   -1198.1418    271346.02    -79300.29    6869.7598   -86170.049    188.36846 
    3550    271.02016   -925.94916    270915.91    -79289.11    6864.3832   -86153.493    191.88333 
    3600    276.35921   -963.11542    271053.71   -79274.296    6999.6102   -86273.906    195.50148 
    3650    266.93986   -985.55674    271664.09    -79239.99    6761.0376   -86001.028    199.47679 
    3700    276.85359   -1351.2868    272220.19    -79192.09    7012.1321   -86204.222    202.78573 
    3750    271.81338   -1196.1293    272111.46   -79091.902    6884.4738   -85976.375    205.17707 
    3800    278.24994   -1013.8263     271438.4   -79102.185    7047.4987   -86149.683    208.07368 
    3850    278.19323   -839.19153    270805.27   -79073.607    7046.0624    -86119.67    211.51185 
    3900    278.74183   -935.50278    270962.83   -79041.035    7059.9572   -86100.992     215.0721 
    3950    277.12873   -1143.0631    271542.94   -79033.742    7019.1008   -86052.842    218.11588 
    4000    273.42233   -1198.1353    272050.07   -79083.004    6925.2253   -86008.229    222.02641 
    4050    273.94347   -1123.2836    272126.75   -79082.919    6938.4246   -86021.344    225.79002 
    4100    269.30143   -951.59864    271785.93   -79071.883    6820.8512   -85892.734    228.24893 
    4150    271.38927   -899.13504    271412.68   -79115.694    6873.7319   -85989.426    230.40029 
    4200    274.78772   -937.02705    271350.37   -79094.013    6959.8076   -86053.821    233.24384 
    4250    279.61578    -988.5169    271420.51   -79072.322    7082.0926   -86154.415     236.4643 
    4300    270.79312   -851.74588    271548.25   -79052.468    6858.6328   -85911.101    239.51581 
    4350    273.20967   -981.77033    271810.63   -79048.459    6919.8389   -85968.297    243.04614 
    4400    270.14662   -1085.1553     271966.3   -79063.562    6842.2583    -85905.82    246.37141 
    4450    276.25685   -803.62361    271536.32   -79052.076    6997.0177   -86049.094    248.67508 
    4500    277.67561   -829.84871    271368.12   -79037.633    7032.9519   -86070.585     252.0312 
    4550    271.93067   -950.64724    271765.97   -79020.395    6887.4445    -85907.84    255.88518 
    4600    277.93803   -984.15392    272116.04   -78986.697    7039.5986   -86026.296     259.0985 
    4650    273.10206   -1150.6447     272201.4   -78994.019    6917.1135   -85911.132    262.04687 
    4700    277.66236    -1008.908    271752.41   -78997.313    7032.6165   -86029.929    263.93991 
    4750     274.7139   -1027.0429    271402.71   -79032.922     6957.938    -85990.86    265.85456 
    4800    272.60743   -920.44963    271499.09   -79001.924    6904.5855    -85906.51     269.2618 
    4850    275.44098   -925.23688    271930.17   -78954.201    6976.3534   -85930.555    273.21918 
    4900    274.77316   -956.98157    272286.05   -78957.708    6959.4388   -85917.147    276.17649 
    4950    278.82717   -1086.9906    272330.51   -78964.474    7062.1186   -86026.593     279.5635 
    5000    274.30369   -925.58256    271846.92   -78968.939    6947.5481   -85916.487    282.50021 
    5050    277.61379   -931.20895    271431.97   -78984.986    7031.3861   -86016.372     285.1253 
    5100    276.35709    -1083.224    271573.81   -78963.692    6999.5566   -85963.248    288.43735 
    5150    276.12243    -1132.948       271939   -78984.075    6993.6131   -85977.688    291.34466 
    5200    278.38221   -942.83512    272198.17   -78935.995    7050.8488   -85986.843    294.50408 
    5250    275.63014   -832.62302    272302.63   -78908.075    6981.1445   -85889.219    297.93508 
    5300    278.62713   -1019.8992    272124.45   -78870.695     7057.052   -85927.747    300.96984 
    5350    276.63927   -1087.4404    271719.83   -78866.231    7006.7037   -85872.935    303.09726 
    5400    276.28314   -630.71348     271514.6   -78878.219    6997.6836   -85875.903    306.49255 
    5450    278.54907   -809.15756    271865.93   -78862.406     7055.075   -85917.481    309.01928 
    5500     281.8538   -998.61499    272321.57   -78860.232     7138.777   -85999.009    313.11817 
    5550    269.10758   -1188.2686    272510.04   -78883.746    6815.9415   -85699.687    316.57263 
    5600    275.39554   -829.42384    271903.38   -78861.425    6975.2026   -85836.627    319.38848 
    5650    274.13171    -761.6385     271402.7   -78861.697    6943.1924   -85804.889    322.96199 
    5700    282.31298   -847.39618    271349.59   -78819.407    7150.4072   -85969.814    326.27205 
    5750     279.1086   -956.01559    271917.95   -78843.693    7069.2467    -85912.94     330.1285 
    5800    274.26003   -1130.8819    272529.71   -78852.288    6946.4424   -85798.731    333.97263 
    5850    282.16408   -1371.6269    272714.93   -78836.559    7146.6357   -85983.194    337.76765 
    5900    274.34005   -936.64264    272343.71   -78799.392     6948.469   -85747.861    340.88483 
    5950    280.09854   -1013.6819    272119.38   -78778.913    7094.3198   -85873.233    343.22275 
    6000    280.03943   -1123.4795    271933.73   -78827.016    7092.8227   -85919.839    346.76078 
    6050    274.77742   -960.54046    271728.48   -78871.476    6959.5468   -85831.023     350.1227 
    6100    275.58365    -827.3394    271698.42   -78869.543    6979.9669    -85849.51    354.03624 
    6150    282.88891   -1042.1703    272074.54   -78838.839    7164.9941   -86003.833    358.75789 
    6200    278.45285   -1263.2572    272391.02   -78825.583    7052.6379   -85878.221    361.39549 
    6250    279.36022   -909.61127    272295.09   -78784.352    7075.6197   -85859.972    365.01218 
    6300    277.78908   -699.41128    272450.54   -78786.831    7035.8259   -85822.657    368.83195 
    6350    277.45467   -1183.5865    272894.68    -78820.76     7027.356   -85848.116      372.116 
    6400    281.93077   -960.70917     272756.7   -78757.547    7140.7264   -85898.273    374.63562 
    6450    279.97428   -985.42408    272326.27   -78760.745    7091.1727   -85851.917     378.4094 
    6500    279.78467   -1010.3681    272367.44   -78758.873    7086.3702   -85845.243    381.30802 
    6550    273.80957   -929.01118    272626.85    -78754.08    6935.0333   -85689.113    384.89591 
    6600    271.99008   -929.74174    272566.17   -78834.372    6888.9491   -85723.321    387.97619 
    6650    274.16545   -1054.3164    272273.47    -78869.99    6944.0468   -85814.037    391.49881 
    6700    278.07264   -808.63638       271751    -78893.17    7043.0079   -85936.178    393.49407 
    6750     279.9591     -816.782     271546.3    -78931.55     7090.788   -86022.338    395.63701 
    6800    276.05093   -1187.1667    271739.13   -78935.059    6991.8023   -85926.861    398.04383 
    6850      278.164   -855.53775    272047.02   -78939.573     7045.322   -85984.895    402.18208 
    6900    271.73946    -1148.319    272576.48   -78947.443    6882.6016   -85830.044    405.46662 
    6950    272.83716   -1008.6841       272582   -78927.661    6910.4041   -85838.065    407.97258 
    7000    277.73273   -1106.6256    272313.95   -78917.071    7034.3988    -85951.47    410.40543 
    7050    279.07805   -880.76333    271927.23   -78908.297     7068.473    -85976.77    412.13396 
    7100    275.76846   -833.68074    271814.27   -78864.563    6984.6479   -85849.211    414.80062 
    7150    272.89817   -803.19406    271870.18   -78875.265    6911.9494   -85787.214    417.16322 
    7200    277.94378    -958.6286    272400.34   -78841.725    7039.7443    -85881.47    420.49138 
    7250    277.88893   -1055.0284       272852   -78799.373     7038.355   -85837.728    422.60705 
    7300    278.03772   -1120.2953    272661.44   -78788.548    7042.1236   -85830.671    425.83398 
    7350     277.4773   -882.23658     272099.9   -78820.216    7027.9292   -85848.146     428.7959 
    7400    278.83758   -1076.6703    271676.01   -78828.636    7062.3823   -85891.018    430.74641 
    7450    282.14096   -839.97674    271692.75   -78812.968    7146.0501   -85959.018    433.50903 
    7500    279.65461   -1093.4779     272091.1   -78834.396    7083.0761   -85917.472    437.38486 
    7550    274.24655   -947.00774    272369.94   -78874.909     6946.101    -85821.01    441.76204 
    7600    277.33511    -1201.163    272401.75   -78880.214     7024.328   -85904.542    444.65611 
    7650    276.67857   -1095.4881    272090.26   -78865.615    7007.6991   -85873.314    447.00362 
    7700    276.07314   -756.97969    271791.88   -78867.693    6992.3648   -85860.058    448.50806 
    7750    274.79543   -910.55239    271825.24   -78887.748    6960.0031   -85847.751    451.45272 
    7800    278.60862   -799.01248    271726.13   -78936.156    7056.5833   -85992.739    454.27742 
    7850    277.83818   -857.10201    271935.08   -78916.536    7037.0696   -85953.606    457.08658 
    7900    280.01491   -1051.9225       272161   -78884.106    7092.2017   -85976.308    459.49747 
    7950    274.97173   -948.24224    272016.64   -78902.359    6964.4683   -85866.827    463.48959 
    8000     279.2788   -1034.0573    271770.18   -78903.185    7073.5576   -85976.742    466.78191 
    8050    278.33096   -1122.3719    271685.39   -78926.445    7049.5507   -85975.996      469.759 
    8100    275.59068   -1063.2562    271767.49   -78956.877    6980.1451   -85937.022     473.4055 
    8150    271.11654   -858.79502    271949.11    -78998.04    6866.8243   -85864.864    477.72449 
    8200    273.50187   -973.09358    272103.35   -78958.638    6927.2398   -85885.878    479.53029 
    8250    279.28298   -1084.2239     272185.1   -78956.633    7073.6633   -86030.297    482.01309 
    8300    274.88157   -1079.5908    272157.11   -78933.144    6962.1846   -85895.329    485.47757 
    8350    275.12017   -707.49702    271835.18    -79004.94    6968.2281   -85973.168    488.27885 
    8400    271.54661   -1057.0083    271760.02   -79014.767    6877.7172   -85892.484    490.78227 
    8450    270.66496   -987.69622    271729.86   -79008.432    6855.3868   -85863.819    493.28465 
    8500    272.43911   -827.53375    271897.62   -78955.426    6900.3222   -85855.748    495.42351 
    8550    277.09559   -1041.3549    272011.76   -78908.599    7018.2612   -85926.861    498.83635 
    8600    279.23611   -790.86623    271702.94   -78920.177    7072.4762   -85992.654    502.21884 
    8650    279.51397   -1082.1417    271736.69   -78879.654    7079.5138   -85959.168    505.52515 
    8700    278.87126   -908.56218    271922.86   -78855.254    7063.2354   -85918.489    510.97914 
    8750    275.59542   -833.75037    272230.96   -78831.351    6980.2651   -85811.616    514.51621 
    8800    278.23724   -932.25364    272529.25   -78813.926     7047.177   -85861.103    517.11222 
    8850     278.8981   -1084.5175    272723.06   -78785.692    7063.9151   -85849.607    520.13038 
    8900    276.98727   -961.32672    272682.66    -78789.13    7015.5178   -85804.648    522.40458 
    8950     277.3984   -1130.1885    272780.32   -78759.454     7025.931   -85785.385    524.67845 
    9000    276.75738   -1101.0701    272572.67   -78780.952    7009.6951   -85790.647    528.02312 
    9050     280.0113    -1243.332    272354.19   -78758.432    7092.1102   -85850.542    529.94526 
    9100    279.84592   -1078.1326    271895.68   -78780.656    7087.9216   -85868.578    532.21444 
    9150    281.60251   -1052.2956    271501.02   -78804.362    7132.4122   -85936.774      535.025 
    9200     282.5065   -1026.4517    271631.65   -78773.695    7155.3085   -85929.003    538.71617 
    9250    280.46336   -1069.4477     272055.8   -78755.768    7103.5601   -85859.328    541.59969 
    9300    280.07723   -978.39815    272454.48   -78809.501    7093.7801   -85903.281    545.11325 
    9350    272.33834   -1001.6633    272661.31   -78804.481      6897.77   -85702.251     548.3399 
    9400    274.75303   -1221.9754    272499.43   -78846.073     6958.929   -85805.002    551.17634 
    9450    274.84862   -844.36329    271867.53   -78859.544    6961.3501   -85820.894    553.85058 
    9500    278.89956   -1074.7368    271605.36   -78848.836    7063.9522   -85912.788    556.01669 
    9550    277.83811   -857.65808    271568.49   -78853.939    7037.0679   -85891.007    557.03917 
    9600    281.52517   -925.81774     271764.3   -78852.248    7130.4535   -85982.701    559.46945 
    9650    273.93079   -987.34594    272200.75    -78805.56    6938.1035   -85743.663    563.90672 
    9700    277.80568   -838.69952    272655.37   -78798.781    7036.2463   -85835.027    567.50855 
    9750    276.05345   -1155.5688    273009.56   -78866.799    6991.8659   -85858.665    570.05325 
    9800    275.78356   -1388.0512    272723.16    -78847.88    6985.0302    -85832.91    570.55982 
    9850    278.65641   -871.11404    271844.71   -78864.964    7057.7936   -85922.757     571.9621 
    9900    276.25666   -878.85419    271406.12   -78825.855    6997.0129   -85822.868     576.1256 
    9950    277.95788   -1041.1642    271748.89   -78834.099    7040.1012     -85874.2    580.79252 
   10000    275.93974   -1020.6803    272276.68   -78842.946     6988.986   -85831.932    584.81702 
   10050    279.82887   -1031.5145    272791.67   -78833.963    7087.4897   -85921.453    589.61168 
   10100    277.58182   -1105.4796    272725.62   -78825.977    7030.5765   -85856.554     593.4143 
   10150    278.35201   -1109.4763    272171.14   -78839.555    7050.0838   -85889.639     594.8444 
   10200    279.74143   -942.16144    271744.71   -78875.237    7085.2751   -85960.512    596.56507 
   10250    273.11647   -917.64306    271754.92   -78818.487    6917.4784   -85735.965    598.67301 
   10300    277.90633   -844.51359    271973.47   -78786.866    7038.7958   -85825.661     602.6747 
   10350    280.25737   -1097.9474    272165.28   -78811.735    7098.3427   -85910.078    606.12573 
   10400    279.12614    -1017.748    272163.45   -78837.109     7069.691     -85906.8    609.38162 
   10450    279.05332   -966.71278    272138.64    -78822.13    7067.8465   -85889.977    611.13029 
   10500    277.99432   -869.60302    272191.41   -78797.148    7041.0242   -85838.172    612.30913 
   10550    279.89653   -1453.6172    272390.61   -78770.358    7089.2032   -85859.561    615.05464 
   10600    282.41655   -1004.5031    271964.55   -78778.634    7153.0302   -85931.665    617.27684 
   10650    275.68632   -951.60428    271851.67   -78806.738    6982.5675   -85789.305      619.958 
   10700    273.96216   -919.01907    272275.36   -78849.445    6938.8981   -85788.343    625.24508 
   10750    273.86995   -837.51777    272805.88   -78830.329    6936.5624   -85766.892    628.84175 
   10800    276.17328   -891.46256    273147.63   -78827.851     6994.901   -85822.752    631.19394 
   10850    275.19357   -1347.2276     273050.4   -78830.064    6970.0871   -85800.151    634.49893 
   10900    280.30766   -881.26671    272066.02   -78850.297    7099.6164   -85949.913    635.34513 
   10950    274.37079   -876.66724    271355.47   -78889.348    6949.2478   -85838.596    637.60083 
   11000    278.22674   -896.98179    271270.11   -78925.625     7046.911   -85972.536    639.24475 
   11050    280.08772   -1078.8836     271807.8   -78911.818    7094.0459   -86005.864    643.35732 
   11100    276.51856   -1193.1641    272245.74   -78940.146    7003.6464   -85943.792    648.37845 
   11150    276.70757    -1211.306    272177.99   -78943.452    7008.4336   -85951.886    650.77099 
   11200     270.5721   -911.06633    271974.39   -78956.221    6853.0348   -85809.256    652.12581 
   11250    278.12387   -1301.1311    271855.95    -78947.28    7044.3054   -85991.585    654.70739 
   11300    278.97666   -767.27903    271666.21   -78970.499    7065.9049   -86036.404    657.02189 
   11350    272.90812   -832.45285    271747.73   -78980.546    6912.2013   -85892.747     659.3622 
   11400    272.27601   -906.85294    272128.17   -78987.879    6896.1913    -85884.07    660.82549 
   11450    274.38695   -927.54314    272573.59   -78936.335     6949.657   -85885.992    664.67626 
   11500    277.01965   -1114.4156    272576.81   -78867.842     7016.338    -85884.18    667.20426 
   11550    276.62976   -930.67387    272122.96   -78861.486    7006.4628   -85867.949    669.34535 
   11600    277.68024   -666.49953    271853.24   -78904.515    7033.0694   -85937.585    671.44804 
   11650    272.91663   -1131.6517    272124.64   -78979.211    6912.4168   -85891.628    674.86325 
   11700    278.80142   -996.95596     272252.2   -78950.291    7061.4664   -86011.757    677.11267 
   11750    277.28116   -1248.2627     272278.7   -78989.209    7022.9614    -86012.17    679.23972 
   11800     275.8445   -1226.1257    271878.19   -79033.411    6986.5737   -86019.985      681.037 
   11850    273.27231   -579.12331    271417.36   -79050.031    6921.4254   -85971.457     681.7073 
   11900      275.143   -1003.2523    271579.83   -79032.423    6968.8062   -86001.229    683.35625 
   11950    277.65921   -1058.9104    271783.94   -79016.436    7032.5366   -86048.973    685.68998 
   12000    277.21936   -845.47402    271736.42   -79035.725     7021.396   -86057.121    689.23852 
   12050    274.56314   -935.50687    271640.53   -79066.318    6954.1195   -86020.437    690.83916 
   12100    276.51139   -905.12421    271596.12   -79041.883    7003.4647   -86045.348    692.91356 
   12150    272.99533   -976.02024    271668.19   -78990.544      6914.41   -85904.954    694.98436 
   12200    278.08148    -1134.043    271931.94   -78957.307     7043.232   -86000.539    698.61212 
   12250    274.07692   -1253.0148    272110.03   -78986.445    6941.8047   -85928.249    701.30896 
   12300     281.8769   -1162.6003    271954.69   -78901.083     7139.362   -86040.445    702.82109 
   12350    276.78216   -856.36856    271904.88   -78940.057    7010.3229    -85950.38      706.588 
   12400    278.55902   -1084.4916    272061.15   -78907.391     7055.327   -85962.718    709.84094 
   12450    276.06532   -1006.6288    272019.22    -78886.21    6992.1666   -85878.377    712.19848 
   12500     274.6766   -878.93212    271819.62    -78907.14    6956.9932   -85864.133    715.19812 
   12550    274.95267   -1020.8828    271757.34   -78898.049    6963.9855   -85862.035    716.72278 
   12600    274.16022   -1003.0343    271780.84   -78917.612    6943.9144   -85861.527    718.46864 
   12650    277.28766   -939.35509    271795.64   -78932.451    7023.1261   -85955.577    719.86806 
   12700    274.72201   -1033.6911    271968.23   -78944.053    6958.1434   -85902.196    722.74897 
   12750      279.914   -1070.3703    272269.89   -78930.551    7089.6458   -86020.197    725.73967 
   12800    272.18089   -1312.7879    272496.83   -78940.051    6893.7821   -85833.833    727.12847 
   12850    275.19746   -1006.7826    272143.47   -78970.064    6970.1855   -85940.249    728.48611 
   12900    273.13112   -882.84211    271573.06   -78962.136    6917.8495   -85879.986    730.73957 
   12950    276.08799   -759.35631    271178.36   -78965.572    6992.7409   -85958.313    732.93501 
   13000    276.71372   -855.80047    271415.68     -78930.7    7008.5894   -85939.289    734.52282 
   13050    279.13138   -1186.4388     272232.7   -78894.782    7069.8237   -85964.606    737.85622 
   13100    280.18007   -1162.9687    272683.75   -78849.262     7096.385   -85945.647    740.28585 
   13150    278.24746   -965.58505    272444.07   -78869.681    7047.4357   -85917.117     743.2612 
   13200    277.73024   -976.91144    271837.26    -78903.36    7034.3358   -85937.696    745.32679 
   13250    281.24979   -652.96186     271248.5   -78893.685    7123.4787   -86017.164    747.12255 
   13300    280.19215   -820.02767    271472.86   -78900.002    7096.6908   -85996.693    749.77707 
   13350    274.29591   -1114.6175    272338.14   -78885.184    6947.3511   -85832.535    754.76665 
   13400    275.84112   -1139.3594    272879.17   -78920.637    6986.4882   -85907.125    758.88559 
   13450    270.89856   -927.39907    272656.15   -78882.239    6861.3034   -85743.542    762.16061 
   13500    276.56571   -966.50367    272034.75   -78880.029    7004.8405    -85884.87    763.54002 
   13550    278.62267   -960.90619    271549.11   -78876.758    7056.9392   -85933.697    765.82039 
   13600    279.26367   -919.44683    271471.76   -78897.773    7073.1743   -85970.947    767.89289 
   13650    281.82198   -887.62105    271786.13   -78915.266    7137.9711   -86053.237    770.38643 
   13700     277.9236   -836.21391    272085.59   -78923.746    7039.2332   -85962.979    772.47569 
   13750    276.54785   -1049.4071    272271.69   -78911.678    7004.3881   -85916.066    776.93319 
   13800    276.16571   -1140.6488     272166.9   -78892.269    6994.7093   -85886.979    778.23503 
   13850    276.17415   -1107.4232    272034.24   -78891.932    6994.9231   -85886.855    780.66391 
   13900    275.17841   -912.03005    271829.92   -78913.559     6969.703   -85883.262    783.35226 
   13950    275.94762   -1092.5211    271962.04   -78925.981    6989.1855   -85915.166    786.18962 
   14000    272.01128   -930.91705    272169.26   -78929.623    6889.4863   -85819.109     788.9307 
   14050    280.29366   -1198.1331    272385.92   -78929.033    7099.2618   -86028.295    791.84391 
   14100    272.90609   -1080.2755    272349.38   -78889.803    6912.1499   -85801.953    795.16053 
   14150    278.72096     -954.588    272093.63    -78905.49    7059.4285   -85964.919    798.55391 
   14200     274.7936   -1183.8436    271732.97   -78941.935    6959.9565   -85901.891     800.6331 
   14250    274.73749   -966.78795    271396.08   -78977.358    6958.5356   -85935.894    801.96307 
   14300    275.71936   -849.95731    271408.35   -78983.175    6983.4043   -85966.579    805.69966 
   14350    276.81937   -1054.2348    271819.21   -79001.878    7011.2652   -86013.143    808.91064 
   14400    275.00025   -1045.2324    272224.71   -78988.536    6965.1906   -85953.727    811.58823 
   14450    273.91521   -1280.6125    272301.01    -78972.08    6937.7088   -85909.789    814.87551 
   14500    274.38045   -1036.7235     271859.1   -78930.884    6949.4924   -85880.376    817.84396 
   14550    280.13906   -806.94317    271460.03   -78954.405    7095.3462   -86049.751    819.24072 
   14600     277.3136   -840.62798    271575.69   -78977.287     7023.783    -86001.07    822.62802 
   14650    280.88933   -1147.7684    271801.63   -78956.712     7114.349   -86071.061    827.13331 
   14700    275.28896   -748.17781    271821.02   -78911.113     6972.503   -85883.616    832.84063 
   14750    276.27071   -842.21673    271788.35   -78928.805    6997.3689   -85926.174    834.12166 
   14800    277.59701   -854.23902    271867.42   -78921.816    7030.9611   -85952.778    837.54476 
   14850    275.85086   -1106.8572     272141.3   -78924.743    6986.7349   -85911.478    841.65734 
   14900    276.68641   -878.42543    272047.62   -78928.067    7007.8976   -85935.965    844.18449 
   14950    278.23309   -1004.6052    272036.81   -78989.407    7047.0718   -86036.479    844.50446 
   15000    275.04745   -923.71737    272020.94   -78995.791     6966.386   -85962.178    846.81568 
   15050    276.50264    -1194.301    271911.72   -79031.346    7003.2432    -86034.59    849.37025 
   15100    274.94004   -932.37487    271741.46   -79041.186    6963.6656   -86004.851    852.81402 
   15150    274.23901   -966.13803    271772.88   -79061.132    6945.9101   -86007.042    854.77359 
   15200    275.01699     -1074.65    271690.74   -79097.679    6965.6147   -86063.293    857.90313 
   15250    274.54686    -771.2435    271348.01   -79088.927    6953.7071   -86042.634    861.03963 
   15300    277.03325   -934.09733    271179.47    -79094.97    7016.6824   -86111.653     863.1894 
   15350    271.65331   -989.49276    271332.55   -79095.515    6880.4195   -85975.935    867.78774 
   15400    272.68074   -970.86088    271728.09   -79114.852    6906.4422   -86021.294    872.67491 
   15450    268.28434   -1032.0259    271931.38   -79205.422    6795.0904   -86000.513    876.90819 
   15500    271.50006   -971.17744    271951.69   -79215.814    6876.5381   -86092.352    878.55663 
   15550    269.13587   -994.54357    271590.79   -79235.835     6816.658   -86052.493    879.32834 
   15600     273.2393   -838.92214    270882.67   -79197.093    6920.5895   -86117.683    880.70808 
   15650    271.99112   -556.99367    270706.57   -79152.944    6888.9756   -86041.919    883.82161 
   15700    271.38776   -869.99143     271678.9   -79092.675    6873.6937   -85966.369     888.7898 
   15750    279.60898   -1349.6192    272619.37   -79039.678    7081.9202   -86121.598    895.37403 
   15800    273.48792   -1218.1235    272543.89   -79052.084    6926.8864    -85978.97    897.80278 
   15850    278.04754   -992.47082    272022.65   -79064.937    7042.3722   -86107.309     896.9496 
   15900    277.12071   -1098.5795    271609.58    -79076.25    7018.8976   -86095.148     899.0082 
   15950     275.1152   -897.36084    271443.21   -79096.769     6968.102   -86064.871    901.19058 
   16000    275.72428   -1009.5226    271497.15    -79065.62    6983.5288   -86049.149    903.80362 
   16050    268.48358   -935.97278     271536.3   -79077.387    6800.1368   -85877.524     907.2105 
   16100    272.21679   -1061.3598    271849.32     -79073.9    6894.6914   -85968.592    911.19108 
   16150    272.89195     -904.141    272094.72   -79050.865    6911.7918   -85962.657    915.12413 
   16200    273.06466   -1137.7636    272305.21     -78965.4    6916.1662   -85881.567    918.35849 
   16250    274.47729   -1163.7943    272168.05   -78958.826    6951.9451   -85910.771    919.65032 
   16300    276.11344   -999.67244    271573.45   -78942.927    6993.3854   -85936.312    920.91056 
   16350    281.75734   -742.18818     271194.8   -78920.368    7136.3339   -86056.702    923.25075 
   16400     275.8123   -1076.5347     271500.5   -78950.041    6985.7583     -85935.8    926.36734 
   16450    276.20605   -1194.4015    272118.08   -78932.198     6995.731   -85927.929    929.05636 
   16500    272.36358   -1096.7715    272570.59   -78927.009    6898.4093   -85825.419    932.76769 
   16550    275.91816   -1203.3257    272239.59   -79002.312    6988.4394   -85990.752    935.17446 
   16600    276.03089   -905.29376    271104.45    -79002.09    6991.2947   -85993.384    934.82361 
   16650    274.52428   -702.49617    270477.16   -79053.257    6953.1354   -86006.392    934.16649 
   16700    280.22272   -910.74508    270745.24   -79025.578    7097.4651   -86123.043    936.58701 
   16750    277.92255   -882.92789    271528.49   -78987.978    7039.2065   -86027.185    942.71196 
   16800    270.94278   -1075.9498    272661.48   -78944.341    6862.4234   -85806.765    949.20298 
   16850    274.85973   -1256.3298    273165.78   -78905.675    6961.6317   -85867.307     952.9805 
   16900    275.71261   -1144.0986    272654.47   -78929.756    6983.2332   -85912.989    954.95244 
   16950    277.86992   -1123.7889    271643.84   -78943.277    7037.8734   -85981.151    954.99513 
   17000    275.45279     -621.249    270960.89   -78967.663    6976.6526   -85944.315    955.67114 
   17050    279.26962   -881.98663    271229.46   -78944.317     7073.325   -86017.642    958.64609 
   17100    275.10989   -713.14224    271778.27    -78926.79    6967.9677   -85894.757    962.43421 
   17150    276.90373   -1051.8003    272355.11   -78933.313    7013.4018   -85946.714    966.31919 
   17200    275.63039   -1249.9953    272421.05   -78941.339    6981.1508    -85922.49    969.30252 
   17250    280.67113   -1081.7327    271985.93   -78960.832    7108.8223   -86069.654     972.0802 
   17300    277.38153   -1013.0067    271486.45   -78987.572    7025.5035   -86013.076     974.8935 
   17350    276.43427   -967.99526    271248.38   -79019.013    7001.5114   -86020.525    977.05887 
   17400    278.07664   -1059.4927    271259.72    -79036.26    7043.1092   -86079.369    978.09519 
   17450    274.37298   -845.63711    271555.03   -79021.016    6949.3032   -85970.319    980.37393 
   17500    277.24922   -1236.7062    272165.17    -79077.97    7022.1525   -86100.122    984.21132 
   17550    271.86336   -1145.0169     272381.6   -79072.548    6885.7396   -85958.288    988.74718 
   17600     272.4219   -1121.2784    272133.17   -79080.649    6899.8863   -85980.536    988.88482 
   17650     271.1606   -1071.3662    271933.86   -79052.544    6867.9401   -85920.484    991.81559 
   17700    275.96068   -989.34205    271650.52   -79083.256    6989.5163   -86072.773    992.82398 
   17750    268.55287   -951.15278    271497.36   -79091.206    6801.8918   -85893.098    995.26484 
   17800    270.04117   -819.40263    271363.25   -79115.349    6839.5873   -85954.936     997.7284 
   17850    272.92875   -869.52771    271375.72   -79152.369    6912.7239   -86065.093    1001.1103 
   17900    273.25992   -953.47013     271747.5   -79097.099    6921.1117   -86018.211    1005.5557 
   17950    272.02244   -1051.2934    272054.71    -79124.48    6889.7688   -86014.249     1008.908 
   18000    268.87527   -906.70837    271907.83   -79118.655    6810.0575   -85928.713    1010.8321 
   18050    271.75087   -1108.0668    271676.63   -79155.961    6882.8905   -86038.852     1012.382 
   18100    271.32534   -960.66492    271505.61   -79161.784    6872.1127   -86033.897    1015.1165 
   18150    271.61472   -924.24851    271469.89   -79173.208    6879.4421    -86052.65    1018.4748 
   18200    273.12992   -823.80477    271611.08   -79174.103    6917.8191   -86091.922    1020.8349 
   18250    269.59333   -963.84569    271922.31   -79204.306    6828.2445    -86032.55    1023.8288 
   18300    270.41204   -1066.5676    272262.25   -79167.994    6848.9808   -86016.975    1026.4023 
   18350    271.30738   -1052.1951    271922.47   -79150.178    6871.6578   -86021.835    1029.3956 
   18400    267.13332   -879.33821     271083.2   -79185.127    6765.9376   -85951.064    1030.0784 
   18450    269.98923   -807.20105       270852   -79167.425     6838.272   -86005.697    1028.7446 
   18500     277.2962   -937.88901     271317.4   -79130.452    7023.3422   -86153.794    1032.2335 
   18550    272.14588   -1116.6473    272012.01   -79098.462    6892.8954   -85991.357    1036.9332 
   18600    272.03484   -1252.8412    272372.45   -79087.044    6890.0829   -85977.127    1040.5032 
   18650     271.8604   -1038.0709    272210.72   -79062.837    6885.6648   -85948.502    1042.8271 
   18700    272.62106   -971.27623    271860.09   -79006.596    6904.9305   -85911.526    1045.5116 
   18750    276.77963   -961.15427    271518.68   -79006.187    7010.2586   -86016.446    1048.8619 
   18800    279.51328   -968.46919    271300.48   -78955.823    7079.4963   -86035.319    1051.4065 
   18850    274.76435   -930.67417    271358.81   -78963.603    6959.2157   -85922.819    1054.9579 
   18900     272.7581    -1208.167    271668.36   -79000.075    6908.4015   -85908.477    1060.2986 
   18950    277.27192   -1081.0934    271955.52   -79044.781    7022.7275   -86067.508    1065.4334 
   19000    269.71564   -1111.9797    271931.26   -79016.233    6831.3424   -85847.575    1068.1975 
   19050    278.41669   -1093.4694     271577.6   -79049.794     7051.722   -86101.516    1070.1338 
   19100    275.41475   -935.65759    271310.32   -79040.069    6975.6891   -86015.758    1073.1473 
   19150    277.99915   -1063.9215    271403.75   -79023.653    7041.1467   -86064.799     1077.962 
   19200    274.87445   -1015.4684    271574.73   -79001.744    6962.0045   -85963.748    1081.4159 
   19250     276.8847    -1166.004    271646.42    -78989.68      7012.92     -86002.6    1084.6345 
   19300    274.04806   -1083.4913    271919.19   -78987.512    6941.0737   -85928.586    1087.9527 
   19350    274.05382   -876.69651    271884.32   -78975.907    6941.2196   -85917.126    1089.8905 
   19400    278.69652   -977.61886    271830.15   -78961.947    7058.8097   -86020.757    1092.2374 
   19450    280.07879    -1076.563    271819.12   -78940.325    7093.8197   -86034.145    1093.0054 
   19500    275.07533   -870.35576    271788.22   -78936.474    6967.0923   -85903.566    1096.0776 
   19550      279.944   -1149.1124    272085.93   -78976.586    7090.4058   -86066.991    1098.6072 
   19600    272.53415   -1095.7778    272199.06   -78985.826    6902.7294   -85888.556    1101.0274 
   19650    270.67721   -1004.7784    272007.66   -78973.548    6855.6968   -85829.244    1103.5976 
   19700    272.84395   -1051.8368    271793.06   -78981.242     6910.576   -85891.818    1106.5297 
   19750    274.61254   -983.06561    271709.69   -78958.162    6955.3708   -85913.533    1109.4398 
   19800     277.0201   -1179.4463     271552.5   -78951.596    7016.3492   -85967.945    1111.6575 
   19850    281.59287    -1024.904    271410.26   -78964.154    7132.1683   -86096.322    1113.6666 
   19900    275.85356   -1184.3389    271715.84   -78938.348    6986.8032   -85925.152    1117.0137 
   19950    276.08131   -961.03096    271930.18   -78939.168    6992.5717    -85931.74    1121.7891 
   20000    276.62942   -1107.4022    272021.47   -78950.012    7006.4543   -85956.466    1125.0107 
   20050    278.71483    -1224.621    271796.64   -78971.573    7059.2733   -86030.846    1126.2807 
   20100    274.57023   -950.79957    271391.22   -78992.429    6954.2991   -85946.728    1126.5306 
   20150    276.49536   -902.95676    271323.39   -79039.531    7003.0587    -86042.59    1129.6686 
   20200    277.20155   -1025.0098    271680.61   -79022.021     7020.945   -86042.966     1135.104 
   20250    279.36224   -1031.9643    271904.67   -79019.951    7075.6709   -86095.622    1137.7688 
   20300    275.05961   -1025.1063    271997.38   -79019.441    6966.6941   -85986.135    1139.6371 
   20350    276.80908   -1141.4139    272162.55   -78977.471    7011.0046   -85988.475      1142.43 
   20400    274.37377   -944.35363    272226.42   -78971.337    6949.3232    -85920.66    1145.0361 
   20450     275.5745   -1121.8073     272197.1   -78980.416    6979.7352   -85960.151    1147.7427 
   20500    270.72473   -1189.6171    271903.52   -79010.318    6856.9005   -85867.219    1149.8589 
   20550    275.16177   -775.84005    271365.64   -78995.589    6969.2816   -85964.871    1152.3288 
   20600    278.88913   -1039.7323    270987.26   -78992.824     7063.688   -86056.511     1153.939 
   20650    274.44617   -960.10193    271047.22   -79021.924     6951.157   -85973.081    1158.1183 
   20700    274.86747   -748.83949    271535.66   -79033.899    6961.8276   -85995.726    1163.0769 
   20750    271.05869   -895.66433    272429.41   -78981.048     6865.359   -85846.407    1168.8747 
   20800    271.76271   -1300.9227    273145.49   -78988.346    6883.1905   -85871.536    1175.4718 
   20850    276.41738   -1163.7706    272784.54   -78965.497    7001.0836   -85966.581     1178.076 
   20900    275.25819   -928.17463    271869.25   -78982.211    6971.7237   -85953.935    1178.0861 
   20950    273.29794   -755.94028     271215.2    -79022.49    6922.0747   -85944.565    1178.0799 
   21000    275.00037   -764.06043    271202.99   -79004.657    6965.1936   -85969.851    1178.7523 
   21050    276.26702   -818.44429    271659.28   -79016.108    6997.2754   -86013.383     1182.068 
   21100    274.20943   -1273.0376    272164.09   -79014.009    6945.1609    -85959.17    1185.7677 
   21150     272.0946   -1118.1629    272335.76   -79001.958    6891.5966   -85893.554    1190.0737 
   21200    277.39482   -911.00199    271950.51   -78992.747    7025.8401   -86018.587    1189.3323 
   21250     272.8125   -909.21978    271523.37   -79010.793    6909.7795   -85920.572    1191.1088 
   21300    278.97032   -837.75789    271447.97   -79003.706    7065.7443    -86069.45    1194.1521 
   21350    276.16176   -747.75901    271594.14   -79006.246    6994.6093   -86000.856      1196.39 
   21400    273.76788   -954.72057    272001.64   -78991.097    6933.9773   -85925.074    1199.1847 
   21450    272.38016   -912.04996    272145.96   -78946.108    6898.8291   -85844.937    1200.0958 
   21500    278.48138    -1074.495    272146.15   -78951.562    7053.3605   -86004.922    1204.4685 
   21550    273.68554   -931.63987    271994.26   -78930.561    6931.8918   -85862.453    1206.3765 
   21600    273.91674   -1002.6511    271996.27   -78912.898    6937.7476   -85850.646    1209.1462 
   21650    277.25102   -1054.9578    271939.11   -78877.383    7022.1981   -85899.581    1211.4774 
   21700    277.57166   -867.15295    271771.46   -78849.852    7030.3192   -85880.171    1212.5792 
   21750    277.61422   -933.21801    271951.77   -78875.349    7031.3972   -85906.746    1216.1999 
   21800    273.61827   -952.78274    272220.95   -78843.797    6930.1879   -85773.985    1220.6526 
   21850    283.24768   -1200.1926    272524.13   -78821.281    7174.0812   -85995.362    1224.3853 
   21900    283.64672   -1260.5405    272472.22   -78839.812     7184.188       -86024    1225.7215 
   21950    275.88094   -927.15094    272034.44   -78850.789    6987.4967   -85838.285    1224.7798 
   22000     277.9875   -673.39054    271666.94   -78856.545    7040.8515   -85897.397    1228.0342 
   22050    275.75452   -975.03825    271529.31   -78831.911    6984.2947   -85816.206    1231.1246 
   22100    279.98732   -813.74506    271648.24   -78817.924     7091.503   -85909.427    1234.9847 
   22150    278.80284   -1116.5507    271944.07   -78834.373    7061.5025   -85895.876    1238.8949 
   22200    278.91523   -1076.2861    272120.65   -78784.356    7064.3491   -85848.705    1242.4737 
   22250    275.67927    -886.8812    272084.47   -78780.754    6982.3889   -85763.143    1245.0178 
   22300    281.10181   -770.33846    272124.55   -78723.691    7119.7305   -85843.421    1248.0513 
   22350    278.09576    -919.8885    272338.37   -78731.533    7043.5935   -85775.127    1251.1639 
   22400    279.42523   -825.41812    272341.12   -78767.394    7077.2662    -85844.66    1253.7266 
   22450    282.58889   -1126.0347    272462.89   -78769.767    7157.3953   -85927.162    1257.4797 
   22500    281.81522   -956.46138    272271.23   -78749.285    7137.7999   -85887.085    1259.6308 
   22550    277.07098   -956.68413    272126.29   -78760.334    7017.6379   -85777.972    1263.3021 
   22600    273.92758   -874.86865    272083.68   -78805.694    6938.0222   -85743.716     1265.888 
   22650    278.03662    -985.7974    272171.02   -78778.533    7042.0956   -85820.629    1269.8524 
   22700    278.63102   -1070.1426    272228.25   -78799.019    7057.1506    -85856.17    1272.1433 
   22750    276.75014   -1006.5372    272331.12   -78787.689    7009.5118   -85797.201     1273.045 
   22800    277.45953   -1081.2022     272321.3   -78806.956    7027.4792   -85834.435    1277.7323 
   22850    279.57728   -858.27491    272098.54   -78819.637    7081.1175   -85900.754     1280.189 
   22900    281.66187   -890.99705    271920.74   -78851.536    7133.9158   -85985.452    1283.3745 
   22950    278.69951   -893.90411    272101.13   -78862.556    7058.8854   -85921.442    1288.6275 
   23000    278.80791   -1167.2696    272480.03    -78886.16    7061.6309   -85947.791    1293.4863 
   23050    279.62758   -1048.4687    272354.81     -78841.7    7082.3913   -85924.092    1297.2326 
   23100    278.54004   -1060.8794    271870.05   -78831.064    7054.8463    -85885.91    1299.5817 
   23150    282.39307   -972.73676     271654.7   -78839.235    7152.4355    -85991.67    1302.6883 
   23200    278.75543   -1187.5385    271977.48   -78838.572    7060.3016   -85898.874    1304.9036 
   23250    275.98375   -945.43378    272154.88   -78849.007    6990.1007   -85839.108    1308.8584 
   23300    274.32662    -1018.601    272192.36   -78864.357     6948.129   -85812.486    1314.0562 
   23350    278.27532   -1098.0232    272342.28   -78869.393    7048.1414   -85917.534    1319.1332 
   23400    275.12419   -920.92924    272231.62   -78884.885    6968.3297   -85853.215    1322.2713 
   23450    278.63517   -1106.3442    272214.45   -78892.395    7057.2556    -85949.65    1326.1252 
   23500    275.91017   -1094.9519    272030.58   -78940.738    6988.2372   -85928.976    1329.1203 
   23550    279.21169   -977.98788    271733.84   -78945.016    7071.8577   -86016.874    1331.6261 
   23600    278.80558   -819.85388    271687.61   -78917.637    7061.5718   -85979.209    1337.1465 
   23650     272.0545   -837.63018       271871   -78881.603    6890.5808   -85772.183    1341.4612 
   23700    278.36354   -1157.1001    272297.55    -78838.46    7050.3757   -85888.836    1346.0452 
   23750    279.75536   -1187.6062     272584.5   -78829.339    7085.6278   -85914.967    1349.2056 
   23800    277.78108   -1068.0799    272389.01   -78803.095    7035.6233   -85838.718    1352.0236 
   23850    282.33854   -872.47346    271948.06   -78827.095    7151.0546    -85978.15    1355.4029 
   23900    279.93214   -997.12124    271824.96   -78842.772    7090.1053   -85932.877    1356.9628 
   23950    274.76343   -1093.3153    271908.06   -78884.899    6959.1924   -85844.091    1359.3915 
   24000    277.66815   -1089.7541    272119.77   -78895.883    7032.7631   -85928.646     1362.701 
   24050    272.19902   -933.31801    272249.69   -78851.779    6894.2413    -85746.02    1365.8598 
   24100    276.27795     -888.102     272385.9   -78811.523    6997.5522   -85809.075    1370.1789 
   24150    277.68373   -1149.3213    272499.89   -78826.052    7033.1578    -85859.21    1372.9588 
   24200     271.1317   -1000.1241    272069.43   -78854.962    6867.2083    -85722.17    1373.0104 
   24250      279.308   -954.02394    271855.01   -78878.767    7074.2972   -85953.065    1374.8888 
   24300      277.842   -1101.7758    272041.05   -78855.532    7037.1664   -85892.698     1377.969 
   24350    276.62442   -1190.4679     272192.8   -78870.258    7006.3275   -85876.586    1380.5277 
   24400    279.42222   -1077.0796    272185.91   -78834.292    7077.1899   -85911.482    1383.6423 
   24450    277.60847   -952.15387    272153.07   -78892.374    7031.2515   -85923.625    1388.4655 
   24500    272.84939   -965.27932    272315.88   -78895.114    6910.7138   -85805.828    1393.4271 
   24550    279.71337   -1172.8983    272271.97   -78872.886    7084.5644    -85957.45    1397.3823 
   24600    275.75583   -1077.8659       271884   -78865.054    6984.3278   -85849.382      1398.76 
   24650    277.85751   -831.18987    271578.85   -78861.693    7037.5592   -85899.252     1399.207 
   24700     280.7003     -802.906    271750.91   -78821.259    7109.5612   -85930.821    1403.0152 
   24750    281.79376   -1263.8327    272267.63   -78803.673    7137.2564    -85940.93    1408.7171 
   24800     276.9212   -1200.0821    272714.03   -78729.029    7013.8444   -85742.873    1414.3159 
   24850    277.34099   -1005.8067    272794.57   -78699.679    7024.4769   -85724.156    1418.5282 
   24900    282.23859   -891.10533    272466.45   -78687.344     7148.523   -85835.866    1421.8561 
   24950    284.82833   -1077.3168     272170.9   -78733.975    7214.1156   -85948.091    1425.9405 
   25000    278.97899   -650.26795    272021.87   -78771.328     7065.964   -85837.292    1429.3714 
   25050    278.72899   -950.55857    272376.19   -78794.563     7059.632   -85854.195    1433.9075 
   25100    279.39018   -1119.1899    272531.74   -78744.955    7076.3787   -85821.334    1438.0493 
   25150    278.09666   -1073.6423    272316.87   -78778.234    7043.6163    -85821.85    1441.7366 
   25200    279.18221   -865.37849    271911.36   -78812.063    7071.1111   -85883.174    1443.6545 
   25250    275.19903   -931.77749    271812.02   -78857.284    6970.2254   -85827.509    1446.5036 
   25300     279.1163   -1046.0573    272057.85   -78898.039    7069.4418   -85967.481    1451.4992 
   25350     276.2458   -1113.5188    272114.58   -78943.918     6996.738   -85940.655    1455.1712 
   25400    277.32006   -1023.3201    272089.57    -78963.93    7023.9467   -85987.877    1457.0899 
   25450    277.70332   -1187.2575    272218.85   -78910.797    7033.6538   -85944.451      1459.75 
   25500    275.93685   -1130.9341    272187.63   -78908.673    6988.9127   -85897.586    1461.4494 
   25550    275.53064   -878.49652    271672.01   -78953.764    6978.6244   -85932.388    1462.0697 
   25600    281.70221   -1015.7772    271386.14   -78977.681    7134.9374   -86112.618    1461.9605 
   25650    278.02931     -874.677    271576.47    -78984.98    7041.9105   -86026.891    1465.6493 
   25700    275.27702   -1184.3738    272119.88   -78957.449    6972.2006   -85929.649     1471.006 
   25750    278.69122   -1016.6458    272196.09   -78953.455    7058.6755    -86012.13    1472.7273 
   25800    276.52602   -1150.3609    272183.45    -78958.01    7003.8352   -85961.845    1475.6427 
   25850    277.14075   -968.79745    272106.38   -78949.582    7019.4051   -85968.987    1477.0904 
   25900    274.23917   -880.93957    272014.13   -78903.581    6945.9141   -85849.496    1478.2669 
   25950    275.19311   -1110.0491    271979.17   -78933.109    6970.0754   -85903.185      1480.91 
   26000    277.12782    -1241.214    271879.16   -78916.469    7019.0777   -85935.546    1481.8221 
   26050    278.24247   -914.49653    271514.43   -79001.841    7047.3094    -86049.15    1483.0983 
   26100    277.30677   -993.94431    271417.23   -79029.999    7023.6101   -86053.609    1486.4468 
   26150    271.36018   -747.87879    271666.45   -79023.478    6872.9952   -85896.473    1489.7797 
   26200    274.00847    -1146.352    272089.22   -79006.984     6940.071   -85947.055     1492.921 
   26250      276.065   -1017.4119    272176.17   -78993.864    6992.1586   -85986.023    1496.6942 
   26300    275.94221   -1054.7915    272036.56   -79018.427    6989.0485   -86007.476    1498.3059 
   26350    269.16422    -991.3899    271907.89   -79027.261    6817.3761   -85844.637    1500.3483 
   26400    273.27731   -898.66438    271975.25    -79023.23    6921.5522   -85944.782    1503.8038 
   26450    276.02177   -985.84367    272242.36   -78978.843    6991.0636   -85969.907    1506.3323 
   26500    272.30074   -1152.5899    272367.02   -78980.947    6896.8176   -85877.764     1509.523 
   26550    270.91475   -907.36446    272112.71   -78974.408    6861.7132   -85836.121    1512.0113 
   26600    276.35071   -1052.7978    271752.44   -78992.734    6999.3951   -85992.129    1513.4243 
   26650    274.52166   -868.77324    271257.14   -78986.869     6953.069   -85939.938    1515.5276 
   26700    276.95436   -767.47565    271116.31   -78965.093    7014.6842   -85979.778    1517.6103 
   26750    272.09331   -1026.6318    271563.54   -78961.689    6891.5639   -85853.253    1520.3276 
   26800    278.17154   -1396.1083    272207.02   -78998.672    7045.5129   -86044.185    1526.7631 
   26850    273.32565    -1093.578    272354.36    -78985.48    6922.7764   -85908.257    1529.9046 
   26900    272.80847   -1003.6546    272077.85   -78943.884    6909.6774   -85853.561     1530.318 
   26950    274.36361   -722.09114    271602.24   -78979.099    6949.0658   -85928.165     1530.473 
   27000    274.09065   -856.87222    271573.95   -78984.479    6942.1523   -85926.631    1534.1461 
   27050     277.5011   -1136.1254    271866.44   -79000.702     7028.532   -86029.234    1540.0173 
   27100    276.24417   -1064.7249    271884.63   -78964.991    6996.6966   -85961.687    1542.3252 
   27150    273.95911   -919.29017    271873.39   -78991.331    6938.8207   -85930.151    1546.4108 
   27200    274.88003   -914.73587       271852   -78974.277    6962.1458   -85936.422    1549.9602 
   27250    272.84549   -1073.8972    271928.03   -78957.294    6910.6149   -85867.909    1553.4577 
   27300     276.3192   -664.37434    271777.71   -78961.095    6998.5969   -85959.692    1555.3679 
   27350    276.07785   -950.80483    272071.68   -78931.593    6992.4841   -85924.077    1558.6704 
   27400    273.72825    -1086.813    272334.28   -78880.246    6932.9734    -85813.22    1562.2903 
   27450    274.61208   -1028.2854     272281.6    -78907.56    6955.3591   -85862.919    1564.2231 
   27500    277.47376   -1068.3503    272288.24   -78897.178    7027.8395   -85925.018    1564.7699 
   27550    278.49234   -835.42956    272308.09   -78889.597    7053.6381   -85943.235     1565.862 
   27600    273.57746   -1062.7272    272244.74   -78895.196    6929.1544   -85824.351    1568.3123 
   27650    275.49858   -1052.8113    272075.99   -78916.365    6977.8124   -85894.177    1570.2103 
   27700    272.57908    -1051.929    271641.24   -78935.552    6903.8674    -85839.42    1572.6005 
   27750    276.31529   -726.99131    271376.74   -78908.949    6998.4979   -85907.446    1575.3616 
   27800    275.52258   -990.11945    271925.75   -78913.342    6978.4201   -85891.762    1578.6339 
   27850    276.64062   -1081.4432    272321.79    -78869.23    7006.7378   -85875.968    1585.4068 
   27900    273.29504   -773.31145    272484.02   -78881.214    6922.0012   -85803.216    1589.9735 
   27950    274.06968   -1152.2872     272594.9   -78894.537    6941.6213   -85836.158    1591.3063 
   28000    278.16077   -1149.6832    272375.67   -78893.474    7045.2402   -85938.714     1593.933 
   28050    276.73088   -879.89409    272000.79   -78890.298     7009.024   -85899.322    1594.5842 
   28100    276.70515   -838.20719    271545.99   -78919.779    7008.3723   -85928.151    1596.9776 
   28150    280.81845   -1035.3368    271372.55   -78909.066    7112.5537   -86021.619     1598.854 
   28200    275.42374   -981.39535    271580.83   -78912.962    6975.9168   -85888.879    1602.3651 
   28250     274.3949    -1018.862    272034.67   -78962.637    6949.8585   -85912.496    1606.1106 
   28300    276.57553   -999.67566    272413.39   -78953.432    7005.0892   -85958.521    1608.1477 
   28350    272.75639   -1227.7094    272524.79   -78942.744    6908.3583   -85851.103    1612.8235 
   28400     274.0019   -1180.0749    272071.01   -78906.782    6939.9044   -85846.686    1612.1185 
   28450    273.51045    -688.0184    271469.21   -78913.385    6927.4571   -85840.842    1611.5339 
   28500    280.22419   -1150.4772    271640.14    -78923.81    7097.5024   -86021.312    1616.0031 
   28550    268.49673   -1123.5957    271915.18   -78937.009      6800.47   -85737.479    1619.1124 
   28600    276.85917    -1147.406    272078.54    -78921.46    7012.2733   -85933.733    1621.8811 
   28650    275.83807   -801.57354    272015.69    -78936.72    6986.4109   -85923.131    1624.7933 
   28700    274.27852   -892.61009    272070.58   -78944.499    6946.9107   -85891.409     1624.648 
   28750    271.24751   -1039.3258    272066.89   -78945.729    6870.1414    -85815.87    1626.4257 
   28800    274.59085   -1242.7238     272046.3   -78956.824    6954.8215   -85911.645    1627.8421 
   28850    277.72551   -1084.5405    271671.34   -78947.404    7034.2159    -85981.62    1629.7691 
   28900    275.76283   -753.97601    271211.42   -78998.701    6984.5054   -85983.206    1630.0319 
   28950    273.93156   -725.66631    271306.66   -79021.363    6938.1229   -85959.486    1632.8251 
   29000    274.84303   -1214.9687    272002.09   -79034.355    6961.2087   -85995.563    1639.0354 
   29050    273.12304   -1242.8301    272192.93   -79019.032    6917.6449   -85936.677    1642.7878 
   29100    270.19471    -947.6657    271846.16   -79048.005    6843.4761   -85891.481    1642.7411 
   29150    277.38542   -1163.4359    271478.96    -79058.66    7025.6022   -86084.263    1645.0317 
   29200    274.24651    -843.7594    271374.82   -79072.706       6946.1   -86018.806    1647.7732 
   29250    272.16844    -988.8168    271610.78   -79080.047    6893.4667   -85973.514    1651.7102 
   29300    273.85449   -1105.1396    271732.35   -79102.804    6936.1709   -86038.975    1654.8487 
   29350    271.96741   -1011.8256    271767.29   -79097.985     6888.375    -85986.36     1657.672 
   29400    272.44321   -1167.5347    271885.11   -79069.111    6900.4262   -85969.537     1659.328 
   29450    272.95028   -961.00804    271924.36   -79036.163     6913.269   -85949.432    1660.3107 
   29500    275.06503   -1065.3672    272080.56   -79010.228    6966.8315    -85977.06     1664.105 
   29550    276.12658   -1018.8925    272277.35   -78962.815    6993.7184   -85956.533    1670.1298 
   29600    278.25895   -1102.4854    272395.81   -78961.796    7047.7269   -86009.523    1675.3713 
   29650    272.13029   -1052.4195    272360.81   -78933.346    6892.5006   -85825.847    1678.2909 
   29700    275.99975   -920.50832    271741.49   -78946.959    6990.5058   -85937.465    1676.7043 
   29750    279.95699   -696.00476     271351.8   -78914.289    7090.7347   -86005.024    1676.4787 
   29800    277.71161    -917.4938    271619.15   -78889.198    7033.8638   -85923.061    1681.1164 
   29850    277.13702   -868.93155    272254.17    -78846.43    7019.3107   -85865.741    1685.6038 
   29900    277.94647   -1370.0417     272749.2   -78842.673    7039.8123   -85882.486    1690.6417 
   29950    280.65217   -980.86223     272408.7   -78851.258    7108.3423     -85959.6    1694.4574 
   30000    277.42764    -859.7802    271857.38   -78841.861    7026.6715   -85868.533    1695.7069 
   30050    281.29848   -876.95734    271467.72   -78843.045    7124.7119   -85967.757    1696.4795 
   30100    279.94509   -943.31137    271736.24    -78853.39    7090.4333   -85943.824    1699.5019 
   30150    277.09689   -939.69547     272332.4   -78836.733    7018.2942   -85855.027    1703.4517 
   30200    274.70917    -1112.849    272789.18   -78852.952    6957.8182   -85810.771     1710.115 
   30250    272.77973   -1026.5247     272674.8    -78865.68    6908.9494   -85774.629    1712.7787 
   30300     278.8779   -963.12639    272199.11   -78918.668    7063.4037   -85982.072    1714.7609 
   30350    273.41804    -1087.636    271843.09   -78940.331    6925.1166   -85865.447     1713.763 
   30400    275.14121   -915.23827    271710.44   -78969.505    6968.7608   -85938.265    1716.4103 
   30450    272.51697   -1014.3336    272014.68   -78991.751    6902.2943   -85894.045    1720.8268 
   30500    275.91579   -1159.5039    272340.36   -78985.576    6988.3794   -85973.955    1725.2422 
   30550    275.89888    -1129.339    272133.35   -78931.219    6987.9511    -85919.17    1727.3339 
   30600    280.56192   -824.69591    271680.34   -78916.548    7106.0563   -86022.605    1725.9711 
   30650    278.23594   -837.46786     271599.9    -78875.67    7047.1441   -85922.814    1728.2676 
   30700    273.74196   -875.66703    271713.36   -78871.089    6933.3206   -85804.409    1732.1505 
   30750    280.02333    -1138.542    271954.92   -78857.495     7092.415    -85949.91    1735.5248 
   30800    275.91793   -946.39701    272400.85   -78859.018    6988.4337   -85847.452    1739.9405 
   30850    275.66003   -1103.0728    272769.86   -78812.252    6981.9015   -85794.153    1744.7944 
   30900    279.87532   -1074.8996    272537.76   -78799.811    7088.6661   -85888.477    1747.4111 
   30950      274.783   -956.35831    272140.16   -78840.463    6959.6882   -85800.151    1747.6446 
   31000    279.32729   -960.21121    271872.34   -78848.554    7074.7857    -85923.34    1750.2549 
   31050    281.33737   -1010.1299    271805.84   -78877.003    7125.6969     -86002.7    1751.8275 
   31100    280.20237   -1029.0156    271804.97   -78852.693    7096.9497   -85949.643    1756.4064 
   31150    278.41526    -879.3353    271904.36   -78829.392    7051.6858   -85881.077    1759.3537 
   31200    279.32231   -1237.3105    272484.11   -78850.257    7074.6595   -85924.916    1765.7801 
   31250    276.58642   -1425.8029    272741.84   -78860.442     7005.365   -85865.807    1771.3211 
   31300    275.59864   -1075.7686    272270.52   -78853.321    6980.3466   -85833.667    1771.5725 
   31350    278.61665   -838.36721     271633.2   -78872.826    7056.7865   -85929.612    1767.5825 
   31400    275.92469   -707.92489    271388.56   -78889.319    6988.6048   -85877.924    1769.0221 
   31450    278.25639   -1134.3548    271889.79   -78892.116    7047.6619   -85939.778    1774.7872 
   31500    274.70517   -1085.5091    272531.54   -78923.704    6957.7168   -85881.421    1778.2458 
   31550    277.64267   -1258.8821    272851.95   -78983.412    7032.1178    -86015.53    1782.2533 
   31600    275.05186   -1065.7389    272181.34    -78947.88    6966.4978   -85914.378    1780.5744 
   31650    277.07747    -974.4719    271200.39   -78933.298    7017.8023     -85951.1    1778.3224 
   31700    282.41475   -739.00201     270791.7   -78910.867    7152.9847   -86063.852    1777.1215 
   31750       278.59   -914.77589    271356.89   -78878.123    7056.1116   -85934.235    1781.3549 
   31800    277.61592   -1026.8655    272054.09   -78921.715    7031.4403   -85953.155    1788.6937 
   31850    277.29631     -1046.28    272487.81   -78894.363    7023.3452   -85917.709    1793.3073 
   31900    279.42458   -1097.8377    272303.83   -78879.196    7077.2498   -85956.446     1795.844 
   31950     277.4631   -1060.2458    271887.93   -78869.845    7027.5695   -85897.414    1795.9611 
   32000    279.72091   -981.13328    271702.06   -78864.108    7084.7554   -85948.863    1799.0702 
   32050     275.2538   -933.90536       271650   -78885.911    6971.6125   -85857.524    1801.5575 
   32100    279.33329   -1036.3918    271692.56   -78904.922    7074.9377    -85979.86    1804.5302 
   32150    278.65472    -919.5261    271858.02   -78938.963     7057.751   -85996.713    1808.1112 
   32200    274.51663   -1164.7693    272167.33   -78939.484    6952.9416   -85892.426    1811.6002 
   32250    276.40418   -1039.8819    272027.59   -78871.039    7000.7493   -85871.788    1812.1046 
   32300    275.68303   -851.50169     271680.3   -78876.748     6982.484   -85859.232    1813.1655 
   32350    276.09844   -926.72464    271603.42   -78916.754    6993.0054   -85909.759    1817.0222 
   32400    274.82729   -1055.5191    272122.28   -78940.617    6960.8098   -85901.426     1821.325 
   32450    273.72434   -1177.1104    272546.24   -78891.289    6932.8744   -85824.164    1824.8927 
   32500    276.86148   -1292.8861    272613.63   -78865.134    7012.3318   -85877.465    1827.2821 
   32550    278.14128   -988.42046    272164.38   -78858.441    7044.7464   -85903.188     1829.712 
   32600    279.39841   -1001.1628    271487.03   -78888.115     7076.587   -85964.702    1830.2678 
   32650    276.80228   -591.07657    270861.37   -78889.562    7010.8323   -85900.394    1830.6894 
   32700    276.52045   -881.13673    271103.05   -78891.646    7003.6941    -85895.34    1835.6068 
   32750    277.50441   -1234.1028    271984.35   -78896.985    7028.6159   -85925.601    1843.6939 
   32800     275.3557   -994.59676    272716.18   -78857.555    6974.1935   -85831.748    1851.0171 
   32850    277.80844   -1034.4379    272859.34    -78844.58    7036.3164   -85880.897    1855.2811 
   32900     277.2386   -1117.6812    272496.72    -78827.12    7021.8834   -85849.004    1855.0726 
   32950    276.17954    -766.5911    272116.13   -78849.543    6995.0597   -85844.602    1853.8448 
   33000     276.6095   -840.35378    272034.74   -78858.403    7005.9497   -85864.353    1855.7124 
   33050    276.88497   -753.73245    272140.15   -78846.255    7012.9267   -85859.182    1859.2968 
   33100    276.21634   -1021.6768    272341.01   -78845.637    6995.9918   -85841.628    1861.7907 
   33150    273.75293   -996.89019     272422.2   -78826.381    6933.5986   -85759.979    1864.9722 
   33200    281.26241   -1178.4397    272381.32   -78852.974    7123.7984   -85976.773    1867.8095 
   33250    283.37205   -1047.2262    272219.25   -78819.848     7177.231    -85997.08    1869.2174 
   33300     276.9323   -726.47905    272263.04   -78802.549    7014.1256   -85816.675    1870.9244 
   33350    277.83971   -1177.1485    272617.95   -78797.449    7037.1084   -85834.558    1875.4703 
   33400    280.97742   -1106.7302    272522.02   -78802.832    7116.5801   -85919.412     1875.552 
   33450    278.18255   -852.52853    272094.64   -78783.156    7045.7918   -85828.948    1875.2063 
   33500    283.44352   -793.17354     271600.4   -78757.912    7179.0413   -85936.954    1877.0821 
   33550    282.43331   -961.83212    271687.42   -78708.744    7153.4549   -85862.199    1879.0335 
   33600    285.63284   -881.32998    272176.48   -78721.771    7234.4922   -85956.263    1883.6433 
   33650    282.35336    -1067.191     272627.5   -78707.735    7151.4297   -85859.165    1889.1896 
   33700    280.75212   -1002.4099     272683.3   -78721.125    7110.8736   -85831.999    1892.9164 
   33750    280.89209   -978.85557    272446.43   -78762.829    7114.4187   -85877.247    1893.4481 
   33800    280.20073   -894.96556    272125.08   -78800.769    7096.9082   -85897.677     1894.666 
   33850    276.63643   -1070.0167     271903.7   -78841.607    7006.6318   -85848.239    1894.8316 
   33900    279.96475   -1058.9479    271733.41   -78846.593    7090.9311   -85937.524    1895.7714 
   33950    279.40747   -1005.4201     271464.8   -78847.453    7076.8165   -85924.269    1894.6231 
   34000    284.19225   -1028.7748    271383.26    -78849.52    7198.0052   -86047.525    1895.0023 
   34050    277.29026   -1067.7444    271824.13   -78884.322     7023.192   -85907.514    1901.4709 
   34100     277.5561    -1014.294    272371.65   -78885.385    7029.9252   -85915.311    1907.8784 
   34150    272.66528   -1061.3397    272813.66   -78897.648    6906.0505   -85803.699    1911.9966 
   34200    277.28868   -1260.7761    272653.87   -78887.811    7023.1519   -85910.963    1914.9165 
   34250    272.66324   -937.85324    271796.26   -78979.208    6905.9991   -85885.207    1914.4347 
   34300    276.54614   -909.59235    270877.59    -79015.12    7004.3448   -86019.465    1912.9318 
   34350    276.82886   -646.37499    270819.68   -78997.858    7011.5056   -86009.364    1913.5827 
   34400    276.84566   -874.86699    271574.77   -79030.616    7011.9312   -86042.548     1919.906 
   34450    274.48243   -1117.4192    272467.61    -78983.48    6952.0754   -85935.555    1926.5343 
   34500    272.79041   -1265.6261    272989.14   -79003.619    6909.2201   -85912.839    1933.7309 
   34550    274.35659     -1264.91    272690.71   -78954.455    6948.8881   -85903.343    1936.2774 
   34600    275.38292   -979.08844     271928.4   -78945.423    6974.8829   -85920.306    1932.5185 
   34650    277.91925   -568.16077    271257.43   -78955.396    7039.1228   -85994.519    1934.0544 
   34700    273.08345   -994.61767    271419.14   -78934.163    6916.6421   -85850.806    1937.3835 
   34750    271.02189    -998.1893    271705.27   -79022.742    6864.4269   -85887.169    1939.4486 
   34800    274.26961   -1035.2257    271885.51    -79003.51     6946.685   -85950.195    1942.2502 
   34850     273.8455   -1124.6316    271700.47   -79039.793    6935.9433   -85975.736    1945.2215 
   34900    273.19766   -864.14252    271367.88   -79020.818    6919.5348   -85940.353    1945.5696 
   34950    276.66899   -1006.1553    271291.24   -79053.678    7007.4564   -86061.134     1947.641 
   35000    274.04212   -872.43606    271183.89   -79033.092    6940.9231   -85974.015    1951.3349 
   35050    272.67584   -907.58492    271200.56   -79070.075    6906.3181   -85976.393     1954.286 
   35100    273.22042   -987.33946    271656.17   -79059.818    6920.1113   -85979.929    1961.1833 
   35150    271.17281   -868.08865    271979.81   -79040.144    6868.2494   -85908.393    1968.1601 
   35200    276.59774   -1153.9915    272195.59   -79017.039    7005.6518   -86022.691    1972.4345 
   35250    274.57268   -1008.3515     272096.8   -79026.916    6954.3612   -85981.277    1974.8939 
   35300    273.02915   -1046.7383    271903.66   -78962.962    6915.2668   -85878.228    1977.4808 
   35350    280.29121   -1046.9237    271667.43    -78969.35    7099.1997    -86068.55    1978.6816 
   35400    275.29901   -1022.9035    271850.44   -78937.794    6972.7577   -85910.552    1980.2349 
   35450     271.8955   -1043.6542     272282.6   -78954.407    6886.5536   -85840.961    1986.3277 
   35500     272.7326   -1270.6225    272526.83   -78952.836    6907.7557   -85860.592    1990.2191 
   35550    277.17234   -1254.8992    271929.65   -78973.009    7020.2052   -85993.214    1989.4307 
   35600    277.64468   -699.49422    271010.24   -78934.205    7032.1685   -85966.374     1986.598 
   35650    275.94837   -717.22186    271033.78   -78939.362    6989.2047   -85928.566    1988.5171 
   35700    278.67395   -878.65438    271932.28   -78946.484    7058.2378   -86004.722    1994.5851 
   35750    272.34826   -1220.4506    272772.26   -78908.822    6898.0213   -85806.843    2001.6507 
   35800      271.806    -1146.311       272801   -78895.278    6884.2869   -85779.565    2003.5346 
   35850    271.94136   -1073.2942    272330.53   -78910.515    6887.7152    -85798.23    2002.5062 
   35900    279.61225   -1082.1029    271680.98   -78883.308    7082.0031   -85965.312    2001.6223 
   35950    276.31589   -808.55282    271307.12    -78912.24    6998.5132   -85910.753    2003.9613 
   36000    280.95806   -1091.8146    271640.92   -78914.577    7116.0896   -86030.666    2007.1757 
   36050    271.47086   -1143.8831    272256.44   -78953.264    6875.7985   -85829.062    2013.0602 
   36100    281.48491   -1188.3942    272588.96   -78902.446    7129.4336   -86031.879    2017.4128 
   36150    274.52906   -840.24429    272517.15   -78915.981    6953.2565   -85869.237    2018.7367 
   36200    271.11802   -1058.1394    272352.79   -78941.683    6866.8618   -85808.545    2020.5129 
   36250    277.67661   -954.09159    272041.04   -78962.132    7032.9774   -85995.109    2019.2808 
   36300    273.76657   -1233.1051    271721.84   -78972.734     6933.944   -85906.678    2018.9311 
   36350    273.22321   -1049.3183    271319.11   -78995.961    6920.1819   -85916.143    2021.5022 
   36400    278.84855   -775.58246    271202.64   -78994.935    7062.6601   -86057.595    2023.4583 
   36450    273.53637   -835.43075    271776.81   -78935.772    6928.1135   -85863.886    2030.1793 
   36500    275.66208   -1043.4919    272716.03   -78868.341    6981.9535   -85850.294    2037.8665 
   36550    276.20512   -1220.3446    272978.75   -78870.208    6995.7075   -85865.915    2041.7021 
   36600    278.58879   -952.14543    272525.96   -78937.831     7056.081   -85993.912    2040.7057 
   36650    275.49663   -1040.7293    272061.65   -78955.623    6977.7631   -85933.386    2038.5488 
   36700     272.0365   -1067.7796    271553.05   -78997.983    6890.1249   -85888.107    2040.3497 
   36750    274.29799   -1018.6707    271072.16   -79000.665    6947.4039   -85948.069    2039.5242 
   36800    275.47313   -738.27615    271147.36   -79001.495    6977.1678   -85978.662     2043.647 
   36850     271.3014   -1021.4176    271818.07   -78975.995    6871.5064   -85847.501    2051.1478 
   36900    274.74659     -1275.52    272246.09   -78963.128     6958.766   -85921.894    2055.9155 
   36950    274.76032   -1252.4826     272188.7   -78971.882    6959.1138   -85930.996    2059.3267 
   37000    276.69822   -878.24119    271690.46   -78993.931    7008.1967   -86002.128    2057.5181 
   37050    274.50684   -893.61132    271410.71   -78989.764    6952.6935   -85942.458    2056.4566 
   37100    277.65631   -1258.2483    271564.94   -78927.069    7032.4631   -85959.533    2059.7385 
   37150    278.28252   -929.39481    271639.57   -78918.983    7048.3237   -85967.307     2064.179 
   37200    274.59234   -1023.6207     271838.1   -78922.218     6954.859   -85877.077    2069.6927 
   37250    276.38848   -978.65752    272299.96   -78939.298    7000.3517   -85939.649    2074.2758 
   37300    277.78751   -1248.2898    272710.04    -78956.64    7035.7863   -85992.426    2079.2836 
   37350    278.28593   -1214.7502    272377.82   -78936.917    7048.4101   -85985.327      2081.13 
   37400    280.22956   -872.81783    271665.63   -78916.351    7097.6382   -86013.989    2082.0023 
   37450    276.83226   -742.31698    271264.89   -78913.408    7011.5918       -85925    2082.9919 
   37500    275.81437    -849.9455    271594.51   -78874.519    6985.8108    -85860.33    2087.3657 
   37550    276.37856   -1207.4626    272120.28   -78928.079    7000.1003    -85928.18    2093.8439 
   37600     277.9272   -1093.8088    272364.67   -78945.874    7039.3242   -85985.198    2099.0315 
   37650    273.50147   -1338.4497    272418.21   -78938.518    6927.2296   -85865.748    2099.5318 
[...]
   90850    274.26649   -973.25232    271945.98   -79070.779    6946.6061   -86017.385    5018.2783 
   90900    273.86746   -1200.2289    271347.59     -79072.7    6936.4994   -86009.199    5012.1479 
   90950    273.58856     -706.314     271068.8   -79083.025    6929.4355    -86012.46    5012.0486 
   91000    277.97213   -910.69624     271485.5   -79096.025    7040.4622   -86136.487     5020.259 
   91050    271.40678   -1052.1618    272189.01   -79116.213    6874.1754   -85990.388     5033.085 
   91100    275.85676   -1489.6181     272707.5   -79054.529    6986.8842   -86041.413     5044.427 
   91150    276.28514    -1067.009    272294.79    -79035.81    6997.7343   -86033.544    5047.6146 
   91200     277.6927   -971.48754    271585.98   -79066.246     7033.385   -86099.631     5041.222 
   91250    275.99079    -746.8591    271014.83   -79048.107     6990.279   -86038.386    5038.1632 
   91300    274.08784   -930.25167    271001.58   -79062.062    6942.0811   -86004.143    5042.2855 
   91350    278.17556   -979.29877    271320.34   -79072.192    7045.6148   -86117.807    5044.6126 
   91400    274.95635   -1118.6439    271926.84   -79086.827    6964.0788   -86050.905    5053.3411 
   91450    270.47873   -951.99686    272179.97   -79030.864    6850.6698   -85881.534    5060.4999 
   91500    272.25315   -986.30142    272237.84   -79071.885    6895.6122   -85967.497     5063.452 
   91550     277.7872   -992.63679    271993.63   -79042.224    7035.7783   -86078.002    5065.1869 
   91600    274.28758   -812.02583    271585.73   -79059.285    6947.1402   -86006.425    5059.5665 
   91650    276.15107   -1026.2781    271431.58   -79034.788    6994.3386   -86029.127    5057.7977 
   91700    274.05192   -1074.0919    271636.95   -79045.236    6941.1715   -85986.407    5060.1599 
   91750    277.68007   -1105.2781    271936.47   -79013.362    7033.0649   -86046.427    5065.1268 
   91800    274.64041   -1154.3451    271960.62   -79026.632    6956.0767   -85982.709    5063.4099 
   91850    278.22498   -1019.9432    271613.97   -79031.747    7046.8664   -86078.613    5060.6486 
   91900    274.36808   -738.75455     271412.9   -79015.607    6949.1792   -85964.786    5058.1311 
   91950    280.33395    -1082.132    271897.34   -79004.361    7100.2824   -86104.644    5066.4172 
   92000    269.86895   -1072.6757    272576.71   -79044.706    6835.2253   -85879.932    5078.8166 
   92050    277.01128   -1421.4501    272645.95   -79059.897     7016.126   -86076.023    5083.5581 
   92100    274.41412    -1135.225    271868.54   -79045.285    6950.3451   -85995.631    5075.9525 
   92150    273.30935   -874.81124    271107.47   -79082.226    6922.3636    -86004.59    5064.8387 
   92200    273.26089   -848.80082    271304.87   -79056.595    6921.1361   -85977.732    5068.7426 
   92250    273.14196   -1231.8237    271936.38   -79019.624    6918.1241   -85937.748    5080.7816 
   92300    275.07419   -1039.7136    272009.96   -79012.286    6967.0635    -85979.35    5085.7721 
   92350    279.31763   -911.03445    271791.23   -78982.946     7074.541   -86057.487    5086.0255 
   92400    273.37424   -1082.4191    271685.48   -79001.013    6924.0071    -85925.02    5085.7199 
   92450    277.59692   -982.41607    271515.33   -79021.568    7030.9591   -86052.528    5084.6895 
   92500    278.51728   -946.13141    271467.92   -79070.743    7054.2698   -86125.013    5086.0708 
   92550    274.95138   -1099.5046    271929.42   -79092.816    6963.9529   -86056.769     5094.481 
   92600    269.28842   -1015.9729    272260.36    -79056.45    6820.5217   -85876.972    5100.4483 
   92650    273.91245   -1048.3901    272075.18   -79025.003    6937.6389   -85962.642    5100.9452 
   92700    276.70016   -992.46692    271536.54   -79037.948     7008.246   -86046.194    5101.0488 
   92750    273.42605   -597.70174    271275.58   -79019.171    6925.3194    -85944.49    5099.5616 
   92800    273.28981   -1045.6897     271639.3   -79006.692    6921.8687   -85928.561    5108.3433 
   92850    275.43886   -1109.6015    272083.39    -78958.52    6976.2998   -85934.819    5118.3477 
   92900    273.52852    -1119.353    272095.13   -78942.729    6927.9148   -85870.644    5120.8578 
   92950    278.13194    -1002.722    271725.48     -78919.4      7044.51    -85963.91    5116.1886 
   93000    281.06316   -933.88102    271731.42   -78860.073    7118.7516   -85978.824    5119.2278 
   93050    276.53407   -832.48483    271919.13   -78834.706    7004.0392   -85838.746    5123.3006 
   93100    279.06765   -1003.5856    272024.93   -78864.071    7068.2095    -85932.28    5129.7876 
   93150    277.53538   -1124.9918    272060.29   -78893.936    7029.4004   -85923.336    5133.2893 
   93200    277.24266   -1224.9749     271808.7   -78945.531    7021.9863   -85967.517    5135.0887 
   93250    276.43705    -831.3463     271385.4    -78944.28    7001.5819   -85945.862    5135.8069 
   93300    276.79197     -759.989    271479.07   -78935.381    7010.5713   -85945.952    5142.4855 
   93350    272.11346   -938.27129    271912.69   -78945.192    6892.0743   -85837.266    5151.2721 
   93400     280.5937   -1236.9234    272322.44   -78902.733    7106.8611   -86009.595    5158.8587 
   93450    275.40051   -1204.6956    272291.19   -78911.194    6975.3284   -85886.522    5163.4274 
   93500    279.00662   -1013.7977    271857.37   -78947.479    7066.6639   -86014.143    5160.4314 
   93550    281.77943   -848.35024    271545.45   -78918.878    7136.8934   -86055.772     5158.614 
   93600    282.66145   -868.76057    271569.17   -78911.219    7159.2331   -86070.452    5160.6296 
   93650    279.40295   -1079.6324    271961.68   -78890.581    7076.7019   -85967.283    5172.7018 
   93700    281.40084    -1125.347    272118.77   -78851.914    7127.3045   -85979.219    5178.0161 
   93750    277.15735   -904.82978    271853.42   -78899.627    7019.8255   -85919.453    5175.5742 
   93800    276.68745   -1040.2942    271657.21    -78929.03    7007.9239   -85936.954    5174.8966 
   93850    272.20971   -885.99351    271486.86   -78937.383    6894.5121   -85831.895    5175.8221 
   93900    276.83351   -790.99975    271533.24   -78930.122    7011.6232   -85941.745    5177.9362 
   93950    275.09062   -880.42503    271798.42   -78926.943    6967.4796   -85894.423    5184.6627 
   94000    275.24456   -848.93517    271990.64   -78974.495    6971.3786   -85945.874    5190.3542 
   94050    275.00126   -921.77261     272128.8   -79030.083    6965.2162   -85995.299    5195.6746 
   94100      279.937   -1015.6782    272069.65   -79043.069    7090.2283   -86133.297    5192.1668 
   94150    271.06295   -1101.4636    271897.87   -79066.817    6865.4669   -85932.284    5194.3569 
   94200    271.34105   -1032.1117    271385.66   -79047.432    6872.5107   -85919.943    5185.5832 
   94250    275.35665   -687.08841     270971.7   -79008.706    6974.2176   -85982.924    5182.0709 
   94300    276.15188   -772.81576    271406.59   -79001.437    6994.3591   -85995.797    5189.2663 
   94350    274.63111   -1265.1292    272395.81   -79005.973    6955.8412   -85961.814    5203.0967 
   94400    275.81648   -1433.0435    272673.84   -79000.827     6985.864   -85986.691    5210.9709 
   94450    277.23455   -1023.4606    272057.64   -79000.865    7021.7808   -86022.646    5203.5647 
   94500    274.06361   -786.79727     271296.9   -79034.179    6941.4675   -85975.646    5193.1986 
   94550    276.91767   -823.56497     271022.2   -79025.584    7013.7551   -86039.339    5187.3024 
   94600    274.35535   -944.04908    271386.41   -79006.605    6948.8568   -85955.461    5192.8176 
   94650    270.15024   -949.73111    272003.64   -79009.186      6842.35   -85851.536    5201.9164 
   94700    274.25049   -1042.0744    272426.06   -78988.589    6946.2007   -85934.789    5209.0881 
   94750    276.98846    -1171.433    272456.45   -79030.357     7015.548   -86045.905     5210.814 
   94800    267.89978   -1215.0938    272069.79   -79071.779    6785.3504    -85857.13    5201.6357 
   94850    273.17285   -955.33803    271400.14    -79115.95    6918.9064   -86034.857    5192.1925 
   94900    273.52147   -861.48435    271000.08   -79123.225    6927.7363   -86050.961    5188.1449 
   94950    278.14372   -785.44388    271069.66     -79082.1    7044.8083   -86126.908    5190.8682 
   95000    270.68231   -912.34493    271818.83   -79135.845     6855.826   -85991.671    5197.8862 
   95050    269.92055   -1241.6427    272349.59   -79132.776    6836.5322   -85969.308    5205.6409 
   95100    273.55238   -914.81065    272066.81   -79104.359    6928.5192   -86032.878    5205.5218 
   95150    274.44728    -1193.468    271647.01   -79077.895     6951.185    -86029.08    5200.8098 
   95200    274.59437    -652.7238    271225.32   -79098.595    6954.9105   -86053.505    5194.0433 
   95250    271.29097    -961.8678    271431.47   -79112.879    6871.2423   -85984.121    5198.7197 
   95300    270.07073   -997.06798    271695.23   -79135.012    6840.3359   -85975.348     5208.558 
   95350    274.63627   -1145.4476    271893.99   -79125.397    6955.9718   -86081.369     5211.171 
   95400    277.24573   -1083.7362    271835.64   -79077.892    7022.0641   -86099.956    5210.4934 
   95450     275.1131   -990.09673    271763.22    -79067.43    6968.0488   -86035.479    5208.5856 
   95500    274.29068   -1103.4886    271506.98   -79054.066    6947.2188   -86001.285    5203.0353 
   95550    279.38317   -672.94986    271191.56   -79009.881    7076.2009   -86086.081    5199.8777 
   95600    276.12364   -883.86629    271466.61   -79022.035    6993.6438   -86015.679    5206.1463 
   95650    275.69013   -894.82248    272139.11   -78983.711    6982.6639   -85966.374    5219.3867 
   95700    275.92134   -1111.5194    272663.72    -78967.48      6988.52       -85956     5230.108 
   95750    274.81933   -1233.0432     272683.6   -78962.577    6960.6084   -85923.185    5229.6624 
   95800    275.37765   -1036.9288    272208.35   -78957.786    6974.7494   -85932.536    5225.7054 
   95850    276.08549   -786.00188    271607.88    -78956.33    6992.6777   -85949.008     5221.454 
   95900    273.15654   -856.47349    271425.46   -78965.259    6918.4933   -85883.752    5221.1793 
   95950    274.68894   -879.47273    271705.31    -78948.23    6957.3059   -85905.536    5225.0889 
   96000    278.34126   -1075.9562    272140.25   -78939.405    7049.8116   -85989.217    5233.5326 
   96050    279.26666   -1054.2403    272233.05   -78928.231      7073.25   -86001.481    5240.2945 
   96100     272.3991   -939.37073    271965.47    -78990.17    6899.3088   -85889.478    5240.1119 
   96150    276.86564   -995.18606    271688.92   -79013.217    7012.4373   -86025.655    5237.3958 
   96200    274.75699   -885.22811    271435.35   -79001.994    6959.0295   -85961.023    5234.8778 
   96250    275.56603   -1083.7647    271394.59   -79030.117    6979.5206   -86009.637    5236.1272 
   96300    275.89704   -872.70928    271566.11   -78998.862    6987.9046   -85986.767    5239.4597 
   96350    273.55537   -971.93548    271991.85   -79012.294    6928.5948   -85940.889    5246.2065 
   96400     276.9003   -1133.8886    272441.23   -79027.829    7013.3151   -86041.144    5254.5233 
   96450    273.93665   -1067.8258    272387.32    -78996.28    6938.2518   -85934.532    5257.1783 
   96500    274.61612   -1036.8055    271962.26   -78988.303    6955.4614   -85943.764    5258.1098 
   96550    279.39791   -917.19474    271410.44   -79024.255    7076.5744    -86100.83    5250.1652 
   96600     275.0154   -821.99193    271163.06   -79083.822    6965.5743   -86049.396    5250.6915 
   96650    276.62636   -1059.0036    271298.37   -79103.821    7006.3766   -86110.198    5254.3891 
   96700    274.01757   -1004.9315    271574.98   -79107.046    6940.3014   -86047.347    5259.1521 
   96750    271.13994   -915.68556    271919.15   -79129.471     6867.417   -85996.888    5266.0027 
   96800    270.58368    -1002.808    272025.75   -79150.065     6853.328   -86003.393    5268.5504 
   96850    272.50721   -1092.3437    271848.38   -79137.353     6902.047     -86039.4     5269.373 
   96900    273.29401   -940.12668    271359.73   -79115.039    6921.9751   -86037.014    5266.3664 
   96950     279.5487   -1025.7701    270958.33   -79116.025    7080.3935   -86196.418    5260.4906 
   97000    273.98861   -825.46241    271050.96   -79043.406     6939.568   -85982.974    5263.3596 
   97050     271.4431   -991.95984    271770.55   -79035.801    6875.0953   -85910.896    5273.3226 
   97100    273.09852   -881.99265     272388.3   -79035.402    6917.0238   -85952.426    5281.9239 
   97150    268.06156   -1318.4545    272704.44    -79057.92    6789.4479   -85847.368    5286.5841 
   97200    274.18399   -1132.3008    272186.88   -79042.914    6944.5164   -85987.431    5282.9645 
   97250     276.0337   -832.12431    271363.54   -79052.103    6991.3659   -86043.469    5273.6365 
   97300    282.61406    -1075.426    271077.32    -79008.17    7158.0328   -86166.202    5274.1474 
   97350    278.28218     -987.635    271436.23   -78966.904    7048.3152   -86015.219    5278.7052 
   97400    274.73003    -1080.604    271928.21   -78938.467    6958.3466   -85896.814     5289.591 
   97450     279.2224   -1209.2712    271982.88   -78932.526     7072.129   -86004.655    5291.6272 
   97500    276.30895   -1035.5725    271772.51   -78952.857    6998.3374   -85951.195    5294.0113 
   97550    276.57537   -924.52658    271639.98   -78945.556    7005.0853   -85950.642    5294.0116 
   97600    278.62968   -912.97066    271848.61   -78928.207    7057.1167   -85985.324    5298.0024 
   97650     277.1373   -1213.7851     272384.1   -78905.243    7019.3177    -85924.56    5302.6713 
   97700    275.13526   -1040.8694    272580.93   -78905.692    6968.6102   -85874.302    5311.4206 
   97750    278.54971   -1093.1771    272459.54   -78897.061    7055.0912   -85952.152     5313.524 
   97800    271.68649   -1022.5922    271970.61   -78918.257      6881.26   -85799.517    5310.3004 
   97850    276.39947   -665.77501    271335.38   -78948.133      7000.63   -85948.763    5304.3465 
   97900    280.19999   -880.08402     271237.8    -78942.78    7096.8893   -86039.669    5306.8211 
   97950    280.13248   -969.25089    271554.49   -78926.069    7095.1794   -86021.249    5312.7253 
   98000    271.69829   -867.79845    272104.77   -78897.297    6881.5588   -85778.856    5322.6653 
   98050    276.37885   -934.80105    272410.59   -78912.205    7000.1077   -85912.312    5326.5716 
   98100    277.23611   -1344.0748    272335.13   -78915.146    7021.8203   -85936.966    5324.2259 
   98150    278.74585   -1137.3575    271636.14   -78950.581     7060.059    -86010.64    5316.4657 
   98200    281.79872   -938.90314    271186.71   -78927.386     7137.382   -86064.768    5310.9377 
   98250    277.04431   -819.18851    271467.68    -78872.33    7016.9626   -85889.292    5316.8537 
   98300    280.29914   -1148.9656    272229.04   -78862.028    7099.4007   -85961.429    5327.9357 
   98350    278.39228   -941.76157    272863.27   -78803.655    7051.1038   -85854.759    5341.0762 
   98400    275.15495   -1104.3693    272843.17   -78830.285    6969.1089   -85799.394    5342.4412 
   98450    278.30451    -806.8981    271869.01   -78873.041    7048.8807   -85921.921    5332.5276 
   98500    276.97801   -845.23102    270976.12   -78933.199    7015.2832   -85948.482    5323.7963 
   98550    277.21933   -458.29773    270637.64   -78938.329    7021.3954   -85959.725    5324.2758 
   98600    272.19104   -730.34153    271479.51   -78919.921     6894.039    -85813.96    5336.8289 
   98650    277.53427   -964.00833    272359.26   -78853.561    7029.3721   -85882.933    5357.2189 
   98700    276.24827   -997.94852    272680.39   -78863.067    6996.8003   -85859.868    5364.7724 
   98750    280.22486   -1176.4984    272505.87   -78828.237    7097.5192   -85925.757    5362.4233 
   98800    277.96609   -819.36234    271860.36   -78857.239    7040.3094   -85897.548    5354.3436 
   98850    275.65382   -677.43281    271509.66   -78882.621    6981.7441   -85864.365     5349.636 
   98900    281.96472   -946.68733     271797.7   -78881.185    7141.5863   -86022.771    5356.8042 
   98950    277.25264   -993.96742    272401.23   -78855.777    7022.2391   -85878.016    5371.8447 
   99000    278.81971    -1035.131    272784.43   -78856.969    7061.9297   -85918.899    5379.5554 
   99050    272.64189   -1134.4008    272677.86    -78906.57    6905.4582   -85812.029     5379.715 
   99100    276.31453   -1106.8836    271825.93    -78874.86    6998.4786   -85873.338    5371.1031 
   99150    274.00997   -703.45837    271025.31   -78945.294    6940.1089   -85885.403    5364.4629 
   99200    275.68935   -924.17384    271195.82   -79007.405    6982.6442    -85990.05    5370.2544 
   99250    272.24347   -903.44959    271902.87   -79025.265    6895.3672   -85920.633    5381.5858 
   99300    274.06434   -1232.6842    272488.45   -79036.863     6941.486   -85978.349    5395.7543 
   99350    270.54773   -1099.2618    272209.37   -79080.373    6852.4176   -85932.791    5394.5689 
   99400    275.84806   -914.36582    271655.05   -79123.423    6986.6639   -86110.087    5392.3054 
   99450    271.35248   -1021.1803    271302.85   -79115.898    6872.8002   -85988.699    5392.6319 
   99500    277.21331   -1158.1793    271035.45   -79124.767    7021.2428    -86146.01    5391.2293 
   99550    275.82424   -946.85683     270918.7   -79158.584    6986.0605   -86144.644    5391.9196 
   99600    270.38968   -991.81925    271201.25   -79167.798    6848.4143   -86016.212    5397.2578 
   99650    272.58997   -910.93005    271673.41   -79106.794    6904.1433   -86010.937    5406.4576 
   99700    266.59459   -952.66004    272067.32   -79078.832    6752.2925   -85831.124     5416.957 
   99750    274.69518   -1221.5384    272270.47   -79049.917    6957.4639   -86007.381    5423.6231 
   99800     273.4592   -877.89296    271949.18   -79076.602     6926.159   -86002.761    5421.9405 
   99850    275.43583   -978.37258    271660.27   -79121.426     6976.223   -86097.649    5422.2313 
   99900    273.58958   -1020.1365    271527.01   -79103.179    6929.4613    -86032.64     5419.447 
   99950    274.66819   -1174.6417    271393.13   -79087.388    6956.7803   -86044.168    5419.2006 
  100000    269.27291   -934.94609    271566.22   -79083.336    6820.1289   -85903.465    5418.3559 
Loop time of 340.257 on 6 procs for 100000 steps with 8498 atoms

Performance: 253.926 ns/day, 0.095 hours/ns, 293.896 timesteps/s
99.6% CPU use with 6 MPI tasks x no OpenMP threads

MPI task timing breakdown:
Section |  min time  |  avg time  |  max time  |%varavg| %total
---------------------------------------------------------------
Pair    | 163.42     | 221.44     | 284.81     | 326.7 | 65.08
Neigh   | 36.45      | 38.46      | 40.88      |  29.6 | 11.30
Comm    | 8.3573     | 74.147     | 134.23     | 586.0 | 21.79
Output  | 0.13448    | 0.13641    | 0.14398    |   0.9 |  0.04
Modify  | 4.9478     | 5.0096     | 5.0972     |   2.8 |  1.47
Other   |            | 1.065      |            |       |  0.31

Nlocal:        1416.33 ave        1463 max        1382 min
Histogram: 1 1 0 0 3 0 0 0 0 1
Nghost:        2177.17 ave        2213 max        2137 min
Histogram: 1 0 1 0 1 0 1 0 1 1
Neighs:        0.00000 ave           0 max           0 min
Histogram: 6 0 0 0 0 0 0 0 0 0
FullNghs:      44387.3 ave       45613 max       43087 min
Histogram: 2 0 0 0 0 1 0 1 1 1

Total # of neighbors = 266324
Ave neighs/atom = 31.339609
Neighbor list builds = 20475
Dangerous builds = 0

# Create data file for import to other simulations
#
write_data data.${NAME}
write_data data.coexist_276K_-1000atm_mW
System init for write_data ...

Total wall time: 0:05:40
