LAMMPS data file via write_data, version 29 Oct 2020, timestep = 100000

8518 atoms
1 atom types

0.40752762003880605 104.1969488367119 xlo xhi
-0.24599510700877403 50.52271468459257 ylo yhi
-0.24599510700877403 50.52271468459257 zlo zhi

Masses

1 18.015

Atoms # atomic

99 1 3.6772012385083452 0.9900936180018378 2.173035110922768 0 1 0
201 1 9.591498221268711 1.0004329101892364 2.434629033961783 0 1 0
93 1 11.170585757224954 50.37857247701637 0.6104486749378001 0 0 0
106 1 15.885227729840635 1.1449632968676642 1.9676219658545144 0 1 0
97 1 17.650400141463304 -0.16471089364709085 0.4264894986425538 0 1 0
835 1 22.15658197369784 0.7677596187833304 2.308273186378342 0 1 0
839 1 28.63657677896681 1.291260630174621 2.346104937596403 0 1 0
832 1 30.434074676778245 50.51312055186905 1.0976661494192919 0 0 0
100 1 2.1588097517002947 2.737956559034795 0.728369069958669 0 1 0
247 1 0.5920536782560288 4.1275892144484185 2.051067946860295 0 1 0
208 1 6.774662064345239 4.305381242234057 2.244881641562353 0 1 0
102 1 8.246626641346541 2.72403374449381 0.48745115600973 0 1 0
112 1 12.751205015544208 4.033513076408376 2.250084938285279 0 1 0
104 1 14.330494576591176 2.77926975586605 0.7422705327876731 0 1 0
834 1 20.695619717458467 2.802687608420491 0.7770916769187892 0 1 0
743 1 19.010530397764608 4.252638294932983 2.4678305146063253 0 1 0
838 1 27.18276608470007 3.0375317079578608 0.5343349134120606 0 1 0
843 1 25.449848249514915 4.232793924039095 2.09631191047081 0 1 0
840 1 33.45220443927975 2.901299511371642 0.9897804380823785 0 1 0
846 1 31.58746935088693 4.1309377113690795 2.5954135741954167 0 1 0
2 1 3.3334883633109897 7.471717389782081 2.1422472146123734 0 0 0
108 1 5.025261535807839 5.727242801919767 0.823684585422962 0 1 0
110 1 9.859243195834592 8.151740055573821 1.9223277850549598 0 0 0
111 1 11.304151842594017 5.758424547946677 0.7911017873313575 0 1 0
113 1 17.395337572897258 5.887987519120466 0.5074925226177117 0 1 0
8 1 15.877683866611008 7.455301737892055 2.1369749072034407 0 0 0
844 1 23.713375246741148 6.017313329661005 0.9567892945193772 0 1 0
842 1 22.303213196930653 8.38854560619972 2.3193617957242476 0 0 0
847 1 30.47627539176881 5.935646026305548 1.041608445357738 0 1 0
845 1 28.290890379280665 7.323644995741806 2.3026936493197274 0 0 0
848 1 34.832609313681814 7.049217509563179 2.201798203056954 0 0 0
1 1 1.7129956780407236 9.450381520351538 0.6824207172425768 0 0 0
801 1 23.87625212884601 37.95278496673867 -0.11421856651331133 0 0 0
4 1 6.605286435868104 11.287097876060683 2.3034483729449753 0 0 0
5 1 7.965007893037879 9.43635570188075 0.7675983436467946 0 0 0
7 1 12.970081772974266 11.515893521158317 2.2229705050596236 0 0 0
6 1 14.406164167050845 9.754682762423407 0.6573860312569366 0 0 0
745 1 20.837008208039748 10.047468832798737 0.5724266620193282 0 0 0
789 1 19.58002861343282 11.317866003217878 2.1361092020360664 0 0 0
748 1 26.876166484074528 9.486982821288537 0.5640778873076548 0 0 0
747 1 25.646157886971597 11.017164681863882 2.5317083360808463 0 0 0
749 1 33.36658454356549 9.339221795336671 0.6526977598426317 0 0 0
750 1 32.07366066971244 10.834414147541061 2.2274006218818054 0 0 0
9 1 3.36858418457891 14.076681318270179 2.298204083572262 0 0 0
10 1 4.758605128108654 12.450789608773023 0.9493869656006215 0 0 0
12 1 9.796875813597705 14.222769904517339 1.6774202787271173 0 0 0
11 1 11.367243692394354 12.53852530085173 0.20858634455886943 0 0 0
13 1 17.602452591389934 12.553841095944005 0.6697277668859057 0 0 0
14 1 16.24092843897392 14.196567493167798 2.2450311314960474 0 0 0
753 1 23.909959796422882 12.526107082198223 1.018709131082802 0 0 0
751 1 22.33933325629807 14.516689344349832 2.0813283886524374 0 0 0
754 1 30.35926970967382 12.4818097390754 0.5795537121867232 0 0 0
755 1 28.627470905407183 14.077535991791637 1.98640558204796 0 0 0
756 1 34.79077484454437 14.60417255464047 2.1906102887623535 0 0 0
16 1 1.6849954296961922 15.717637032716258 0.5350261499337187 0 0 0
5645 1 0.7638043427241836 46.52217766106288 4.50525105914679 0 0 4
18 1 6.2411972624998135 17.66110617321755 1.944137642665237 0 0 0
19 1 8.028675932253822 15.972821838085224 0.5082116586930769 0 0 0
20 1 14.21569746772289 15.696527552745358 0.500907095864051 0 0 0
21 1 12.618172525249019 17.573415498119502 2.0399971082496826 0 0 0
757 1 20.74948320939928 15.867843634851575 0.7742992231629067 0 0 0
1369 1 19.358381309456814 17.491554673306236 2.2089487278230178 0 0 0
761 1 27.204008827539955 15.78549839818109 0.4264287217440125 0 0 0
760 1 25.938027882235374 17.87227250934521 1.9500961487734139 0 0 0
762 1 33.351909194222294 16.299732714177612 0.7832446416229342 0 0 0
763 1 31.651948357350854 17.484658599844348 1.9806100881015838 0 0 0
22 1 3.3422662853073186 20.680081290871215 2.610899983084848 0 0 0
23 1 4.506766861614689 19.21514424039515 0.37820592779687967 0 0 0
24 1 9.746534844424113 20.735361800859653 2.073102523436251 0 0 0
25 1 10.890866262363003 18.940482197554072 0.4259563669168065 0 0 0
26 1 17.55716447427059 18.818845544488724 0.8991159535129198 0 0 0
27 1 16.131567796934426 20.658746284832905 2.2138426777057973 0 0 0
765 1 23.700321795538574 18.84202788793368 0.6765284488415637 0 0 0
764 1 22.22931106080155 20.480621216646306 2.6407737255614414 0 0 0
768 1 30.46485727363761 18.998291807208165 0.3381514208147145 0 0 0
767 1 28.898151831707658 20.801300007950783 2.057978317637575 0 0 0
770 1 34.946640546821904 21.112683127533383 2.1667001389143388 0 0 0
28 1 2.000283720433603 22.04772027538789 0.8116345335805404 0 0 0
386 1 0.6713934248550613 23.82096878409237 2.0893157009833554 0 0 0
29 1 6.769825176480014 23.840044021646428 2.30713289965563 0 0 0
30 1 8.229417400015187 22.264071515106664 0.40477055598757883 0 0 0
33 1 12.935722913870114 23.892004891817095 1.8661001136035913 0 0 0
32 1 14.649467995499714 22.138254240119984 0.6275558363343596 0 0 0
771 1 21.017696507997897 22.055443680030727 0.6381306031674564 0 0 0
746 1 19.515605181091434 24.056735015915457 2.259170663988087 0 0 0
774 1 27.1892488524858 22.191493889614875 0.2920389345320108 0 0 0
773 1 25.693365709093328 23.16746587792692 2.108765511379893 0 0 0
775 1 33.494739091446284 22.441659078577537 0.2505119088534492 0 0 0
776 1 31.99290153059628 23.950053800672123 2.096285499041968 0 0 0
35 1 3.7803925746437184 26.58651966481126 2.4645533460326927 0 0 0
36 1 5.143634567535122 25.171483865301287 0.6232072013643231 0 0 0
37 1 10.099488926785087 26.631286601030546 2.2310773964129433 0 0 0
38 1 11.485543622193386 25.469042781094085 0.07969217763952452 0 0 0
41 1 16.534662990673333 26.696513202952584 2.2529491704874296 0 0 0
40 1 18.137390873768847 25.072007236396423 0.5557449087460901 0 0 0
780 1 24.2599441830544 25.00376196578505 0.8014766250343455 0 0 0
778 1 22.599937488267297 26.73252888055788 2.0877605688724414 0 0 0
782 1 30.222395090470215 25.41912945309917 0.6363303146990575 0 0 0
781 1 28.82476704755632 26.948659232879958 2.182897316655564 0 0 0
783 1 34.594047989875776 26.97043710071181 1.9270881147917698 0 0 0
42 1 1.9931509091583708 28.35839754452048 0.7376801418037504 0 0 0
43 1 6.6872683481140625 30.096664822059783 1.9623687716324407 0 0 0
44 1 8.532057758453956 28.318240218267192 0.7736782092308625 0 0 0
46 1 12.944585172751834 29.620948024258198 2.2564593169967058 0 0 0
45 1 14.758617407393388 28.22289858266241 0.9420574115910403 0 0 0
784 1 20.85473493723186 28.478771718316978 0.5114123609537177 0 0 0
961 1 19.549564087238654 29.977327445200554 2.382828643190975 0 0 0
788 1 27.063318458048915 28.433964285214163 0.6933341436223696 0 0 0
786 1 25.21492379878914 29.763662483826295 2.1804413881818254 0 0 0
791 1 31.472703938408447 30.28070305264187 2.0624281190364417 0 0 0
790 1 33.26869904833394 28.726264150159356 0.0733435026532766 0 0 0
49 1 3.3402854134056725 33.28027993157113 2.295226092957529 0 0 0
51 1 5.281514065174214 31.96839768421271 0.6143654029024477 0 0 0
53 1 9.675144908033078 33.06100700476312 2.1767621931392864 0 0 0
52 1 11.484980659808057 31.343541224943884 0.6778216128696019 0 0 0
165 1 15.992258359669878 33.14241694209167 2.284245705579854 0 0 0
47 1 17.75218652783634 31.57317310861232 0.986421347107308 0 0 0
787 1 23.92482251421692 31.777522182989394 0.9824779653234568 0 0 0
793 1 22.40961890378922 33.077674190065665 2.859501143611239 0 0 0
795 1 30.00064865646115 31.979050680920416 0.33644396003176935 0 0 0
796 1 28.34728229784146 33.30420881648714 2.176875814496283 0 0 0
50 1 1.8174471593778292 34.86605985279954 0.4957803590776556 0 0 0
59 1 6.061981676116683 36.06935535923147 2.3183160193637042 0 0 0
54 1 7.8364262888714755 34.685909053738264 0.8038152135411913 0 0 0
55 1 14.18578592844045 34.59988938585077 0.8785576100981081 0 0 0
62 1 12.65284831676665 36.408236953147316 2.1769612476370876 0 0 0
794 1 20.381039070060083 34.42961741230703 0.7152043577401439 0 0 0
735 1 19.079339696757945 36.3860482493639 2.1135905941205757 0 0 0
797 1 26.86718227181533 35.11648030913248 0.45006818270158455 0 0 0
800 1 24.857941179144863 36.54481862197295 2.1859717427195076 0 0 0
798 1 33.42246314103448 34.89919166387243 0.8944138525336225 0 0 0
804 1 31.847673738362005 36.417743434467155 2.4095017809328567 0 0 0
66 1 3.185295128371557 39.36870139209038 2.163804035651449 0 0 0
58 1 4.923319012398038 38.121105317281824 0.9037480439625711 0 0 0
69 1 9.516384927659344 39.60676147517077 2.365726334412993 0 0 0
61 1 11.064814934609393 38.46497785007241 0.47613118696575585 0 0 0
63 1 17.4970874279745 37.93858847524242 0.6512142053582395 0 0 0
72 1 16.096100040934488 39.56353271687095 2.3985032814588894 0 0 0
807 1 22.702536646939656 39.55530008589634 2.0205672398448464 0 0 0
802 1 29.970604478060345 37.66287811447197 0.7954745775592122 0 0 0
809 1 28.6375367345222 39.323520242363124 2.1868986385231097 0 0 0
811 1 34.729967994245875 39.496187483702315 2.254439464438615 0 0 0
65 1 2.0583346625348224 40.858502372973575 0.5310153675987485 0 0 0
34 1 0.7611170758587722 42.68302114352903 2.5083335788921866 0 0 0
75 1 6.863552335414402 42.67547702370383 2.1908874514423355 0 0 0
68 1 8.268158513162845 41.158632523413736 0.21620552874672166 0 0 0
78 1 13.036078177482157 42.32920209145144 2.3552425283247618 0 0 0
70 1 14.456484627444 40.87202499447425 0.6844305796331693 0 0 0
806 1 20.673798431786736 41.005073934028125 0.7295824496758683 0 0 0
829 1 19.38196521742352 42.41042369700938 2.5866530748224 0 0 0
808 1 27.288600532430525 41.2277834718418 0.7879741904359208 0 0 0
813 1 25.609846686478235 42.89764353787778 2.178428305445533 0 0 0
817 1 31.526540432262436 42.500735967660304 2.296041383021796 0 0 0
810 1 32.85328775506619 40.78624946238156 0.8094488335013852 0 0 0
82 1 3.623178234161534 45.7071282951028 2.3923785484541247 0 0 0
81 1 2.0290097669048732 46.96258878054695 0.6712725469348669 0 0 0
74 1 5.008241922359854 44.114321094328474 0.6857941913531936 0 0 0
86 1 9.845654131626375 45.6558938199788 2.1540661624659188 0 0 0
76 1 11.291898539645674 44.11502641871029 0.7333486184441301 0 0 0
88 1 16.11278516287561 45.67017373300025 2.0789707470018453 0 0 0
79 1 17.78923144610426 44.00804253605054 0.9845703315002163 0 0 0
814 1 23.831742151209774 44.441363291863446 0.6171675189487547 0 0 0
821 1 22.627743376729594 46.15072911500484 2.3278398853764797 0 0 0
816 1 30.566491211257198 44.36520194768329 1.051357146259252 0 0 0
824 1 28.755856873350897 46.238265458945314 2.2831586304228466 0 0 0
827 1 34.81098819020751 45.637678343930915 2.430609975139364 0 0 0
94 1 0.8511162193967555 48.810754150787325 2.1432598602325363 0 0 0
91 1 5.160477084076671 50.068637211186015 0.9578738777459712 0 0 0
92 1 6.4850970340912975 48.727753060670906 2.5985282263828657 0 0 0
85 1 8.353888625444249 47.40250672187914 0.9108207288150578 0 0 0
95 1 12.837467618754388 48.72985570547002 1.9723806281845184 0 0 0
87 1 14.70766791333041 47.19716410898072 0.35188638525278015 0 0 0
820 1 20.83723000278593 47.506805989412754 0.7980851220652407 0 0 0
736 1 19.092359156892613 48.93260096871271 2.037445817043605 0 0 0
830 1 24.08038829471664 50.08094475266417 0.7129629771981927 0 0 0
823 1 27.262108047125054 47.62194585865176 0.6808733433977938 0 0 0
831 1 25.289623735643318 48.99599340853544 2.485728386846603 0 0 0
825 1 33.74657680691243 47.16417960642282 0.8968945467801281 0 0 0
833 1 32.14548662713611 48.89647525671908 2.1322539771183697 0 0 0
283 1 0.6936710833442121 0.7993451142004111 5.228181260064811 0 1 0
193 1 2.4697549167693875 50.21033583339138 3.641737449258134 0 0 0
199 1 6.48732024303905 1.4518873022859162 5.5832402995302886 0 1 0
194 1 7.865696579658819 50.478230861335696 4.087496701472445 0 0 0
203 1 13.063329809387529 1.1159277401590406 5.271553806821112 0 1 0
202 1 11.169067553108592 2.3787888875153858 3.8125321490820347 0 1 0
196 1 14.39807794068319 50.35141181130436 3.4024499799184 0 0 0
744 1 19.069632050309178 1.2682862012943685 5.518216307884363 0 1 0
920 1 25.05323996359101 1.655919285502555 5.63384179035347 0 1 0
916 1 26.9290815404443 0.13745237112643577 4.02071789287321 0 1 0
923 1 32.011208938594905 1.4320812270244752 5.416454547095185 0 1 0
918 1 33.329621086363005 -0.10484653352449166 3.7351469473076375 0 1 0
206 1 3.2437094709876253 4.3255411292074895 5.706067059301945 0 1 0
200 1 5.124200521497327 2.9482864076646313 3.7846060654659928 0 1 0
210 1 9.679870092342556 4.022216152798933 5.3097910120416945 0 1 0
204 1 17.64219465902213 2.620115518369789 3.997365681769721 0 1 0
213 1 15.907679240296044 4.389815396925597 5.424033356238327 0 1 0
212 1 14.542491928271122 5.486520138693404 3.5810642691781602 0 1 0
921 1 23.699120430809895 2.8041190186941893 3.6391524142136804 0 1 0
924 1 22.313206606707777 4.56119822283677 5.309006213739061 0 1 0
928 1 26.871432894788974 5.487113484096135 3.768736001621736 0 1 0
922 1 30.215229153670695 2.7936364367920956 4.144421464938654 0 1 0
927 1 28.206890999670474 4.004812552204691 5.707583351884034 0 1 0
929 1 33.0769413374684 5.557151618468222 4.189100706322173 0 1 0
207 1 1.9218693393559534 5.921276737414609 3.7977049936045297 0 1 0
7727 1 0.7107308606073749 23.06846045790064 15.281155439780086 1 2 0
117 1 6.385501856522004 7.444801726124807 5.198083962709885 0 0 0
209 1 8.47815024471117 5.859928600613093 3.7584281877132897 0 1 0
211 1 12.763555966481379 7.502565452930467 4.9145475943797 0 0 0
925 1 20.637937051386338 5.983461329138766 3.3860328004771136 0 1 0
1320 1 19.24016517447114 8.41126287429162 5.128680197185294 0 0 0
926 1 25.460360975988056 7.0893640643807085 5.260172484931103 0 0 0
853 1 31.676246936109354 7.287941782951501 5.4650630032491545 0 0 0
115 1 3.537411206960979 11.403863155110843 5.612256185932427 0 0 0
116 1 4.900680664218494 9.699490295435695 3.73464600176596 0 0 0
124 1 9.516223843154345 11.185618511921039 4.665887815924118 0 0 0
118 1 11.017226116481458 9.74097064702761 3.3499123342827484 0 0 0
119 1 17.62992743224066 9.885496762808733 3.5953797580558966 0 0 0
120 1 16.123942921706693 11.356166322556268 5.359624710809705 0 0 0
850 1 23.933005536626116 9.477781911853175 4.077633036969742 0 0 0
849 1 22.591167853545702 11.499185649375647 5.563370181309554 0 0 0
851 1 30.264656598578785 9.383117367454144 3.753034601723269 0 0 0
852 1 28.79463426195242 11.173509422867955 5.2329440604993245 0 0 0
854 1 34.90720679411704 11.10300342368348 5.472629331542175 0 0 0
122 1 1.8840229525642829 12.5511183784336 3.8657541415780123 0 0 0
123 1 6.475626144690613 14.452449533623293 5.089321615050978 0 0 0
125 1 8.147448265942572 13.326422875640143 3.2259519050573124 0 0 0
127 1 12.751555704918015 14.527715409100184 5.479339056068403 0 0 0
126 1 14.51625035074953 13.021223705146573 4.026066463835241 0 0 0
855 1 20.719969387425976 13.058650038829414 3.9985277974465037 0 0 0
828 1 19.266158147701578 14.488347506176883 5.394682157124048 0 0 0
857 1 26.91038845717996 12.86904884952092 3.9975103148977267 0 0 0
856 1 25.289946425114177 14.556001556623793 5.103312710399699 0 0 0
858 1 33.53588942983302 12.85348095439365 3.8196368008687926 0 0 0
859 1 31.68924939918722 14.144091297875113 5.111224782981526 0 0 0
129 1 3.3155017293978117 17.162501291708928 5.232265229631139 0 0 0
130 1 4.947992758525453 15.892409870505066 3.699097831318037 0 0 0
131 1 9.662636309092093 17.534741968089794 5.301057659033529 0 0 0
132 1 11.185599756856291 15.704200572965387 3.590726925971533 0 0 0
134 1 17.591036141275122 15.957013545470755 3.72230161140891 0 0 0
133 1 15.761491925388356 17.453460766700935 5.277169268753488 0 0 0
862 1 23.90630046673374 16.524613192458805 3.5969369418846964 0 0 0
861 1 22.285542985654555 17.460791153438084 5.311840193896007 0 0 0
864 1 30.175044868909872 15.745668618269669 3.438316812166317 0 0 0
863 1 28.862056913600686 17.262653997879724 5.523967020986357 0 0 0
865 1 34.856645885421145 17.41032464722705 5.26795002215592 0 0 0
135 1 1.7417363773916452 18.922407062537058 4.098310587200014 0 0 0
2827 1 28.33529280125379 48.813028133726036 24.23638220414372 0 0 0
136 1 6.9511313015452405 20.423682821745135 5.434845351767455 0 0 0
137 1 8.222168428589075 19.055921825259546 3.6100125171897925 0 0 0
139 1 12.983410277791872 20.88172105231382 5.298864935181715 0 0 0
138 1 14.396416492201542 19.35132689128852 3.5881981804310756 0 0 0
866 1 20.525707542821152 19.12959636559151 4.048578673081508 0 0 0
505 1 18.91424728215307 20.5706598643304 5.24063528316249 0 0 0
869 1 27.36583650050876 19.084349980458192 3.9497908096973617 0 0 0
868 1 25.421952691230082 20.881709877147358 5.5871644090337425 0 0 0
870 1 33.33988186782793 19.052772558619008 3.548244252724521 0 0 0
871 1 31.56662706146644 20.07537662179069 5.285540048522691 0 0 0
140 1 3.2272640922127236 23.75720097122577 5.263837382208327 0 0 0
141 1 5.0077413161738935 22.207755053741803 3.7369291617361666 0 0 0
142 1 10.053748237511574 23.531013642299904 5.54129935806827 0 0 0
143 1 11.524437592353367 22.32984980489961 3.3154739163226803 0 0 0
145 1 17.3766859426867 22.26217772322717 3.851758604602778 0 0 0
144 1 16.313517761752287 24.031008098341225 5.543711204881009 0 0 0
874 1 23.764974780499223 22.21012295862963 3.883246266079901 0 0 0
873 1 22.497492834038905 23.656661500364258 5.472405890698861 0 0 0
876 1 30.59549039789092 22.411867533892487 3.70479103838183 0 0 0
875 1 28.658794575688116 23.67190341271176 5.179641284227064 0 0 0
877 1 34.467655240824556 23.58598942988677 5.17604407830833 0 0 0
146 1 1.9322212183664351 25.12000009961699 3.718700649388013 0 0 0
1343 1 29.920111472721672 47.455051859677766 22.541127571002402 0 0 0
147 1 6.699786293486255 26.625692422596593 5.124453258929754 0 0 0
148 1 8.469271346025709 25.0894351951624 3.9046168404781056 0 0 0
150 1 13.018126656852182 26.81063622030637 5.4892336950795615 0 0 0
149 1 14.398914873645936 25.465346347633666 3.696035703538047 0 0 0
878 1 21.033059791274294 25.275725949790196 4.062741917808121 0 0 0
1334 1 19.3876430282485 26.831635160632647 5.480285827927019 0 0 0
880 1 27.152154924834583 25.082599487441538 3.5859161442377743 0 0 0
879 1 25.33053217295536 26.752105314853747 5.235851356784162 0 0 0
881 1 33.25289622429017 25.450138415636918 3.7216378514561894 0 0 0
882 1 31.692538444666383 27.044855299892404 5.438584138559904 0 0 0
153 1 3.5159880124375635 30.11747839272113 5.183751750318062 0 0 0
154 1 5.232249538327893 28.329552083424666 3.797220901452852 0 0 0
155 1 9.771882054612268 29.466843152532153 5.335915653019207 0 0 0
156 1 11.459447057294861 28.025898647919334 3.84878298881988 0 0 0
159 1 15.774081683094014 30.108682262442514 4.946932088064526 0 0 0
151 1 17.764917385209802 28.418770572197346 3.756378883147942 0 0 0
885 1 23.7435623336174 28.332197098543435 3.8173465054640356 0 0 0
883 1 22.156293592078676 29.81374096249746 5.42408517973561 0 0 0
886 1 30.236432843171745 28.68389857755418 3.9341734009031466 0 0 0
887 1 28.40703587385745 30.167342815965096 5.016191892807396 0 0 0
889 1 34.644066453017636 29.70318013257616 5.3425394805085995 0 0 0
160 1 1.8546404995597112 31.879051529447075 3.7078735331156545 0 0 0
161 1 6.741459036975493 32.77259791745399 5.23536579011061 0 0 0
157 1 7.9968288802781595 31.401557575765537 3.7255627426394424 0 0 0
164 1 12.325747906908747 32.99767248068442 5.005322734801087 0 0 0
158 1 14.239069586220063 31.706184975374452 3.478462419615779 0 0 0
884 1 20.86761860817728 31.496462516926847 4.278519933804049 0 0 0
233 1 18.722462608102695 33.02000608003145 4.993639114613629 0 0 0
891 1 26.79481923882155 31.337807008210216 3.51686317290991 0 0 0
890 1 25.567701553469377 33.062321999941446 5.1187815354239525 0 0 0
888 1 33.581357752959335 31.35102730297395 3.848297218929961 0 0 0
893 1 31.908093657390523 33.08696670213486 5.222985182331152 0 0 0
168 1 3.8003813756916904 36.36003834206785 5.553600584843876 0 0 0
162 1 5.082986521187558 34.514046020450216 4.026674307645239 0 0 0
170 1 9.742185105754906 36.313982850526024 5.4277039878878695 0 0 0
163 1 11.087564021090548 34.91343363079029 3.7685493473692526 0 0 0
166 1 17.565275039404188 34.84809359572661 3.754820708215469 0 0 0
173 1 15.590079475860868 36.52220448422466 5.274752733863636 0 0 0
896 1 23.657167454816257 34.720923439312955 4.116610682761857 0 0 0
895 1 22.082606504593006 36.701597562358764 5.056209539675916 0 0 0
892 1 30.19768998375347 35.10957075751388 3.9750575774980677 0 0 0
897 1 28.40907980009648 36.68115216349864 5.31443674738078 0 0 0
900 1 34.65721338601461 36.766354029536245 5.560551983256967 0 0 0
169 1 2.1300703257379556 38.00423857278122 3.9371643944244985 0 0 0
563 1 0.6220582910669671 39.65739701387596 5.5239579564356935 0 0 0
174 1 6.62783718025464 39.548479195714876 5.388256149649383 0 0 0
171 1 8.243182832078748 37.82985375387724 3.9006410709866177 0 0 0
177 1 12.814893602075625 39.44258800848371 5.393931706487872 0 0 0
172 1 14.284786020029994 38.13829231352231 3.7645439102754983 0 0 0
894 1 20.892064831752407 37.92044570171525 3.356401422072399 0 0 0
872 1 19.542275863198917 39.57674042361123 5.210996882299035 0 0 0
898 1 26.797440357592528 37.84772658750935 3.3758007833607424 0 0 0
901 1 25.704371093273597 39.445012166936905 5.25540326234561 0 0 0
904 1 31.434453888044366 39.86603470893303 5.3778552384735345 0 0 0
899 1 32.984347287141475 38.22448714189511 3.847639469328243 0 0 0
181 1 3.312147565053562 42.53820512375282 5.0836571467067335 0 0 0
175 1 4.983038836196597 41.02644904365362 3.6826951716950544 0 0 0
183 1 9.994847360781659 42.91695661593456 5.21558600514486 0 0 0
176 1 11.374193026359913 41.16690864503471 3.738595876658379 0 0 0
185 1 15.984273304354577 42.62217038453349 5.399638138944775 0 0 0
178 1 17.761010584309805 41.08860510204172 3.8899245210690614 0 0 0
902 1 23.84726881194688 41.41068293720009 3.838624042834094 0 0 0
906 1 22.22387893815777 43.160559498621005 5.394129992315564 0 0 0
903 1 29.91666585250066 41.17018380504491 3.9656222148915248 0 0 0
908 1 28.427660709906128 42.81895136235157 5.4263616244432615 0 0 0
180 1 2.0978150219826324 44.38162639290934 3.9009337098975188 0 0 0
188 1 6.568250509371828 45.69198928740398 5.498487335907573 0 0 0
182 1 7.996096965651264 44.28841385661011 3.9501908877605487 0 0 0
190 1 13.176874022797838 45.766442904429674 5.260151758543093 0 0 0
184 1 14.58905905949305 44.023400748591136 3.4941681590990266 0 0 0
905 1 20.75246931099806 44.40575243606644 3.4213677147612063 0 0 0
1172 1 19.279118932370565 45.75914294801503 5.246910973869018 0 0 0
907 1 27.093628932300266 44.358757494922195 3.5347869086505 0 0 0
911 1 25.538738832621718 45.98095754513943 5.404061528101681 0 0 0
909 1 33.50086929644489 43.82746632805242 3.7293200715106893 0 0 0
913 1 32.0052904786581 45.777266981521485 5.219884200049618 0 0 0
192 1 3.760301606897484 48.8488522284869 5.397318959015622 0 0 0
187 1 5.219202658640547 47.224168650313366 3.9993842367756827 0 0 0
195 1 9.631897685161114 49.046958087930335 5.390699419516927 0 0 0
189 1 11.317490901836097 47.38913603658965 3.794734698413097 0 0 0
191 1 17.63975186396471 47.37305422960007 3.482590446831626 0 0 0
197 1 16.083295055741885 49.18124891067235 4.8515055899896335 0 0 0
915 1 20.357064000108387 50.109144350109865 4.073634536796631 0 0 0
910 1 23.9616715849067 47.55329177208575 3.9592469049867764 0 0 0
914 1 22.186837762229302 48.99674270846641 5.580991673963271 0 0 0
917 1 29.0245474366433 49.465994303064555 5.173889161109801 0 0 0
912 1 30.566062160832857 47.59576933088268 3.5843538562535104 0 0 0
919 1 34.897379261557205 49.30188334936842 5.360590182930042 0 0 0
303 1 1.9942515559282223 2.365939934761445 7.026643331298812 0 1 0
302 1 3.897778747669606 1.4652316878685347 8.760600704133571 0 1 0
296 1 5.417877941750228 50.35453901869297 7.303132975928142 0 0 0
305 1 9.760621577098235 1.6577438536969755 8.740454733074232 0 1 0
298 1 11.404954096245158 50.42525755497882 6.919823049700498 0 0 0
308 1 15.583370469283597 0.9165833720231003 8.149024741467553 0 1 0
300 1 17.343369450034213 50.507923133729406 6.635163042742741 0 0 0
1012 1 22.32246801523051 1.4665696231102885 8.883669278868595 0 1 0
1007 1 23.71695495925773 -0.06379446179242018 7.103550947113596 0 1 0
1014 1 28.904442327388264 0.9545428473036235 8.533108110064056 0 1 0
1009 1 30.332938550510285 -0.14328997814377464 6.897546736482618 0 1 0
1018 1 34.839284200103194 1.4127725989508146 8.537933278141034 0 1 0
96 1 0.5462791125053229 4.1060893029342616 8.962939943724765 0 1 0
310 1 6.367777938589096 4.645353077739237 8.452443488761293 0 1 0
304 1 8.026017938687222 3.119211568357221 7.124426677553265 0 1 0
307 1 12.895361063426485 4.66284037260867 8.589846885412708 0 1 0
306 1 14.341900609222316 2.881709233424944 7.062604633998088 0 1 0
435 1 17.277040665237852 3.0039913128276186 9.32363444321953 0 1 0
1013 1 20.872766243770688 2.9905516092147524 6.995339981742447 0 1 0
803 1 19.25522619757766 4.757320561190085 8.220847262340666 0 1 0
1021 1 24.110493761852887 5.636479792729339 7.026535856948422 0 1 0
1015 1 27.146420514473625 2.5672647865738507 7.3874232237389625 0 1 0
1022 1 25.69425827919223 4.505998397508294 8.831111820621103 0 1 0
1017 1 31.544436381441983 4.394970605063256 8.73605286282344 0 1 0
1016 1 33.27689048122392 2.977566359656412 7.086809505460963 0 1 0
215 1 3.7341090258921072 8.320035903951116 8.386759918822822 0 0 0
311 1 4.93449764835958 5.980000358772282 6.559417769475355 0 1 0
219 1 9.653085949162437 7.387263468760755 8.159623321033443 0 0 0
312 1 11.307147579627674 5.9762707354504725 6.838879490912706 0 1 0
314 1 17.65601906887148 6.233341074814337 6.581179686919817 0 1 0
313 1 15.929412133138015 8.341291928669374 7.9870960807011535 0 0 0
1019 1 22.186242232165693 7.303024843092791 8.511074193445587 0 0 0
1023 1 29.890477736058916 5.84345313414287 7.0771508595276575 0 1 0
933 1 28.441307170775122 7.460321518434222 9.139052197976218 0 0 0
214 1 1.957016711138392 9.731752396852743 6.732840929092451 0 0 0
216 1 6.894082324960633 11.723887425655926 8.186301974428812 0 0 0
218 1 8.050624975137676 9.737337772650177 6.422801739874935 0 0 0
318 1 11.187217130962699 9.909848151101858 9.353997319011228 0 0 0
221 1 13.264726324013406 11.758076185931396 8.239026710546556 0 0 0
220 1 14.368635584152065 9.99692479360449 6.557064651248221 0 0 0
930 1 20.870160307923616 9.87448027439489 6.937176589030502 0 0 0
649 1 19.05200723192486 11.551635818025071 8.200142519896165 0 0 0
932 1 27.137289044167584 9.538071693351004 7.154328007240645 0 0 0
931 1 25.310372734825194 11.132963243134489 8.579424407238887 0 0 0
934 1 33.21039349012372 9.568022138448049 7.131241655289704 0 0 0
935 1 31.76211081152258 11.480983649914624 8.265622026925257 0 0 0
222 1 3.2821598231874423 14.464616604748814 8.15322634093902 0 0 0
223 1 5.151751178048335 12.952516986046959 6.87153605708107 0 0 0
224 1 9.72586296146924 14.577065755610098 8.215036558865926 0 0 0
225 1 11.098531461116732 12.777138699041707 6.698433813206046 0 0 0
227 1 16.469855304190236 14.913544957273807 8.583316516398984 0 0 0
226 1 17.71087698998204 13.17476602072268 6.796042215290401 0 0 0
937 1 24.05664346189133 13.293775644940618 7.184875709355552 0 0 0
936 1 22.581749120137143 14.772128992965357 8.611164310710137 0 0 0
938 1 29.88509962748382 13.044005441672626 6.6524498775319225 0 0 0
939 1 28.4371711312123 14.647213938998123 8.526745672814132 0 0 0
940 1 34.94441859966794 14.603437218902036 8.519888661144032 0 0 0
228 1 1.564710523799834 15.856611698130664 6.956211407471301 0 0 0
229 1 5.950852448471455 17.665155253303507 8.609332969817043 0 0 0
230 1 7.954294321490102 16.200497078497666 6.937494662295632 0 0 0
232 1 12.903033546001884 17.560820405113965 8.229177735908891 0 0 0
231 1 14.540117706836693 16.09673449477752 6.896839719615022 0 0 0
941 1 20.850532255523813 16.181863045059917 6.849178197050499 0 0 0
655 1 19.046665786284155 17.658918115820136 8.425222753823567 0 0 0
943 1 26.687945942929474 16.18697122784918 7.105241867826429 0 0 0
942 1 25.175489005338516 17.823220448234174 8.877890405549524 0 0 0
945 1 33.330700180021104 15.854916256998383 6.816256605863579 0 0 0
946 1 31.659369633903836 17.546588302612854 8.380077349445541 0 0 0
234 1 3.380213526637682 20.599626791054238 8.261937545388045 0 0 0
235 1 4.796958285935347 19.121685541745723 6.586098792576596 0 0 0
237 1 9.67587703385924 20.513175177487813 8.13306480568716 0 0 0
236 1 11.297086427557915 18.930949420436658 6.6799234616759 0 0 0
239 1 17.537801275987135 18.83363033282787 6.735023938471884 0 0 0
238 1 16.012084184989906 20.734838811693365 8.319132145439482 0 0 0
949 1 23.7192513992552 19.332447200100546 6.993846155445023 0 0 0
947 1 22.063784159731288 20.893770721311846 8.525010191224418 0 0 0
950 1 29.968465778810693 19.062218015608096 7.144698387938097 0 0 0
951 1 28.569866676238544 20.606394057760102 8.601488009721967 0 0 0
953 1 34.71063306675777 20.76461868632905 8.211478041411484 0 0 0
241 1 1.6384123547713552 22.06054939899854 6.924585652309889 0 0 0
242 1 6.398297998537659 23.646653641846573 8.367137680634816 0 0 0
243 1 8.159490867699951 22.29640868466147 6.981309779741227 0 0 0
245 1 12.815487729719496 23.99841116889509 8.834062180343853 0 0 0
244 1 14.569060087165743 22.4544975662144 6.823568417115773 0 0 0