LAMMPS data file via write_data, version 29 Oct 2020, timestep = 200000

4608 atoms
1 atom types

-0.2459164219599792 53.64591642196223 xlo xhi
0.1926401342311337 50.71447986576554 ylo yhi
0.1926401342311337 50.71447986576554 zlo zhi

Masses

1 18.015

Atoms # atomic

2289 1 7.500532717491707 2.7240467637686283 2.0256136575075137 0 0 1
135 1 1.8616757900733933 49.04639071862828 15.560394049907137 0 0 0
1043 1 17.368923714257125 23.02844970297457 0.29497936506804523 0 0 1
3921 1 1.512304654064269 6.986703997356042 15.70941451956998 2 -1 -1
1766 1 -0.05995349453134957 37.65110217965255 18.502908269343063 0 -1 -1
870 1 2.355778129415532 21.601468621307184 0.22652622422242782 -1 -1 1
3766 1 10.070538744849143 5.49276175407831 4.187075467487317 0 1 -1
581 1 8.369508241445702 3.3377328319630837 4.540165085546973 0 2 1
1437 1 10.801627953126266 1.546099443317566 5.19005864820539 0 0 0
2731 1 17.46876425089036 18.313635086939563 1.1941781994033034 0 0 0
1229 1 15.166251528464484 6.134022314598342 2.816159084509924 0 0 1
4348 1 0.26877391098188474 3.2771058306713625 5.435952466024382 1 0 1
3337 1 3.606422098010405 8.047690223994316 1.9819523404840818 2 -1 0
4086 1 8.084399713861458 6.9620626933900684 2.991747139632976 1 1 1
237 1 12.505746072250771 5.155659738284976 3.0428772799401607 0 0 0
3696 1 6.247298678250478 21.53635260504117 1.4439448628747258 0 -1 0
3785 1 17.589752193107284 4.831692276004942 3.2168708346767976 0 0 0
4246 1 3.9714476970613877 11.067673269951218 2.5458780474912417 0 0 1
1022 1 8.773381905503225 9.473890494726946 4.093748096832294 0 1 0
2369 1 13.171203822024328 9.308376762605334 1.1089350878194706 0 -1 1
4403 1 17.093274417620908 29.86087867325863 0.5649503112561808 1 -1 1
4073 1 3.939621465653172 25.22218635874661 1.407515006456244 2 0 1
4376 1 6.657557012733582 11.169376807197207 2.078033291041704 1 0 1
4152 1 7.00518095626702 13.750267570920009 1.2763003404365953 -1 0 0
3816 1 1.7912628116933673 39.77398228975306 9.27247450090437 1 0 1
4594 1 10.333117669241364 11.532645988858093 3.1574844650504184 1 0 1
2669 1 14.049003091173367 6.764690217544737 25.274978542169737 0 0 1
2043 1 4.115210959086654 16.181265477458883 2.185527216382093 1 0 -1
3578 1 3.2918750514604516 39.44062656310373 3.7425692105879937 1 0 0
4045 1 0.7639477338486533 45.34114525029045 12.899915475777323 0 -1 0
2325 1 8.62010875831065 19.391558044884246 2.0108629433145384 1 -1 1
1212 1 1.3295435484405358 32.48489299760602 16.041264305462448 0 0 0
4472 1 6.245283027351994 30.811881685171304 24.942003291971893 0 0 1
4186 1 0.6924156286421663 47.1953965234334 18.741028213590962 1 -1 0
3797 1 5.331845977075378 19.739519338785733 3.7838089431441775 -1 1 0
2757 1 13.710463677385414 19.590069491875905 1.3737189225096316 0 -1 1
1841 1 12.81740925485463 22.74199533518782 4.630680210780345 0 0 0
3764 1 15.206954829624435 20.202121747197697 3.6998601726403573 -1 0 1
1503 1 1.4368010960275983 20.531210979094134 2.586320196941713 0 1 2
3695 1 4.339642217200864 15.385787817048701 24.90754210239119 1 1 -1
4515 1 4.53503692412649 22.842812106112742 3.118928218906013 1 0 1
4587 1 8.415905942427605 25.92855287285814 2.639059151953369 1 0 1
83 1 10.976703171081423 23.001262478322204 0.5940559163822781 0 -1 1
3017 1 13.472660181862265 26.145219093473287 2.9054591569632 0 1 1
849 1 13.701338554695683 32.79954812541398 24.347550401752265 0 -1 0
3171 1 1.3291337905429899 47.38849300895954 9.076540242558405 0 -1 0
2018 1 8.406385706467393 24.752773875902893 5.677509222963372 0 -1 0
2470 1 10.771733124211906 26.65719363902223 1.9341801401336398 0 0 1
1194 1 10.529572303793595 29.22862562573182 2.9847872986088255 0 0 1
2453 1 16.056209150313162 26.959739355136293 2.6470874296563625 -1 1 2
4112 1 0.07642863098780905 14.037189209109595 14.612615717211836 1 1 1
2568 1 6.228829051538239 27.03295560917276 1.9872249115909906 0 -1 1
2879 1 8.059500464101536 29.025638472827563 3.981795078953289 0 -1 0
1646 1 11.311960862896754 26.368936209161586 6.2263740103065714 0 -1 0
3821 1 13.943210946161285 28.83748056712948 4.294669690558748 1 -1 0
706 1 4.020535038283547 29.588857594907807 2.260016738034397 -1 -1 -1
1264 1 5.383279128736936 33.65168758993922 4.214102481643962 0 0 1
2646 1 1.4669832792148318 28.640748821398738 1.822754179787488 0 0 0
294 1 13.19162272681348 30.88970227763211 2.3214640827668345 0 -1 1
2053 1 2.7579461044091804 36.78892482160836 1.4070292362602994 0 0 0
3792 1 3.131211984690549 35.09685890450378 3.3310889419716316 1 0 1
3863 1 0.05892416190791605 7.1679066163844665 24.744441158948206 1 0 0
4226 1 7.526428640762466 38.3623090882952 1.307300009327467 1 0 0
3218 1 12.465288768933016 36.94553083868874 4.031653835398885 0 0 0
3061 1 1.3024562553849564 45.05899901874354 24.943467824089144 1 -1 -1
2629 1 16.04015331128003 34.16065621730915 2.371242574374587 1 0 0
400 1 16.072399784521178 8.071511692736735 1.1340989704190438 -1 1 1
2420 1 0.4098605764783668 42.879361127265796 7.324855571215886 1 0 0
4455 1 16.747387813559317 45.58505420444299 4.187926710557445 0 0 1
4090 1 4.503566948135992 17.97215575810817 23.893796789446533 1 0 0
2994 1 1.0032956596787708 42.174477223782475 21.073433701904015 -1 -1 0
341 1 3.002328120964582 38.65789712352155 14.141082728358658 0 0 0
2455 1 8.135481706367333 19.97429123132505 24.60824685310613 0 0 0
815 1 0.9063626578440744 24.970545509978514 21.176404505217132 0 1 0
3271 1 4.246607875861141 14.40097455220402 0.22948116492543888 1 0 0
431 1 16.114129548237784 8.916222188043394 8.793075527496947 0 1 1
2639 1 15.845413338656677 41.713312345519384 2.3898325074440114 0 0 0
3872 1 2.860874162547134 41.452787749565346 17.26090369725429 1 1 0
825 1 10.59694875266313 41.4141480027634 1.0074535286722823 0 1 1
3453 1 2.242878776242055 0.9318755365139373 11.570255648434122 1 0 1
2104 1 4.131725272696654 43.27224350590391 18.990870578704026 0 1 0
2074 1 7.092659267823499 33.376207076649564 2.0176616564632814 0 -1 1
3559 1 0.6039765126411363 49.297623634398526 1.2660128193653728 1 -1 0
3610 1 8.326061729801376 44.799380095444704 1.5822943747989187 0 0 0
1553 1 2.782660814859941 37.605370631483076 16.749958875562694 0 0 0
1358 1 8.685897444544585 49.50111781708438 2.9261200037045323 -1 -1 1
3448 1 15.764246690907417 29.004216166480152 25.052019608881785 2 0 0
2084 1 1.5107563920388953 4.886340084648626 3.2546201404782478 0 -1 -1
3339 1 4.35613244476844 1.8837502437802252 4.34059453851526 0 0 -1
3093 1 6.357729991383728 0.5637463338196788 2.3281740657545233 0 -1 1
1557 1 9.742612603855395 49.7541889931291 6.316567646638963 1 0 -1
2724 1 7.070658712942452 49.535237907305564 6.883979430021784 2 -1 1
1042 1 11.303846994363475 49.97828504471669 2.4066513819155517 1 1 0
1530 1 16.873255356444123 0.6917361417479124 0.7158807418015427 0 0 1
1803 1 5.745251882820793 5.923360655483376 2.122522877100123 0 2 0
4344 1 6.332294739518705 4.488030831306567 6.387086141235093 1 1 1
847 1 0.13119490893554092 33.5087708425036 1.900860856160213 1 0 0
2245 1 12.601566458510018 1.9380664741844251 2.859953865288761 1 1 0
2247 1 3.704067310769087 0.7356178844561418 16.202802589732535 1 1 0
1334 1 2.7676946807523612 7.954149854410126 5.947126331559071 1 1 -1
1730 1 9.803578119682388 5.911726667543912 7.020588987222581 1 1 0
508 1 13.048710298283071 8.872793980251345 5.645868416561428 0 0 1
940 1 15.311557710739379 8.246053914970723 4.530291313755171 0 1 0
1612 1 3.127395488987227 12.01193061395331 4.955195484169287 0 0 0
4251 1 7.585814264654043 12.94987064671699 6.39089571666995 1 0 0
2803 1 11.771789976054281 8.246337931539765 3.3007012529215314 1 1 0
2691 1 9.834252672523267 9.723669774554361 6.710670392440417 0 0 1
2692 1 14.038205208756807 12.52928369123892 2.5941768703575363 1 1 1
2812 1 12.808309869437549 10.603888743701043 8.178141510367741 0 0 0
593 1 3.690017120157144 14.563185847922831 4.96515022503935 0 0 1
2353 1 0.5838375909065195 14.182440738997544 17.029080380694797 0 1 0
1986 1 6.562262757843209 14.688742221759627 4.016223847758345 1 0 0
2725 1 9.615583787887699 16.434979106761148 3.478073232780305 0 1 2
2940 1 9.706950498589215 13.832489823213484 4.62659564206673 1 1 2
1699 1 17.151113766331832 16.23567781959791 2.98298331388054 0 0 0
4538 1 4.144311633552918 20.356206309598544 7.470433157488509 1 0 0
663 1 7.931551394777365 16.881621496334834 1.011420687611539 0 0 0
1562 1 11.26437350025332 13.558352611854245 8.737521507631392 0 0 1
4019 1 12.247502613061496 17.12099703443 2.4090893151037136 0 0 1
964 1 15.8774898965728 17.158927326649277 24.279813898420464 0 0 -1
3881 1 2.8091102906602616 18.597213952431712 4.626120644147903 2 0 0
435 1 6.516975099244507 19.65726230251327 9.325290989805055 1 1 0
2838 1 9.539209381865025 20.247691392716423 4.6040771465011865 0 1 0
3219 1 12.194880242248146 17.00854532906534 6.033508266078888 1 1 0
3365 1 5.7536991515584095 24.95542189221405 4.733417918080121 1 1 1
143 1 10.161843804165061 23.116667440144024 3.7861522674913655 0 -2 -1
1719 1 4.198582995567446 24.25789859083016 7.65413840915014 1 0 1
516 1 14.827382859258563 23.06678290837762 3.0317406960455777 -1 0 0
1000 1 11.979338307239823 22.394807583232133 8.191715481051187 0 0 1
1974 1 16.80956537013168 24.569845234285424 4.926359760461322 0 0 0
2624 1 0.9671755172107321 21.338278560675707 5.394274747437631 0 0 1
4269 1 12.590581226099996 1.4299120344262553 24.58671643063617 1 0 0
44 1 3.035348986649692 26.73712099312156 3.621671731226134 0 0 1
191 1 4.480429527331823 27.948501971049506 5.701728070334184 0 1 0
4439 1 7.194918733082783 23.174843617623015 7.559291565269747 3 0 0
3358 1 13.493141761495515 24.514666128895772 6.637185471820654 -1 0 0
245 1 13.673412897009241 24.132289024708093 23.213747609533637 0 0 1
3584 1 7.674595474992038 31.504999476355966 5.546610140236295 0 0 0
1536 1 7.246420226368683 28.0729834449344 8.59867503830553 1 1 0
4110 1 9.452530923465282 32.958374109819516 3.592548720888521 0 0 0
207 1 16.435804464191627 29.185159181372217 5.157810406020218 -1 0 0
3419 1 11.507958257486434 28.840819826494354 5.498237197899755 1 0 1
4085 1 16.06082513637013 29.802968602302077 7.93142862345224 0 0 1
4468 1 14.847081073922709 36.38828704304609 24.505007589443334 0 -1 1
1045 1 15.771781407321622 47.00996587677182 25.016640954652246 1 0 0
1934 1 2.305895115591784 31.8784743805659 6.051971139618119 1 0 0
658 1 11.820747186651902 33.596489896352516 4.944083262249684 -1 0 0
3873 1 13.34189120382507 33.792827554209644 2.495715524652254 1 -1 2
992 1 15.27871003764714 36.8136300535207 4.833977791739299 0 -1 0
2449 1 4.565241208504961 45.19784854052786 23.570225560019935 0 -2 0
4574 1 0.9948632587165731 38.35251738170573 2.3761443939686644 1 -1 1
4514 1 4.794036009537761 30.539644555917032 4.732961182142075 2 -2 0
2572 1 12.86080937109297 38.68120695888979 6.440164274113177 1 0 1
4353 1 14.300748911002513 1.571381753095847 0.5506506787094109 1 1 1
4072 1 3.186769844518772 0.5421265682464008 1.344212791756482 0 1 2
873 1 7.212004700655068 38.37761209280677 4.27373629460798 1 1 0
4293 1 9.15102662565476 38.90752570591022 6.353244893382693 1 1 1
275 1 10.390482272306024 38.66717339708279 3.6091519700441346 0 0 -1
2622 1 0.8644155810146381 29.626789215083956 24.656299579821038 0 0 -1
4326 1 10.774443077828897 41.237375946920686 3.648974370841038 1 -2 1
3632 1 0.05777500550507064 8.284316477853997 11.990079249944088 1 0 -1
3314 1 16.516096734185066 15.870006534818494 7.688049533700512 1 0 -1
2223 1 0.9715692252813164 40.55339256701248 1.3502303332044439 0 -1 0
3879 1 3.9575986033417605 46.834739460056696 2.5924835911523414 1 1 1
3702 1 8.244106565627742 42.705646413263224 3.632860312469589 2 0 0
3019 1 0.22011808139058087 49.82848618810283 8.689240916884815 1 -1 1
1522 1 -0.07170080417787875 42.30114029653212 3.736402169299496 0 0 1
323 1 17.482898117758737 44.39771860363767 17.0801711573246 1 -1 -1
3731 1 2.3092399679971125 42.28180140039392 5.598486728848631 0 -1 2
1931 1 10.706935345296127 44.2716939433242 0.5752790939005927 -1 -1 0
519 1 5.232816555603153 43.34848982133932 4.459490392133956 0 0 1
1513 1 1.2679662008837866 5.794403064122771 11.471491848285474 0 1 0
1552 1 12.514136495690074 45.60623513379583 2.4791470659893315 0 0 -1
4409 1 2.1016800434030616 49.501237296824385 18.570606229222534 0 -1 0
2151 1 4.975941000597509 49.12239033784451 4.364830950493026 1 0 0
2817 1 8.459088538598568 46.6742670017829 3.5280275127710983 0 0 -1
4567 1 15.943597685717993 48.52263826550633 0.8997959194908768 -1 -1 2
2942 1 1.8913570430304292 0.8275638811120413 4.568893397084912 1 1 1
29 1 5.996725252061188 1.6129496667252092 6.720879386674655 0 1 0
1032 1 11.56875213479241 47.38185554712678 6.27220623681033 -1 0 0
4109 1 10.131668837985783 0.43057977861984925 8.661142726882726 1 1 1
3099 1 12.178657535668235 3.328318136441184 7.720119696859751 1 0 0
1698 1 14.262410341257828 4.644718730099923 6.376373027178368 1 0 1
1937 1 6.857819957791606 46.83712186371821 23.8522716171131 0 0 -1
43 1 1.611410506400701 7.546158444679165 3.7297467117924628 0 0 1
1382 1 9.364629302619779 3.1577956766084636 7.6826835820868125 0 0 1
4288 1 8.505598474915695 9.751376107712737 10.036447243453456 1 1 2
315 1 9.896474456932548 3.450715604317736 12.574038319953157 0 0 0
4250 1 16.64516928142224 4.022073109369321 7.697007845120595 1 0 1
4435 1 16.364169201923225 7.006811636571421 6.761740012976902 -1 -1 0
1528 1 2.369715205095246 6.199444249978426 8.7085380329235 0 2 0
2165 1 6.216713246926772 6.523211446381766 9.667222725374312 1 1 0
2062 1 7.81477816226422 7.803904598887938 7.786094661882407 0 2 -1
2030 1 12.668074110506799 6.764426608681259 7.339328899613923 0 0 -2
4417 1 16.480044978527854 12.472770012753235 3.358073436104396 0 0 0
2103 1 14.927990476506581 7.425549807703649 10.888781242469557 1 0 0
4310 1 0.7871057623333328 15.896560893176645 5.158502932049568 1 1 0
429 1 1.8474651088347325 22.84640146516206 24.38469233650389 1 1 0
822 1 3.8264913770755546 10.326786320688903 7.315903405294714 -1 0 1
912 1 5.849989862218784 7.4912846012136844 5.56908878110742 0 1 0
4304 1 6.396411751516433 10.732512387008823 5.270700074193147 1 0 1
1180 1 4.347596843171461 12.149452037552635 9.814974821239863 0 1 1
310 1 10.694439569167875 13.861708461129238 13.97578434833761 2 0 0
3070 1 11.81377918618756 11.960209658917288 11.513197478238384 1 0 1
1270 1 0.34765216030034773 42.7801154659591 13.543638463786499 0 -1 0
4528 1 5.150051974315582 13.634023471720242 7.613533773007744 0 1 0
1992 1 4.424451507740121 16.283045190504076 7.842759082991077 0 1 1
3560 1 8.382624738154293 17.897853970480227 5.622913099427769 1 -1 0
712 1 14.079195424507843 14.13118520407597 10.816650565001948 -1 2 0
2254 1 12.65576283454149 11.715427999429293 4.896431751420938 1 0 0
717 1 15.693309978002526 13.176242220247667 14.104218072258444 -1 2 0
874 1 13.522802921121448 24.268224887007797 0.6829860229957212 -1 1 2
3368 1 5.762214309270238 17.132611904812276 5.281106720271529 1 -1 1
414 1 7.038800495911928 16.962845965794532 8.308553071022517 0 0 0
4242 1 10.151874522093921 17.47109992399914 7.871443786404191 1 0 1
4286 1 13.95442569255054 17.63550776459115 10.691894307961876 0 0 1
3959 1 1.2336821146055115 24.968090417352947 8.151541966284256 0 0 0
918 1 10.04885652363917 22.806450565589834 24.3058177074552 0 0 -1
1608 1 3.5544073048524147 22.15456072088226 5.439455693642667 1 -1 1
4522 1 7.042024894678433 20.565945047708805 6.550787526395134 2 1 1
1183 1 8.45467520839053 21.603452441898856 10.114370319116905 1 1 1
719 1 12.462852925983228 20.386776930738602 5.846523686681896 0 1 1
4100 1 0.2584787390410761 42.502902201166194 17.778284573717176 1 0 1
4382 1 15.71116706915098 19.878210253103987 10.343133055887636 0 -2 1
1330 1 16.152279035908382 38.401470498714154 22.431302664852797 0 1 1
3483 1 1.5302114347398583 24.856518520007818 11.128336544442577 1 0 0
2111 1 2.4384770117917505 12.364707610513726 0.5084999917925593 0 0 1
3548 1 3.023942372034123 21.878766731008266 9.306940056467996 0 0 0
1542 1 5.375542783070074 26.333872402315976 9.484155425061166 1 1 0
2208 1 5.503563840178406 18.232536247845253 1.1584375846006196 0 1 -1
3426 1 2.662068706724605 29.092907652598633 7.247728050991032 1 0 0
2832 1 9.7581709103429 24.054100231599808 8.635128234856849 1 0 1
3095 1 9.725659022826639 24.64950232340764 12.024494118467082 1 0 1
2451 1 17.12982932888362 41.13945471936922 21.68475791705951 -1 -1 0
1073 1 8.15932889256617 47.778842394992324 0.2658373069540572 0 -1 0
41 1 0.059019416551702786 30.66951123575386 5.575628768042963 1 0 0
1595 1 6.824053790176264 30.912555155524736 8.425376705298167 0 -1 0
240 1 7.417436743616726 27.38049387828707 5.769869783017788 -1 0 0
1288 1 8.04891720021564 30.750880464259108 10.811645496315904 1 -1 1
2423 1 11.704545776698176 28.65010750780735 8.828342459666963 0 1 0
3735 1 15.606012378027053 25.547657396812163 8.267442724802295 0 -2 0
4356 1 0.154970914545848 11.589744012070259 4.808125067956347 1 0 1
1733 1 16.829607144648545 1.243243849000595 11.268434915914854 0 1 0
3459 1 10.043189218270884 6.625622397076236 0.8035568496784021 1 2 1
1596 1 -0.03342451477539357 35.74390358702318 24.48828034731816 0 -1 -2
557 1 9.106624729705505 35.83810331621267 4.921164221590491 0 1 0
2359 1 12.615313849596482 31.400652486152453 6.330467086468037 0 0 0
324 1 15.59517067624212 32.476436514985224 7.635014514810761 0 2 0
2543 1 14.482645384813667 28.13899826244345 9.3619365003379 0 1 0
4044 1 5.25393063262086 42.104088145927584 1.1774872921611175 1 0 1
4296 1 3.537720792134274 36.820245452429724 10.156510352696207 1 0 1
284 1 6.286880383953989 33.67463555639897 8.213795791890147 0 -1 0
271 1 6.45187073499819 35.09785529256317 6.048855770185933 -1 0 1
781 1 12.422634075230457 35.74417857345268 7.053329404940644 -1 0 0
4093 1 14.033371317603319 39.33807831084422 9.420692894012412 -1 0 1
103 1 13.064138527079463 33.54884852062609 8.52901109582538 -1 0 -1
827 1 2.738252434950098 38.31728406703399 6.9594359077964185 0 0 0
4102 1 4.592159258720243 37.11169209725362 4.5182465871691395 1 -1 1
3000 1 9.644067952001048 35.141705843053536 7.580505871173868 1 -1 0
57 1 11.270105337239354 41.54384697554295 6.88167944738881 1 -2 -1
2008 1 14.784484373700145 40.005675087284146 5.215206635460331 -1 0 0
3815 1 5.7639725480285655 40.682983824951236 3.4814239799311952 0 -1 0
2044 1 3.3206939443870946 44.84710050817876 11.366428358439665 0 -1 0
4554 1 5.925351222284567 43.73848648630068 7.170006393972177 1 0 0
1496 1 8.068346271200758 41.64160528663247 6.5100402989928945 -1 -1 2
2058 1 13.13258730326313 42.309127234909205 4.7706585143429265 0 -1 -1
1487 1 14.359578111591926 15.440253612389922 2.6247894139356642 0 1 1
1008 1 2.5701756818075534 45.26865362617948 4.816599032880881 -1 0 1
3193 1 2.976207992359188 46.55555241264654 7.054009921277172 1 0 0
2867 1 8.200240591483581 44.30232490869618 11.506041402780626 0 -1 1
3745 1 10.464329882068363 45.437471442744574 4.644853363554928 1 0 -2
3985 1 6.246567780064103 46.19526933662713 4.903271033628705 0 -1 0
2782 1 14.763724554482 44.10028474359027 2.899327952261192 0 0 0
32 1 14.463235149317685 44.2465049757466 6.783962802505995 -1 -2 0
4338 1 0.2425606554130158 18.042707069828694 15.536428148200317 0 0 1
1828 1 3.072039332908357 49.50870160290471 6.293914032793126 1 0 -1
2775 1 5.836835555964713 47.1253034140442 7.660075663668253 0 -1 0
2824 1 13.219715291299718 0.28305389444130674 6.2028679603134025 1 -1 1
3200 1 13.330188040359992 48.073850986999716 2.038411556832099 0 0 -1
4314 1 13.459326771984262 48.224137569383736 4.840019566197982 0 -2 1
3654 1 16.70611159629335 49.211192408474396 4.746162339110305 1 0 0
1764 1 4.17155167364396 0.3093935042642854 8.377050673336646 0 -1 1
910 1 9.300966548542188 48.30675577386974 9.583088826315214 0 -1 0
938 1 7.5339079022472335 0.4002978590488617 9.965277007020832 0 2 0
481 1 11.013648627243148 49.186141446117915 13.520882725636547 -1 -1 1
4418 1 14.119306210118262 1.8085866710749272 12.649149490827815 1 0 1
3606 1 15.777243622634181 1.7614860927373197 8.717718461917546 0 0 0
1298 1 2.9978092925084554 2.494241724487383 13.81489454962149 1 0 1
4374 1 6.157595677131286 2.7957961410758565 10.325299110009858 1 0 0
3786 1 4.388315687808903 4.01014361764784 8.662144029783123 0 1 0
3623 1 8.542877201286613 4.06605207603775 10.341280278328366 1 0 1
1122 1 7.006709492886344 7.551610049987965 17.3582039043923 0 1 0
1306 1 8.212329957838845 7.336540579154515 11.506252575403737 0 0 1
448 1 11.048619852362643 6.019218646358643 12.29195384169929 -1 0 0
1047 1 12.514359462211358 7.2526736201561 10.035457210463148 0 0 -1
3210 1 4.03867026733202 6.241703676330485 12.48299335140098 1 -1 0
2380 1 1.948978570634579 9.310934487211815 9.139851836556259 1 1 0
3964 1 4.243332623016699 8.419510665536658 10.560355204937421 1 1 1
2370 1 6.774020751371531 11.411006692641786 11.443684602632285 0 1 -1
2107 1 11.088219165219481 9.341240413444014 10.270109239717218 0 0 0
1005 1 3.8404433994770484 13.425547763148504 12.345458222825165 1 0 1
768 1 4.234975243207255 11.94831565549594 14.568426900013923 1 -1 0
2368 1 10.301016552072058 9.373568690774214 13.242561216608578 0 0 1
3050 1 13.985913177863358 8.069680969691017 13.303149640510899 1 0 0
1421 1 1.008011178530836 3.6845732474600803 8.091444210553085 1 1 0
974 1 14.16542257815242 10.907761531852362 12.833745876248484 -1 -1 0
4547 1 17.344701487382643 32.46215658655115 23.400844680375673 1 -1 2
1280 1 0.42742975433067154 15.194347839240292 10.68994395310881 -1 0 1
3004 1 3.487581940272071 16.40100222496463 10.597029592062917 1 1 1
3936 1 6.25519683723632 15.479304174582472 12.313488261148207 2 -1 2
3296 1 8.612946151299512 12.000072090505418 8.17646210495824 0 0 0
2831 1 16.23345726484865 11.659255205943271 16.101154926334203 0 -1 0
287 1 16.242362627731474 37.56343064904072 2.08885461962612 1 1 1
2167 1 2.4718203005155828 18.083518596267854 7.124258253006478 1 2 -1
4056 1 1.9942592759875977 18.597561443615792 11.30719853744248 0 0 0
2626 1 10.148871142911817 15.83721830588781 9.992139079727696 1 0 -1
1775 1 10.498787500471263 20.233861830389156 8.207989177710342 1 1 0
1404 1 15.961796504565168 47.272705675637084 13.442013978853934 0 0 1
4148 1 1.195037299322661 24.08061348123268 0.7138238128004696 2 -1 0
760 1 0.4529891692175285 22.780637897844407 12.220831882638612 -1 1 1
2718 1 4.192126857120056 23.82677082799741 10.771092964386986 1 2 0
3286 1 6.7571737554499895 23.632688360464854 12.0998164965873 0 0 -1
241 1 15.760822130969483 24.54815017601894 15.098410093256218 0 1 1
2187 1 11.013141779421407 12.104053489211104 0.5158203426537028 1 0 -1
524 1 7.968941117595024 23.70438831539122 0.7365543949886798 0 0 0
276 1 10.826931265143516 22.006136715635762 11.964381674230614 -1 1 1
1383 1 13.74043184045429 22.286493339563258 9.986091519308307 0 0 2
1227 1 14.515208492861895 28.71396654382322 22.73729857468188 1 1 0
962 1 0.38609716096752567 2.424924630444124 24.70015665921015 0 1 0
1765 1 0.6607758027247532 27.588634930900625 8.357364715344042 1 0 0
2612 1 3.216782004344418 27.6137354199758 10.471011597060732 0 -1 0
505 1 7.337945210750762 26.396134483490194 11.639082736209284 0 0 0
4120 1 7.1929959658139895 26.96247505533312 14.379110277802397 1 0 2
916 1 14.424653843132916 25.036122387485367 10.703849326122187 0 0 1
4313 1 1.3318347714674172 46.50336895129876 1.6937394189442991 0 1 1
4006 1 2.3239392847201183 32.69222533763048 8.602456766462172 0 0 0
4105 1 4.324152358859695 30.474048849131517 9.144300151505833 1 -1 1
3379 1 9.41498580258943 28.306646366714592 11.357626639760646 1 1 0
2777 1 9.125605404815719 29.245680078356816 14.640929877090375 0 1 1
3265 1 9.54975494089498 26.799055335506722 8.566780897346558 1 1 -1
990 1 14.247430903794944 30.19782507703778 11.791348282404018 0 0 1
3666 1 10.315326651386991 37.53823337374886 0.8771855483968168 2 0 0
3307 1 4.131550219335529 34.19604538277971 9.61312107369338 0 0 0
2316 1 10.580203046193269 31.359865632848344 9.462379962703022 1 1 1
2059 1 11.613902371865091 33.177532207181706 11.264484995966116 1 -1 0
4064 1 10.359346712138398 31.543660554974714 1.4751890735364788 0 0 2
3186 1 6.617865871599566 36.50962152911692 14.515730348566303 2 0 0
2740 1 9.675991267693531 32.56390962923123 7.136640325159622 1 -1 0
1088 1 7.43469895361544 33.03772707301618 12.318023204657607 0 0 0
2132 1 4.922722693260681 33.247670164352364 11.932195798840104 1 1 0
2255 1 10.999570657231855 20.23834947040514 0.815804879462671 0 1 1
2767 1 15.349136630996004 4.71619143475887 10.6521849205634 0 0 0
1056 1 0.3549245808658896 36.78183371616655 6.852841695035218 0 -1 0
2773 1 3.4554284611677204 44.260171617075976 8.768601065632497 0 0 0
327 1 8.060497241236474 35.695087289611024 9.659461057785755 0 1 0
2329 1 6.417107999310725 40.497002899070004 8.260487891603578 0 0 0
1851 1 10.776307940692606 38.62362109990941 8.739292916640542 0 0 0
917 1 12.347686113337867 41.867419373560786 10.337290440907577 -1 -1 0
3078 1 14.907654232443871 36.12564469393071 9.59815389638331 1 0 1
1850 1 16.011500548117876 40.471146351433866 7.838247720973937 0 0 -1
2703 1 2.8190960687533355 47.666230496532414 11.602164818873383 0 -1 0
3844 1 5.230579601114511 37.53777047946127 7.917004893455392 0 0 1
2510 1 6.3153492018172 42.14423665704306 11.00892561386816 1 0 0
3434 1 9.270532628706501 40.17918667408348 10.38491610356959 0 -1 -1
468 1 15.03679132429947 42.09536683542617 11.344318165240797 0 0 0
866 1 12.135956390666655 44.09077605869154 8.56651854472812 0 0 0
3134 1 16.051945930612693 43.3776586214209 9.068475718227738 -1 -1 1
1737 1 5.556834031369472 49.20694636941188 12.261774566448995 -1 -1 0
3934 1 7.809750459385192 47.33518728534737 11.59535817160407 1 -1 -1
3008 1 11.072561016629088 43.32116673564879 12.952908677623263 1 -1 2
1718 1 11.757184887267977 47.106618627709835 9.945812495869163 0 0 2
2002 1 9.764330912113614 44.20711384000912 7.114500622979981 1 0 -1
419 1 11.823794601725517 46.01730136170479 12.473605375353884 1 0 0
1950 1 4.544903348744758 48.69015181674199 9.513789723114954 0 0 0
2258 1 5.938516775617958 50.59307337580342 14.645045808562386 -1 -1 0
494 1 8.624106890719542 50.6322805934289 12.516431591111498 1 0 0
175 1 8.060087387666403 45.43699827958228 8.850406849061708 0 0 -1
3845 1 13.359784827004978 0.4966530288594685 8.790078792004016 0 1 2
408 1 14.144646946641314 48.43301538650642 9.014330808740398 0 -1 0
1498 1 1.3716258248542206 44.769494095821535 20.407010718278023 0 -1 0
2827 1 5.269107755068194 4.1979654487080404 16.913090957964023 0 0 1
1540 1 0.6620148248041092 8.943142190948201 17.89461948974052 -1 -1 -1
1877 1 6.4539708143142 48.60956498034847 16.399783009123333 1 -1 1
3064 1 11.89743989953215 50.600973707478744 16.08996382745606 1 -2 0
2683 1 14.313269566338251 0.5327364526445133 15.331397247420878 1 0 -1
3599 1 16.30329714921702 48.9938796719656 11.08663306596381 1 -1 0
592 1 11.320449349180722 38.95281290540899 25.03153692204389 0 0 0
1428 1 2.5246439150365667 4.414129213426334 16.62571442619236 0 0 0
1633 1 5.105109120648809 3.605832830502662 12.679476524485608 -1 1 0
2530 1 11.17444220290722 1.202396301981625 11.535411687703524 1 0 2
1713 1 7.486707744381893 8.29374081991132 14.018618488536555 1 0 -1
1512 1 12.968163626451906 3.3398634122837136 10.225159779317089 0 1 0
3047 1 15.885187856490752 3.88521609433344 13.37872669753375 0 0 -1
452 1 4.185033854291036 7.743573518649275 15.107294145168206 0 0 1
2545 1 1.2161230620853636 12.436495843910484 9.13699325314162 1 1 1
4359 1 5.1646861337184164 9.793377741683136 13.193048952682119 0 0 1
3737 1 8.68995461323158 11.122676285414679 15.05550495752275 1 2 -1
2844 1 13.697924087693107 4.878527668868443 14.390024234572204 0 1 1
757 1 10.91027060182172 7.130180056401001 14.755159287069326 -2 1 0
4585 1 3.848988058762999 41.188361261291675 7.868656780941897 1 0 1
3374 1 15.128816707615202 46.88186766997075 6.740490565947697 1 -1 0
153 1 1.647303969653617 11.457703586029734 15.084724913762871 0 0 1
1979 1 7.649479330707367 13.104603966889854 13.506155348908381 1 1 0
1278 1 10.878903214492059 11.65876232605753 16.751608861664643 0 2 0
489 1 9.241186432333189 5.293648852080417 16.606507250893014 0 1 0
4391 1 3.8222085946507747 16.368715686477756 15.30696932084552 0 0 1
1216 1 2.020873260330974 15.550673205567255 13.248672097257886 0 0 0
1079 1 5.709290431106539 18.27021959013103 13.236460680970268 -1 0 1
3241 1 13.352647914183608 10.389429766723545 15.888889837962934 0 0 0
4013 1 13.309900956218797 14.732330054964295 14.01078811149191 1 -1 0
2948 1 1.3580106734536697 17.49544550541521 2.011087626830929 1 0 1
985 1 11.936397755772383 45.15994397771457 24.820291357105525 1 -1 0
4349 1 1.8185848822546422 19.750764286088575 14.125780444539553 1 1 0
1357 1 10.180778279945375 17.64372507915198 12.458920166631215 0 1 1
1346 1 7.68492766890438 14.524869377258584 9.807192214063216 1 1 1
440 1 0.9006405766825749 4.325671908612235 14.175459588575698 0 1 1
1663 1 0.07287314772035852 49.35659005401205 5.942860054304205 1 1 -1
4046 1 2.0071023397190357 22.50912020995159 14.128808843428601 0 0 1
2144 1 0.5636595796363553 21.071574614315583 9.939284781304863 0 -1 1
1445 1 8.259826873397627 19.622907231176402 12.518726198631498 0 1 1
19 1 4.45067475819115 19.942643836480787 11.192953852150033 -1 1 0
2340 1 11.775080644959829 19.282965805435715 10.499630845243171 1 1 0
1416 1 14.081123192837671 11.913126857274387 24.771810533460798 0 1 0
856 1 4.623849013581927 21.84604958118021 13.323010631138382 0 0 1
3787 1 2.712421510977203 24.0642895313596 18.34886919648296 0 1 1
3430 1 2.8420292830846945 25.57426371383961 14.1571351920769 1 0 0
3222 1 6.226521720849258 24.077133494630626 14.960628405350402 1 0 0
716 1 10.14066712068092 21.069767171288024 14.438696500975677 1 0 0
1704 1 13.735224984816602 19.481895378709375 13.311926562629855 1 0 1
4174 1 4.321463068226628 4.681691947441975 4.205692452166817 0 -1 2
3527 1 1.1193267652659964 27.45417320664504 14.618925651803512 1 0 -1
2122 1 4.573199498485457 27.613549641521523 13.040375446991206 0 0 0
1637 1 9.615174522780332 25.320047152863104 14.550404103440062 0 -1 0