LAMMPS data file via write_data, version 29 Oct 2020, timestep = 200000

4608 atoms
1 atom types

0.4629603131113207 56.807549686886524 xlo xhi
0.4115202783211771 50.495599721674814 ylo yhi
0.4115202783211771 50.495599721674814 zlo zhi

Masses

1 18.015

Atoms # atomic

5 1 1.7953852005121693 1.7127397314025337 2.039014902100752 0 0 0
3 1 3.414146914116952 50.45066902846514 3.497282047597699 0 -1 0
777 1 7.302238060741813 0.5984572688739631 25.197171348429634 0 0 0
10 1 6.682450129948916 3.5474941504744057 3.6583110146949323 0 0 0
13 1 8.040719165063843 1.6987288949771118 2.1241015437943123 0 0 0
21 1 14.474995149456717 2.016715926140641 2.0140069575699338 0 0 0
18 1 13.04044674436737 3.7760454015170968 3.5779191113499595 0 0 0
19 1 15.944943006743287 50.43427091138316 3.492015371942036 0 -1 0
27 1 3.44920524686499 6.33409782613551 3.6530723271471124 0 0 0
8 1 4.837741403150885 4.709942855412481 2.305695983474659 0 0 0
16 1 11.439320777224365 4.797584830315872 1.565686668001177 0 0 0
35 1 9.870630327970055 6.480030364036842 3.0329516287669978 0 0 0
24 1 17.66786937467741 4.81288426544099 2.0263355100510014 0 0 0
43 1 16.30779956991056 6.453855941478303 3.5999561731510834 0 0 0
892 1 3.5816798674916983 35.227093529022355 25.331037155055018 0 0 0
29 1 1.7674148613656264 7.9733007107955425 1.8917777781557799 0 0 0
833 1 12.942963146402185 12.864288315348118 25.09111730572775 0 0 0
34 1 6.3187498679583705 9.914693883879108 3.2993840915738666 0 0 0
37 1 8.10431919559804 8.228212933837955 1.86499192951562 0 0 0
45 1 14.284731902117086 7.95221377946808 1.857695169246429 0 0 0
42 1 12.688913397713275 9.827096877870432 3.3951411623617433 0 0 0
51 1 3.4229154597461937 12.930444204263102 3.9654342123523483 0 0 0
32 1 4.586172144291195 11.46707196463101 1.73512506764268 0 0 0
59 1 9.82034313182009 12.985665664928137 3.428211215132827 0 0 0
40 1 10.96345220221034 11.192703309237736 1.7828245008816814 0 0 0
48 1 17.622629633244117 11.071196585546248 2.2554786696842433 0 0 0
67 1 16.19855574430389 12.909131987769904 3.56880103412384 0 0 0
53 1 2.0823663686650336 14.296622309411417 2.1680906953195502 0 0 0
58 1 6.846813114199724 16.08703153815999 3.6619916056818913 0 0 0
61 1 8.304846236107473 14.512742447891505 1.7616613201308264 0 0 0
929 1 13.1970373800716 37.61783019266385 25.217159610402884 0 0 0
69 1 14.718039086554226 14.387059567919874 1.9842086265504748 0 0 0
66 1 13.006124586576853 16.1389369049679 3.221429920340853 0 0 0
122 1 0.8445233723671955 34.9098810409647 3.862977367148269 0 0 0
75 1 3.8605737530223285 18.830573461498844 3.8192438992901243 0 0 0
56 1 5.222359563306384 17.417049169505994 1.9798646366887844 0 0 0
83 1 10.172920197041805 18.875292578743906 3.5860173431153712 0 0 0
64 1 11.557494341857957 17.714290239955723 1.4369301827590812 0 0 0
529 1 0.8140999512871272 38.02826692148793 13.186664336758625 0 0 0
72 1 18.20223624873235 17.31767879916558 1.912474405683762 0 0 0
91 1 16.601220361362977 18.940449507164978 3.607865754281688 0 0 0
77 1 2.075241176488979 20.600558663485444 2.094215299861411 0 0 0
82 1 6.764344471069972 22.336969165348208 3.317595746483517 0 0 0
85 1 8.607163321328018 20.560444232332777 2.1301749150108114 0 0 0
93 1 14.827071907647387 20.465204438390344 2.2983742587200124 0 0 0
90 1 13.014977379005776 21.8617605168917 3.6113721513362242 0 0 0
96 1 17.81744336890175 23.811900280937703 2.3426908057377758 0 0 0
1537 1 19.19698051942896 0.44829553927206767 0.6149844572642708 0 0 0
99 1 3.420936703764731 25.51718361307458 3.6500975175509334 0 0 0
101 1 1.8997251092664076 27.101269641982956 1.852573908718228 0 0 0
80 1 5.3600917813523745 24.206702687064173 1.971032282825248 0 0 0
88 1 11.556931980815833 23.582513684574728 2.0344207103813536 0 0 0
107 1 9.749029452457966 25.298144908380742 3.531760158047356 0 0 0
109 1 7.912274908703169 26.92131127571281 2.160279727691435 0 0 0
117 1 14.254852313627982 26.83538349198708 2.2349422862015613 0 0 0
506 1 0.6292452220750746 34.55924254609446 16.389257761257703 0 0 0
153 1 7.132971297927945 37.87387601070579 0.5221622254505035 0 0 0
104 1 5.002279343994925 30.35283814448059 2.260105812245115 0 0 0
106 1 6.1397257153936176 28.303279816836934 3.673162779848274 0 0 0
673 1 0.6692123777538797 25.46781799310276 19.060380297139762 0 0 0
112 1 11.137215066630745 30.69634336082365 1.8329457253836372 0 0 0
114 1 12.723552149377017 28.64179942550919 3.5319589999197984 0 0 0
120 1 17.56261675981828 30.17051626257936 2.0078417242685234 0 0 0
140 1 16.148540342610026 34.676926850303474 0.5660494969368312 0 0 0
125 1 2.1403553021334583 33.087311177877666 1.8877712800429125 0 0 0
123 1 3.2661119756593227 31.59910156688944 3.5188158421544893 0 0 0
156 1 9.704237770000669 41.07161114723126 0.5605429007807402 0 0 0
133 1 8.343545966921727 33.3871207364468 1.5732977135581634 0 0 0
131 1 9.590439055710117 31.83690735986793 3.7205224523286797 0 0 0
141 1 14.525261858732547 33.10081935483165 2.0410226176040362 0 0 0
76 1 3.7251366067215694 22.201752008388503 0.5752586268360815 0 0 0
139 1 16.163125874115906 31.793724777496685 3.753264387821197 0 0 0
889 1 0.48620146537473374 31.937195523811017 25.379148708472062 0 0 0
128 1 5.0871115413279435 36.3396521112683 2.042384772746547 0 0 0
130 1 6.940440156016286 34.90234497958792 3.545870328085954 0 0 0
136 1 11.364056106372326 36.3403566822372 2.0898884033317593 0 0 0
385 1 0.5113784806998665 50.26289690274403 13.535844371505483 0 -1 0
138 1 13.10637265308847 34.55643992996555 3.710049844792482 0 0 0
144 1 17.85444871666957 36.23348707721207 2.34084176734146 0 0 0
801 1 6.554833440781614 6.641289271468117 24.956151784151363 0 0 0
149 1 2.1110617306580006 39.184877345827 2.0278786400026387 0 0 0
147 1 3.7035273451513473 37.93075791335096 3.7471461971101645 0 0 0
766 1 14.918367836252607 49.07891183925563 23.828740164569293 0 0 0
68 1 16.497406458538656 15.761058039992518 0.7720131148447944 0 0 0
157 1 8.429184504340302 39.624325377298035 2.2671709422240642 0 0 0
155 1 9.919356542161706 37.87957816567378 3.509088370732787 0 0 0
165 1 14.77617683661958 39.419202106485194 1.7088336390066534 0 0 0
163 1 16.179793173406473 37.89384282523263 3.4340731704020087 0 0 0
762 1 13.283547282604477 47.28840650548199 22.84580323415229 0 0 0
290 1 0.6540903730563954 28.393361377553614 9.65160901823057 0 0 0
152 1 5.239184089073082 42.287607969560796 2.3141738301026997 0 0 0
154 1 6.562389111626608 40.94815611953454 3.953075670866033 0 0 0
160 1 11.242872907374794 42.59721216992584 1.967119738616216 0 0 0
146 1 0.9344263809649416 41.0310685498662 3.4982936115339984 0 0 0
162 1 12.907974245426542 40.95025651833876 3.3275969086092347 0 0 0
362 1 0.6299148938060041 47.0886360253283 10.310689075294345 0 0 0
168 1 17.715765708320248 42.82239779573148 1.7833570631288895 0 0 0
758 1 8.810983717536008 48.80716339808716 23.934884968647932 0 0 0
171 1 3.757492643412703 43.97596877272196 3.5280370570109447 0 0 0
173 1 2.240723066203189 45.72196468821797 2.084914173881432 0 0 0
2042 1 19.240195948205336 35.057029600791054 16.281768163662214 0 0 0
181 1 8.322037094938047 45.70805674569502 1.8442536027065182 0 0 0
825 1 6.979380464880485 12.870167357803576 24.846154487027576 0 0 0
189 1 14.399406387449547 45.763233755275024 2.098800787499238 0 0 0
873 1 6.579752206549479 25.36327132489782 25.32225949074616 0 0 0
187 1 15.952478811798485 44.13067302348812 3.322843329368954 0 0 0
177 1 6.591931229583855 44.12990327798572 0.45187684718910565 0 0 0
176 1 5.104112974830717 48.70805784678132 2.180127875583711 0 0 0
2041 1 19.131430889780614 32.320489434897766 12.762480986157003 0 0 0
11 1 9.93293109085572 0.4154854444871532 3.27759753073357 0 0 0
184 1 11.37629632063451 48.739206285209775 2.147579881660412 0 0 0
186 1 12.82180378587221 47.016137322997345 3.6050045815843 0 0 0
192 1 17.460975591510646 48.868630860304656 1.864273561604336 0 0 0
578 1 0.6910117087361066 3.0873590942538125 22.41043592866313 0 0 0
196 1 3.617851932245257 3.6641347036369396 6.96358443803486 0 0 0
7 1 4.979665177559206 1.961582414430437 5.087979872318796 0 0 0
201 1 6.462900319252566 50.423782115478424 6.549854623710377 0 -1 0
15 1 11.089677081744309 2.0030184576991914 4.70365716816961 0 0 0
23 1 17.695314867557713 2.1473901941280364 4.948862389490809 0 0 0
212 1 16.190939013786167 3.616488819702007 6.711222817832927 0 0 0
1778 1 19.168675473749804 15.856752169178527 10.080919592699827 0 0 0
6 1 1.966229787777121 4.810164456272715 5.21894796554012 0 0 0
225 1 6.552928338804508 6.709464654836282 6.4412084533992555 0 0 0
204 1 9.590278143272858 3.4461231841732776 6.018226956165075 0 0 0
14 1 8.222964659510378 5.584640791693252 4.57982915052022 0 0 0
22 1 14.584963741716383 5.279767627678927 5.379089045995397 0 0 0
233 1 12.82215410064884 6.784650133098825 6.830809287081283 0 0 0
2162 1 19.23398938743552 16.33092589606077 21.857809398122352 0 0 0
220 1 3.396179493097505 9.416621600222069 6.583999379017069 0 0 0
31 1 5.02692673421453 8.147886860404512 5.05246967357935 0 0 0
228 1 9.736534214904045 9.788464657983507 6.652718325985871 0 0 0
39 1 11.25787086940998 7.959878603550941 4.9442145274507885 0 0 0
236 1 15.828875178983543 9.707270279237138 6.628855452715088 0 0 0
47 1 17.656465119342503 8.212421527264631 5.075648667945051 0 0 0
30 1 1.8240951997330637 11.174647481648327 5.451255999909541 0 0 0
249 1 7.0279255723832 12.674319613870507 6.786363109894845 0 0 0
38 1 8.297605007859776 11.308019627083235 4.963479518259913 0 0 0
46 1 14.465257886840913 11.60310914846104 4.941688483056125 0 0 0
257 1 13.05376101199351 13.131868578918006 6.650527944349643 0 0 0
244 1 3.3080361092535013 16.00427697871075 6.615537806973114 0 0 0
55 1 5.086611469877617 14.456486142429515 5.090260593471427 0 0 0
252 1 10.12722836688211 15.778331257699728 6.892703404563549 0 0 0
63 1 11.596346766406022 14.578450474883194 4.669255536506757 0 0 0
260 1 16.38031135450603 16.277791631579426 6.895112675098884 0 0 0
71 1 17.442343884527123 14.510850678915306 5.2049673782639125 0 0 0
54 1 2.014376569340513 17.36562039755298 5.072051552385793 0 0 0
273 1 6.776849045071356 18.869704375878342 6.47630257049322 0 0 0
62 1 8.544443975849486 17.33508814180188 5.257769152231456 0 0 0
70 1 14.467753599573944 17.71059775493828 5.049410816690875 0 0 0
281 1 13.088440307844706 19.054450621031304 6.840693356874942 0 0 0
95 1 17.83016062747523 20.660867202134494 5.109689539154646 0 0 0
868 1 3.6422723781434514 28.655908328424324 25.307116772769124 0 0 0
268 1 3.596451621467759 22.3577605034497 6.535537720646199 0 0 0
79 1 5.310879877699373 20.571744014424578 5.150487930988766 0 0 0
276 1 9.84566326672143 21.707820256316488 6.68753908549315 0 0 0
87 1 11.531425652688165 20.268414934283765 5.201994940963129 0 0 0
86 1 8.072506161884068 23.640468063712905 5.078906315712607 0 0 0
94 1 14.308079055074865 23.94477006759366 4.832069939365133 0 0 0
284 1 15.84145148861007 22.348973768987474 6.2989710235119825 0 0 0
78 1 1.9368787204085876 24.117451969735164 5.061236001380957 0 0 0
297 1 6.818477274729281 25.010043892786694 6.587096627551735 0 0 0
103 1 5.161776299756784 26.7496318224219 5.379696240521104 0 0 0
111 1 11.159939853079782 27.148592816433254 5.12184700317596 0 0 0
305 1 12.396801140380834 25.234878036728816 6.357299298751286 0 0 0
115 1 16.059395114058553 25.379467885553204 3.6391288591617084 0 0 0
119 1 17.63073153486628 27.0833225760406 5.108133028627324 0 0 0
881 1 12.781204202747594 25.361962428089534 25.267219093304675 0 0 0
292 1 3.880541202509279 28.593652299036002 6.904991491461726 0 0 0
102 1 2.2120143390109797 30.23609623425047 5.2902819396566 0 0 0
300 1 9.815998039437652 28.54764600287405 6.779229374250291 0 0 0
110 1 8.318596964265478 30.061897689053552 5.253797629562121 0 0 0
118 1 14.353746655678767 30.370006781980905 5.117845844594817 0 0 0
308 1 15.65764582814906 28.75564521918528 6.6264414991102 0 0 0
321 1 6.7049767861678395 31.778687336155144 6.739823673252132 0 0 0
127 1 5.061935376500892 33.25507845192441 5.036084534886185 0 0 0
135 1 11.446262688077425 33.39538801770706 5.09192552804882 0 0 0
329 1 12.885424341773673 31.672909259365184 6.745493167596131 0 0 0
143 1 17.82625799972686 33.31716811669119 5.243092526807938 0 0 0
769 1 0.5696215249197034 50.1663841282437 25.354134682675753 0 -1 0
126 1 2.179793489602396 36.60667188070309 5.2540899558831065 0 0 0
316 1 3.3928289115916996 34.76521971021058 6.435550035705067 0 0 0
134 1 8.071775029071958 36.51355891180975 5.303294518402797 0 0 0
324 1 10.068390406665566 35.14356662907424 6.567337970880588 0 0 0
142 1 14.657694677933803 36.2488288844766 4.847758902351546 0 0 0
332 1 16.051418588189783 34.84909528130109 6.7511935045775555 0 0 0
754 1 7.12077852498214 47.245979610591135 22.388840653728774 0 0 0
151 1 5.297846934378311 39.44617780221208 5.352435320254933 0 0 0
345 1 6.645453764346622 37.9156350767797 6.849937113184356 0 0 0
159 1 11.389621131411003 39.61096897425739 5.148004383651832 0 0 0
353 1 13.247018103637307 37.99000916422539 6.611856120203513 0 0 0
167 1 17.705128805057516 39.59490434546897 4.836193557120344 0 0 0
340 1 3.8405042459688237 41.069125932107994 6.748876801941128 0 0 0
150 1 2.551336087057606 42.429155232675264 4.995170562512123 0 0 0
158 1 7.941513933663151 42.69676410153116 5.440453665316869 0 0 0
348 1 9.70582842523856 41.267020179592805 6.7422643332770695 0 0 0
166 1 14.466917560602678 42.57008051658479 4.756138694344367 0 0 0
356 1 16.150334566902686 41.40116755607412 6.203646457747685 0 0 0
625 1 0.5893213910661727 13.285637360231508 18.94783577926041 0 0 0
369 1 6.564609945795877 44.437269179998246 6.9345995457110226 0 0 0
175 1 5.2029462762536625 45.93206986751649 5.137886569869195 0 0 0
179 1 9.665472115090486 43.986297020727356 3.789351551656016 0 0 0
183 1 11.241356324967656 45.36318067104619 5.165782823507886 0 0 0
377 1 13.13359517545038 44.10166848186981 6.623245989085205 0 0 0
191 1 17.707568990780217 45.60424952254133 5.350418921421685 0 0 0
579 1 3.9455642995343263 50.398746486973614 22.031669018583703 0 -1 0
364 1 3.324463921466472 47.30785343838963 7.057295104865376 0 0 0
174 1 2.0040357479603728 48.90188451985066 5.1509715060450585 0 0 0
178 1 6.85164483541653 47.28771508572631 3.599806842899174 0 0 0
182 1 8.553313390306958 48.840601913667385 5.111736654701634 0 0 0
372 1 9.75374958943784 47.00485246649203 6.6614423502343545 0 0 0
209 1 12.834141543818626 50.481484140447435 6.266621122171308 0 -1 0
190 1 14.611177288611321 48.4675923177662 4.9345621920770855 0 0 0
380 1 15.974906340085793 47.372059049867545 6.7755626634817 0 0 0
197 1 2.0391455761578197 1.9938100542397872 8.082972199279252 0 0 0
195 1 3.8143396432541286 0.5836015232499465 9.735124512162509 0 0 0
202 1 6.970937534155545 3.983817131883241 9.534880692167281 0 0 0
199 1 5.314345972638806 2.4094657073953254 11.33247842421218 0 0 0
205 1 8.12624479303689 1.9993894638712437 7.773264186534705 0 0 0
203 1 9.726994056440525 50.36630531910978 9.508230536273365 0 -1 0
213 1 14.43750665369524 2.2586992001567143 7.907383681465355 0 0 0
210 1 13.334776563118641 4.017969372540087 9.587549108979116 0 0 0
219 1 3.3628732019165963 6.721618729386447 9.50184038928156 0 0 0
200 1 5.2304675038500115 5.2111342994596725 8.221519176437674 0 0 0
227 1 9.799693330077623 6.83394776474514 9.563584583005401 0 0 0
208 1 11.170895577948468 5.035943347361082 8.0486018362541 0 0 0
216 1 17.776177956911056 5.433145933012937 8.146105975369238 0 0 0
235 1 16.53648190090671 7.170067547344462 9.931471152665946 0 0 0
221 1 1.6472584409389726 8.112126926785049 8.30610407863627 0 0 0
226 1 6.0287151933405365 9.91873863883389 9.957459815927878 0 0 0
229 1 8.030017037498085 8.455644976984084 8.287407326241954 0 0 0
237 1 14.608805603263427 8.35199322998388 8.246795810202315 0 0 0
234 1 12.973470136712994 9.814515238642278 9.577710654780775 0 0 0
1825 1 18.786683023381755 25.257187779860217 6.345628158728208 0 0 0
243 1 3.4608221667377004 12.850075644026216 9.610435471011938 0 0 0
224 1 4.876053593048474 11.373713096335887 7.936386809216551 0 0 0
232 1 11.369238452707231 11.1831807148059 8.030111257039884 0 0 0
251 1 9.749760796243972 12.763716376011462 9.481700390100638 0 0 0
259 1 16.079199761904118 12.985143234406465 9.667568977154943 0 0 0
240 1 17.603287118268888 11.085965581126343 8.085152876820006 0 0 0
750 1 2.2695981988616305 49.03862098822421 23.679874607837082 0 0 0
245 1 1.7208815453711996 14.309437729257626 8.274512105353086 0 0 0
250 1 6.4756827927341005 15.89384773335524 9.715523233981846 0 0 0
253 1 8.234994397648139 14.54504507565355 8.331175641422922 0 0 0
261 1 14.637717068031007 14.702965090431505 8.173602774361985 0 0 0
258 1 12.886017834784761 16.24522952139681 10.181948976068393 0 0 0
263 1 17.333145686834843 14.564050749237634 11.261577599256023 0 0 0
170 1 0.6756405642565193 47.11011297114741 3.406200175366498 0 0 0
267 1 3.2686748629032514 19.10144387695753 9.910526348756427 0 0 0
248 1 4.854163065317096 17.4599222836773 8.158340516423813 0 0 0
275 1 9.480206546470292 19.29252227352101 9.75356408527508 0 0 0
256 1 11.351182959032155 17.751642821620365 8.465078420630471 0 0 0
262 1 14.53316595019462 18.025668498199945 11.659311849826464 0 0 0
264 1 17.66527219296199 17.741119004074115 8.9773455491 0 0 0
283 1 15.59806358505913 19.56864448449719 9.792576152276787 0 0 0
269 1 1.7753585185250158 20.77215293614201 8.209089942140167 0 0 0
274 1 6.560484072197001 21.988521844713507 9.637917013243777 0 0 0
272 1 4.906320390449223 23.606565052881894 8.502709779392104 0 0 0
277 1 8.024806417559816 20.614670272173658 8.074714774143995 0 0 0
285 1 14.394425793662895 21.225728802562 7.936776823427191 0 0 0
282 1 12.946442540200106 22.761977229852647 9.918653917158727 0 0 0
288 1 17.27420987137724 23.841676912718377 8.057361865455096 0 0 0
505 1 0.6197717529878268 32.11990762192381 13.222848044010771 0 0 0
291 1 3.7921120803153507 25.389830687809166 10.40780033046785 0 0 0
280 1 11.22404121841273 23.759001702856146 7.995978590534765 0 0 0
299 1 9.599295475197946 25.71995259463396 9.741237045255817 0 0 0
301 1 8.211407602542227 27.00938441431227 8.285961449126258 0 0 0
309 1 14.030647602613973 27.16031024673972 7.879973578958332 0 0 0
307 1 15.977330520469403 25.412956522927573 9.814861668988021 0 0 0
293 1 2.4911030389570388 26.779778787743034 8.340003726691826 0 0 0
294 1 2.018839626550096 30.23316546810802 11.662154886667416 0 0 0
298 1 6.593728515324298 28.679925692228455 9.928145016269863 0 0 0
296 1 5.128465681232903 30.406267400707577 8.560138826116363 0 0 0
304 1 11.393774138706112 30.436724525459 8.235435965115364 0 0 0
306 1 12.809098126171957 28.72779664609055 9.761473150236942 0 0 0
312 1 17.707633493526565 30.492216776587533 8.310148715365212 0 0 0
554 1 0.888682333504365 47.479495101587005 16.084465732962173 0 0 0
317 1 2.314022112986674 33.26983953627866 8.466091663253312 0 0 0
315 1 3.7380739107965737 31.7140284500014 10.108175103642575 0 0 0
325 1 8.475608569926404 33.372401784527206 7.786527622617743 0 0 0
323 1 9.5467829697243 31.893246654777894 9.508180390089116 0 0 0
333 1 14.430504078380581 33.14437681609505 8.454725881747045 0 0 0
331 1 16.21971636845385 31.6880790121289 10.013894979690365 0 0 0
361 1 0.777149424054401 43.785424021926715 6.579919771849454 0 0 0
320 1 5.246485884720064 36.258185884916244 8.204447303361189 0 0 0
322 1 7.03399238260563 34.76412529741089 9.72138327137594 0 0 0
328 1 11.709399139149113 36.27602316124141 8.142036738371129 0 0 0
330 1 13.006941625057566 34.68857897241166 9.6947092838855 0 0 0
336 1 17.496397439215727 36.47536374133869 8.036179659669916 0 0 0
341 1 1.8422970598007762 39.44149799506909 8.332773086585679 0 0 0
339 1 3.6716847212066117 37.59970254547239 9.652815475021766 0 0 0
349 1 8.400636960257312 39.44257298466011 8.192124880052607 0 0 0
347 1 10.322625202670023 38.268360004765974 9.527363469641688 0 0 0
357 1 14.575557699701358 39.847540103223906 8.116835119858358 0 0 0
355 1 16.178906135911024 38.221739551459045 9.63977729972857 0 0 0
767 1 17.70164466011599 45.66144940561411 23.424371972815983 0 0 0
344 1 5.496309997285383 42.57320438356808 8.652655073742405 0 0 0
346 1 6.949197421394337 40.89970835027136 10.053309752111971 0 0 0
352 1 11.47699089972082 42.64384737999945 8.269754590042105 0 0 0
354 1 12.722437690163149 40.81591577356673 9.604366429471055 0 0 0
360 1 17.40906297975781 42.72642465734879 7.985398650120072 0 0 0
2018 1 19.218201000108024 28.782661649210677 15.7039323909634 0 0 0
363 1 3.9778345369355397 44.45059931142675 10.108565969656123 0 0 0
365 1 2.0763406475740602 45.35034544323711 8.376460768761651 0 0 0
373 1 8.101664041236612 46.10281245002514 8.474139665175922 0 0 0
371 1 9.83441481738138 44.642905840348774 10.088441518042998 0 0 0
381 1 14.410800236428235 45.865563809428636 8.412383658454566 0 0 0
378 1 12.965805849699931 47.644792386777276 9.937994546094776 0 0 0
379 1 15.65094398797334 43.9025370486355 9.497643277857499 0 0 0
836 1 16.176119462695752 16.146913032264656 25.053738402808886 0 0 0
370 1 6.4451953335865495 47.6273237714186 9.800737920477369 0 0 0
368 1 5.013446039203795 48.96054541403522 7.9097342861479785 0 0 0
376 1 11.379288857692861 48.956819774608135 8.18889749323496 0 0 0
211 1 15.996616018368654 0.6048348427893173 9.33588758542774 0 0 0
384 1 17.721378633723884 49.21361551756343 7.931472958030365 0 0 0
389 1 2.23854544805124 2.128215050930913 14.656119569603007 0 0 0
388 1 3.3990482504190425 3.7498103009412835 12.568801992768668 0 0 0
393 1 6.681304852373418 0.692866363141853 12.73855660843613 0 0 0
207 1 11.259486515875762 2.1717155708485376 10.701328732412055 0 0 0
396 1 9.967685726928845 3.5885683684086387 12.749832988456745 0 0 0
397 1 8.422566130423931 1.8770567742035447 14.303828186624616 0 0 0
405 1 14.72403696517679 2.3772622512873234 14.46981433109404 0 0 0
215 1 17.456152539924304 2.0963181060174607 11.138579636658227 0 0 0
404 1 16.209579689602478 3.8222915274171965 12.675460685532471 0 0 0
198 1 1.8312844059721363 5.123550710346988 11.103559143903428 0 0 0
417 1 6.808486704275163 6.723843937164933 12.578200890773282 0 0 0
392 1 5.1408125102207665 5.155825579827759 13.935749444030542 0 0 0
206 1 8.51293445094798 5.332669676458228 11.441129240785639 0 0 0
400 1 11.414120194908934 5.692818814623625 14.359100476170461 0 0 0
214 1 14.713996949504125 5.578094286005894 11.161114265830097 0 0 0
425 1 13.002775135024514 7.028792012314089 12.656059982189516 0 0 0
412 1 3.1957998441655953 9.680765108319545 12.97210559468895 0 0 0
413 1 1.9178655892863448 7.808657503038916 14.46514719861179 0 0 0
223 1 4.726192054064593 8.118880998179208 11.490731963667717 0 0 0
231 1 11.531726162830562 8.633604949666628 11.174861663220737 0 0 0
420 1 10.001603547169584 10.203375250805559 12.548701063382119 0 0 0
421 1 8.24199110617607 8.469218005584105 14.590524810735626 0 0 0
429 1 14.490143875893265 8.555756833368312 14.377507764116755 0 0 0
239 1 17.981982455470114 8.489140808462693 11.749604971154914 0 0 0
428 1 16.358828022440065 10.121352883245812 13.000671845789366 0 0 0
222 1 1.9338187044398307 11.301730034301809 11.364952116834887 0 0 0
441 1 6.794201759809562 12.728225634493308 12.438394419417008 0 0 0
416 1 4.967957299930022 11.208509935559212 14.333653826412936 0 0 0
230 1 8.132180429980469 11.454254255157442 11.140202988241397 0 0 0
424 1 11.272089771198942 11.50214158133063 14.5538689511837 0 0 0
238 1 14.411547236771511 11.37938775056372 11.4443788694679 0 0 0
449 1 12.780150572937446 12.945530779882523 12.869958669526731 0 0 0
432 1 17.58595310509625 11.507171597857843 14.608165436730808 0 0 0
436 1 3.371275627708154 16.328753635575655 12.40051029184324 0 0 0
247 1 4.672641494797023 14.33615883187175 11.21968993068294 0 0 0
445 1 7.884550945545068 14.72461054897964 14.335666789766611 0 0 0
255 1 11.117585076275997 14.398360435367872 11.102773271924528 0 0 0
444 1 9.571441286151735 16.259968183224764 12.706328207686086 0 0 0
453 1 14.538004140214714 14.532727906176342 14.604213994912188 0 0 0
452 1 16.038126370242413 16.17159212765913 13.186072593657395 0 0 0
456 1 17.575096806367096 17.552725282560754 14.429191524359398 0 0 0
763 1 16.48333791572064 43.95461259091417 22.177055659499885 0 0 0
246 1 1.4848383137613512 17.656346474773407 11.347878621586382 0 0 0
440 1 4.578324816515049 17.33011244454783 14.456320395319418 0 0 0
465 1 6.3102666604273505 19.116511312872465 12.927995981997704 0 0 0
254 1 7.8805664399229 17.558103538515386 11.482586977529376 0 0 0
448 1 11.451346408332695 17.53238360018918 14.542073433528456 0 0 0
469 1 8.09632860805988 20.46735933270284 14.177696361498924 0 0 0
473 1 12.758404496854592 19.08593415111337 12.8443591875788 0 0 0
287 1 17.50022877698248 20.752826463766763 10.931463784299114 0 0 0
460 1 3.2236508677614326 21.913696246537913 12.943980000524926 0 0 0
461 1 1.622254526705799 20.40996237962223 14.511470913849726 0 0 0
271 1 4.772189051681845 20.400272325649517 11.335889351817658 0 0 0
464 1 4.849577970066958 23.602000879905894 14.525137758893212 0 0 0
279 1 11.117910456264353 20.875968030981408 11.346619279748902 0 0 0
468 1 9.420225942913515 22.508570150703164 12.963749283818979 0 0 0
278 1 7.878811818329596 23.978269238163616 11.060604588926005 0 0 0
477 1 14.360675618228973 20.638177755328574 14.110117951240618 0 0 0
476 1 16.29199536379502 22.324095180824443 12.953329341275674 0 0 0
480 1 18.019232300341546 23.951480547633956 14.154155516051777 0 0 0
270 1 1.9241791752352466 23.84057017741331 11.330758395929136 0 0 0
602 1 0.7504065652595651 9.940595888301575 22.29494923764218 0 0 0
489 1 6.583364080742097 25.18587921639878 13.421891423177923 0 0 0
295 1 5.302847890460122 27.08145143046304 11.770949570401752 0 0 0
472 1 11.099285159588627 23.858197359980903 14.627757209071843 0 0 0
493 1 8.274497988197126 26.96103294942392 14.547089112693458 0 0 0
303 1 11.477342043438604 26.932305140475428 11.582081657756442 0 0 0
286 1 14.742742609517467 23.74344074344982 11.338311638921297 0 0 0
497 1 13.361223481865721 25.31575591845224 13.107341171660263 0 0 0
501 1 14.424724758224515 27.1021416783767 14.526360405299402 0 0 0
311 1 17.431652039537767 27.14803854042044 11.015169064208845 0 0 0
50 1 0.7548955620291184 16.067976676319986 3.4444070741501225 0 0 0
484 1 3.7924924554137 28.89513500960065 12.983827527015578 0 0 0
485 1 1.7780263693506435 27.29470940362449 14.607117709431247 0 0 0
488 1 5.425511039216491 30.18488876926791 14.293380214175272 0 0 0
302 1 8.40348203280978 30.033353809157003 11.204974432898727 0 0 0
492 1 10.089551119185998 28.575703680138854 13.111560683815156 0 0 0
310 1 14.346731216810786 30.17323467054253 11.250406463900905 0 0 0
500 1 16.178766578468352 28.571858416048993 12.972483065950652 0 0 0
504 1 17.788145533479117 30.363086318051234 14.252595875105637 0 0 0
509 1 2.4607101857195497 33.33479239474604 14.706501526419824 0 0 0
319 1 5.411305800607465 33.583111986465305 11.360242251326856 0 0 0
513 1 6.6938846624178 32.017714790196095 12.759076499789087 0 0 0
327 1 11.301756241731043 33.25779328506357 11.472876514302964 0 0 0
521 1 12.846997014107131 31.799485443884688 13.004083557729242 0 0 0
525 1 14.924028576043613 33.146570633818456 14.274797092316605 0 0 0
335 1 17.614380566322904 33.65734168594305 11.139462329400576 0 0 0
100 1 3.4666179149882224 28.881822908502308 0.47824644190215965 0 0 0
318 1 2.3847511217094253 36.347903423955486 11.465208891918673 0 0 0
508 1 3.918714524766169 35.06397068115047 13.09944732258292 0 0 0
512 1 5.656507916739979 36.441968229176524 14.576061211820205 0 0 0
326 1 8.558945528687772 36.31238877727909 11.11994803386754 0 0 0
516 1 10.049184943507996 34.75503658962506 12.936728178554201 0 0 0
520 1 11.20031319164633 36.07799896398049 14.672547303020414 0 0 0
334 1 14.294949377889447 36.65097620048885 10.905479910218585 0 0 0
524 1 16.108297751766646 35.03535417206185 12.781988498997746 0 0 0
1970 1 18.81358695157682 15.982298717555896 15.961129047437185 0 0 0
343 1 5.268403261277528 39.23372334695356 11.006155551709448 0 0 0
537 1 7.023852636277047 37.90754806553614 12.620479516904398 0 0 0
541 1 8.577909021208493 39.48970177048941 14.3841505066967 0 0 0
351 1 11.293730247686865 39.325728240071676 11.656848083530146 0 0 0
545 1 12.954013255602208 37.57405820014177 13.24936345854239 0 0 0
549 1 14.414115965985173 39.446408722373654 14.480243153634222 0 0 0
359 1 17.551517932911196 39.831748993459826 11.347406033825498 0 0 0
342 1 2.171573040805005 42.83677014631793 11.344462965020393 0 0 0
532 1 4.067910902898934 40.617297210147946 12.888422952879253 0 0 0
536 1 5.449536229469836 42.63562867261044 14.457632917703487 0 0 0
350 1 8.414791324892253 42.65848771759588 11.45480757885032 0 0 0
540 1 9.8050920788701 41.112604689495484 12.845320266997868 0 0 0
544 1 11.331169844337483 42.584939896396676 14.352528502509156 0 0 0
358 1 14.122575164581125 42.59388924906239 11.26646013631506 0 0 0
548 1 16.035293685029494 41.318663969051286 12.891494342237023 0 0 0
552 1 17.76113019947574 43.02589801640885 14.270295412490732 0 0 0
556 1 3.7753122461178608 47.36747758254709 13.146715409223853 0 0 0
9 1 6.660434449333339 50.16509283159387 0.7081209252670106 0 -1 0
561 1 6.947763180804601 44.484603795009356 13.041872768214363 0 0 0
367 1 5.312134548602166 45.84698142876935 11.700712598754752 0 0 0
375 1 11.460929314757111 46.164827971070984 11.694579160913191 0 0 0
569 1 12.768719599922655 44.429085744853374 12.916190284931215 0 0 0
573 1 14.531803438252886 45.8177108178445 14.162750991452148 0 0 0
383 1 17.342805045788577 45.98771527002746 10.670998289520583 0 0 0
366 1 2.1501284034464465 49.18768829341025 11.546578394220496 0 0 0
560 1 5.376935598843319 48.53825882498538 14.62020739658292 0 0 0
564 1 9.834864652699281 47.771309155805746 13.360348854642941 0 0 0
374 1 8.13071438262424 48.969202389734235 11.228261416199977 0 0 0
568 1 12.002906355733582 49.155270336253274 14.729354053476172 0 0 0
401 1 12.959012064287933 1.1340305509936597 12.725560544046646 0 0 0
382 1 14.41481665558615 49.27370247286892 11.318757203910119 0 0 0
572 1 15.953479356418336 47.329481014358365 12.613040641501447 0 0 0