
# Create simulation box of size 50 x 50 x 50 Angstrom
#
lattice	            sc 1
Lattice spacing in x,y,z = 1.0000000 1.0000000 1.0000000
region 	            all block 0 ${X} ${YZ_LO} ${YZ_HI} ${YZ_LO} ${YZ_HI} units box
region 	            all block 0 53.4 ${YZ_LO} ${YZ_HI} ${YZ_LO} ${YZ_HI} units box
region 	            all block 0 53.4 0.4115202783211771.0 ${YZ_HI} ${YZ_LO} ${YZ_HI} units box
region 	            all block 0 53.4 0.4115202783211771.0 50.495599721674814.0 ${YZ_LO} ${YZ_HI} units box
region 	            all block 0 53.4 0.4115202783211771.0 50.495599721674814.0 0.4115202783211771.0 ${YZ_HI} units box
region 	            all block 0 53.4 0.4115202783211771.0 50.495599721674814.0 0.4115202783211771.0 50.495599721674814.0 units box
create_box          1 all
Created orthogonal box = (0.0000000 0.41152028 0.41152028) to (53.400000 50.495600 50.495600)
  3 by 1 by 2 MPI processor grid

# fill box with 4175 randomly distributed atoms
#
create_atoms        1 random 4608 63782 all
Created 4608 atoms
  create_atoms CPU = 0.000 seconds
mass                1 18.015

# Define potential
#
pair_style          sw
pair_coeff          * * /data/emrosky-sim/Freezing_Simulations/Melting/mW_fancy/mW.sw mW
Reading sw potential file /data/emrosky-sim/Freezing_Simulations/Melting/mW_fancy/mW.sw with DATE: 2019-02-27

# Run minimization
#
minimize            1.0e-8 1.0e-8 10000 1000
WARNING: Using 'neigh_modify every 1 delay 0 check yes' setting during minimization (../min.cpp:187)
Neighbor list info ...
  update every 1 steps, delay 0 steps, check yes
  max neighbors/atom: 2000, page size: 100000
  master list distance cutoff = 6.3065
  ghost atom cutoff = 6.3065
  binsize = 3.15325, bins = 17 16 16
  1 neighbor lists, perpetual/occasional/extra = 1 0 0
  (1) pair sw, perpetual
      attributes: full, newton on
      pair build: full/bin/atomonly
      stencil: full/bin/3d
      bin: standard
Per MPI rank memory allocation (min/avg/max) = 4.236 | 4.254 | 4.260 Mbytes
Step Temp E_pair E_mol TotEng Press 
       0            0    4770296.4            0    4770296.4    3402876.5 
     677            0   -52175.587            0   -52175.587    213.34337 
Loop time of 2.44805 on 6 procs for 677 steps with 4608 atoms

99.2% CPU use with 6 MPI tasks x no OpenMP threads

Minimization stats:
  Stopping criterion = max force evaluations
  Energy initial, next-to-last, final = 
      4770296.35845341   -52175.536185261  -52175.5867696013
  Force two-norm initial, final = 1.0925176e+08 1.6596732
  Force max component initial, final = 57669489.0 0.62949293
  Final line search alpha, max atom move = 0.075778559 0.047702067
  Iterations, force evaluations = 677 1000

MPI task timing breakdown:
Section |  min time  |  avg time  |  max time  |%varavg| %total
---------------------------------------------------------------
Pair    | 1.8503     | 2.0088     | 2.2623     |  10.4 | 82.06
Neigh   | 0.041155   | 0.043714   | 0.047511   |   1.2 |  1.79
Comm    | 0.11282    | 0.37004    | 0.53188    |  24.7 | 15.12
Output  | 0          | 0          | 0          |   0.0 |  0.00
Modify  | 0          | 0          | 0          |   0.0 |  0.00
Other   |            | 0.02548    |            |       |  1.04

Nlocal:        768.000 ave         775 max         760 min
Histogram: 2 0 0 0 1 0 1 0 0 2
Nghost:        1705.83 ave        1715 max        1692 min
Histogram: 1 0 0 1 0 1 0 1 1 1
Neighs:        0.00000 ave           0 max           0 min
Histogram: 6 0 0 0 0 0 0 0 0 0
FullNghs:      26009.3 ave       26341 max       25636 min
Histogram: 1 1 0 0 1 1 0 0 0 2

Total # of neighbors = 156056
Ave neighs/atom = 33.866319
Neighbor list builds = 36
Dangerous builds = 0

# Add velocity/set timestep
#
velocity            all create ${TEMP} 120598 rot yes dist gaussian
velocity            all create 270 120598 rot yes dist gaussian
timestep            5.0

# Define output
#
compute	            1 all msd
thermo	            100
thermo_style        custom step temp press vol etotal ke pe c_1[4] density

# Neighbor lists
#
neigh_modify        delay 0 every 1 check yes

# Set fixes
#
fix                 1 all momentum 10 linear 1 1 1 rescale
fix                 2 all nve
fix                 3 all temp/csvr ${TEMP} ${TEMP} 500.0 928347
fix                 3 all temp/csvr 270 ${TEMP} 500.0 928347
fix                 3 all temp/csvr 270 270 500.0 928347
fix                 4 all press/berendsen iso ${PRES} ${PRES} 1000.0 modulus 20000
fix                 4 all press/berendsen iso 1 ${PRES} 1000.0 modulus 20000
fix                 4 all press/berendsen iso 1 1 1000.0 modulus 20000

# Run 0.5 ns equilibration
#
dump                1 all custom 1000 eq.${NAME}.dump id type x y z vx vy vz
dump                1 all custom 1000 eq.liq_270K_1atm_mW.dump id type x y z vx vy vz
run                 100000
Per MPI rank memory allocation (min/avg/max) = 3.504 | 3.507 | 3.510 Mbytes
Step Temp Press Volume TotEng KinEng PotEng c_1[4] Density 
     677          270     1478.687    133949.36   -48467.787    3707.7998   -52175.587            0    1.0290942 
     700    125.81158    1283.0147    135330.59    -48096.14     1727.719   -49823.859   0.14334523     1.018591 
     800    183.62506    397.37731    136780.22   -46701.241     2521.648   -49222.889   0.54570829    1.0077957 
     900    214.73372    80.571392    137462.52   -45799.234    2948.8505   -48748.084   0.95001049    1.0027935 
    1000    236.36818    330.97757    137807.89   -45190.035    3245.9477   -48435.983    1.4975897    1.0002803 
    1100    244.22509    -58.93239    137944.24   -44776.056    3353.8435     -48129.9    2.0741787   0.99929156 
    1200    253.73795    -16.07248    137659.77   -44439.153    3484.4798   -47923.633    2.6571049    1.0013566 
    1300    257.97916    21.096675    137878.63   -44143.287    3542.7225   -47686.009    3.5045286   0.99976711 
    1400    258.95486    98.323688    138039.76   -44024.548    3556.1215    -47580.67    4.4008367   0.99860007 
    1500    265.25614   -27.354457    138114.14   -43839.362    3642.6543   -47482.017    5.4793174   0.99806228 
    1600    260.30841   -55.956068     137842.5   -43782.991    3574.7091     -47357.7    6.5970108    1.0000291 
    1700    261.36708   -6.1319297    137771.92   -43780.766    3589.2474   -47370.013    7.5496756    1.0005415 
    1800    267.98753   -6.0234722    137807.45   -43657.253    3680.1633   -47337.416    8.6053798    1.0002835 
    1900    271.82161   -123.00751     137876.5   -43597.416    3732.8153   -47330.231    9.7638678   0.99978251 
    2000    273.88223   -191.67287    137852.01   -43527.879    3761.1129   -47288.992     10.92355   0.99996012 
    2100    267.96502   -110.96538    137897.14    -43585.74    3679.8542   -47265.595    12.176482   0.99963287 
    2200    264.43834    118.67992    137884.68   -43581.055    3631.4239   -47212.479    13.582224   0.99972322 
    2300     266.6485    56.928945    137884.74    -43510.73     3661.775   -47172.505    14.808988   0.99972282 
    2400    267.04653    134.32705    137911.95   -43512.971     3667.241   -47180.212    15.803373   0.99952553 
    2500    273.53037   -23.288311     138036.7   -43489.341    3756.2809   -47245.622    17.117198   0.99862221 
    2600     271.9666    -115.6146    137794.43   -43369.132    3734.8063   -47103.938     18.51728     1.000378 
    2700    270.88022   -80.595837    137426.42   -43360.279    3719.8875   -47080.167    19.834122    1.0030569 
    2800    267.41752     2.486307    137272.38   -43418.032    3672.3357   -47090.368    21.182212    1.0041825 
    2900    264.76981   -117.73723    137660.48   -43344.768    3635.9758   -46980.743       22.524    1.0013514 
    3000      272.591   -82.326793     137746.2   -43312.324    3743.3809   -47055.705    23.787509    1.0007282 
    3100    272.52585   -31.985905    137718.08   -43318.686    3742.4863   -47061.172    25.251785    1.0009326 
    3200     274.7842    69.849016    137786.61   -43326.693    3773.4992   -47100.193     26.67773    1.0004348 
    3300    269.89517    51.082926       137843   -43346.935    3706.3602   -47053.296    27.925795    1.0000255 
    3400    270.90205     -53.5893    137379.81   -43331.469    3720.1873   -47051.657    29.121405    1.0033972 
    3500    270.82722   -21.750151    137576.75   -43268.565    3719.1597   -46987.725     30.62968    1.0019608 
    3600    268.43943   -22.360354    137795.66    -43277.51    3686.3691   -46963.879    31.792205    1.0003691 
    3700    272.68649    126.88588    138045.94   -43307.905    3744.6923   -47052.597    33.154507   0.99855541 
    3800    272.49941   -128.72404    138031.62   -43353.179    3742.1232   -47095.302    34.436637     0.998659 
    3900    273.91437   -23.661217    137871.94   -43450.254    3761.5542   -47211.809    35.538463   0.99981562 
    4000    271.17287    3.9277186    137532.83   -43484.627    3723.9064   -47208.534    36.700307    1.0022808 
    4100    269.13171   -41.757565    137545.26   -43443.454    3695.8759    -47139.33    37.973324    1.0021903 
    4200    272.04835    132.44856    137485.52   -43440.852     3735.929   -47176.781    39.309918    1.0026257 
    4300    272.11271    73.100339    137662.03   -43401.242    3736.8128   -47138.055    40.234764    1.0013401 
    4400    270.47749   -48.412189    137632.52   -43385.095    3714.3571   -47099.452    41.154951    1.0015548 
    4500    268.61687   -99.998372     137348.5    -43374.51    3688.8058   -47063.316    42.285093     1.003626 
    4600    271.17447   -87.957073       137298   -43389.842    3723.9284    -47113.77    43.476367     1.003995 
    4700    268.15835     35.87297    137535.73   -43464.201    3682.5092    -47146.71     45.15549    1.0022597 
    4800    268.46825    121.40633    137498.31   -43429.084     3686.765   -47115.849    46.808751    1.0025325 
    4900    272.72841    -85.50438    137807.64   -43413.998    3745.2679   -47159.266    48.535248    1.0002821 
    5000    269.81982   -199.70761    137814.76    -43513.37    3705.3255   -47218.695    49.933883    1.0002304 
    5100    271.74647   -111.50695    137765.32   -43477.334    3731.7834   -47209.118    51.334348    1.0005894 
    5200    266.32908   -105.84063    137595.48   -43525.836    3657.3885   -47183.225    52.574072    1.0018245 
    5300    268.70147    249.48183    137843.06   -43494.982    3689.9676    -47184.95     54.05146    1.0000251 
    5400    268.95712    96.545787       138074   -43407.738    3693.4783   -47101.217    55.568026   0.99835245 
    5500    271.95491   -98.778803    137778.75   -43381.783    3734.6458   -47116.429    56.949394    1.0004919 
    5600    272.63274    57.933748    137724.66   -43320.065    3743.9541   -47064.019    58.241232    1.0008848 
    5700    273.27453    63.330517    137523.75   -43383.801    3752.7676   -47136.569    59.186838     1.002347 
    5800    274.83971    176.03313    137551.03   -43324.475    3774.2616   -47098.737    60.266523    1.0021482 
    5900    265.43059    152.83733    137775.47   -43432.365      3645.05   -47077.415    61.529261    1.0005156 
    6000     266.0861     5.122447    137628.68   -43517.466    3654.0518   -47171.518    62.765271    1.0015828 
    6100    267.59938   -57.124926    137734.63   -43495.308    3674.8331   -47170.141    64.123988    1.0008124 
    6200      268.915     56.87766    137773.63   -43482.537    3692.8999   -47175.437    65.387623     1.000529 
    6300    267.15163    7.5546153    137786.73   -43480.054    3668.6844   -47148.738    66.583913    1.0004339 
    6400    269.27637   -88.492022    137464.68   -43477.621    3697.8626   -47175.483    67.795299    1.0027777 
    6500    268.37545    90.564611    137607.39   -43452.266    3685.4905   -47137.757    68.987885    1.0017377 
    6600     268.4784    15.890399    137741.62   -43506.577    3686.9043   -47193.482    70.449732    1.0007616 
    6700    268.06725   -8.0757494    137794.14    -43481.43    3681.2581   -47162.688    71.747133    1.0003801 
    6800    268.17104   -1.9548517    137569.87   -43577.376    3682.6835    -47260.06    72.861805    1.0020109 
    6900    266.74409    288.81332    137580.53   -43537.317    3663.0878   -47200.404    73.953696    1.0019333 
    7000    270.62079    44.134746    137856.86   -43387.737    3716.3249   -47104.062    75.163234   0.99992497 
    7100    266.03793   -224.71659    137725.49   -43482.899    3653.3903    -47136.29    76.472307    1.0008787 
    7200    265.17828   -182.10647    137660.04   -43465.229    3641.5851   -47106.814    77.745722    1.0013546 
    7300    270.91193   -4.0207783    137756.61   -43477.033     3720.323   -47197.356    79.294144    1.0006527 
    7400    267.40591    69.550101    137673.48   -43526.674    3672.1763    -47198.85    80.739809    1.0012569 
    7500    265.74141   -96.393486    137764.44   -43464.045    3649.3183   -47113.363    82.183966    1.0005958 
    7600    271.07664    121.51234    137725.71   -43415.269    3722.5849   -47137.854    83.359365    1.0008771 
    7700     271.0874    186.46845     137943.9   -43360.832    3722.7326   -47083.565     84.60278   0.99929405 
    7800    268.54247    135.60574    137796.29   -43391.242    3687.7841   -47079.026    85.911392    1.0003645 
    7900    263.66303    12.039883    137768.86   -43492.537    3620.7768   -47113.314    87.178155    1.0005637 
    8000    263.39098    53.372342    137612.07   -43498.392    3617.0408   -47115.433    88.369288    1.0017037 
    8100    271.10665    90.652355    137511.96   -43369.746     3722.997   -47092.743    89.508575    1.0024329 
    8200    267.65634   -120.15724    137477.58   -43403.688    3675.6153   -47079.303    90.622508    1.0026836 
    8300    272.71627    111.70319    137795.75   -43388.197    3745.1012   -47133.298    91.773059    1.0003684 
    8400    269.03749    92.206643    137743.24   -43448.829     3694.582   -47143.411     92.85113    1.0007498 
    8500    270.84968   -114.14283    137775.93   -43489.538    3719.4681   -47209.006    93.970337    1.0005123 
    8600    272.27737    44.309797    137791.65   -43436.843    3739.0739   -47175.917     94.95468    1.0003982 
    8700    273.09972    1.5238139    137773.89   -43384.679    3750.3671   -47135.046    95.975274    1.0005272 
    8800    269.12112   -88.890862    137696.96   -43359.958    3695.7305   -47055.688    97.213977    1.0010861 
    8900    267.66736   -68.689838    137684.25   -43394.318    3675.7667   -47070.084    98.503254    1.0011785 
    9000    273.35203    98.738197    137508.81    -43330.06    3753.8319   -47083.892    99.709792    1.0024559 
    9100    269.81219   -196.61734    137419.02   -43336.757    3705.2207   -47041.978    101.20857    1.0031109 
    9200    270.09574   -133.93618    137292.29    -43382.82    3709.1146   -47091.934    103.11048    1.0040369 
    9300    267.78233    7.3800501    137378.81   -43372.683    3677.3454   -47050.028    104.72941    1.0034045 
    9400     270.9348   -157.12055    137435.78   -43373.862    3720.6371   -47094.499    105.97585    1.0029886 
    9500    269.87039    -132.6428    137264.75   -43439.813    3706.0199   -47145.833    107.14867    1.0042383 
    9600    267.24242    9.5021878    137263.42   -43489.233    3669.9311   -47159.164    108.16604     1.004248 
    9700    271.55478     156.9862    137543.95   -43409.726    3729.1509   -47138.877    109.78435    1.0021998 
    9800    269.17902   -15.920689    137585.86    -43446.47    3696.5257   -47142.995     111.4264    1.0018945 
    9900       269.45   -32.954875    137516.04    -43324.49     3700.247   -47024.737    112.99025    1.0024032 
   10000    268.80082    -231.2786    137474.24   -43500.533     3691.332   -47191.865     114.2052     1.002708 
   10100    270.23579    56.927235    137483.87   -43428.885    3711.0378   -47139.923    115.44128    1.0026378 
   10200    268.20471   -11.637648    137361.43   -43524.418    3683.1458   -47207.564    116.93926    1.0035315 
   10300    269.76293   -176.98217    137229.99   -43461.077    3704.5443   -47165.621    118.38862    1.0044926 
   10400     268.8257   -200.99197    137327.94   -43360.043    3691.6736   -47051.716    119.64338    1.0037762 
   10500    271.70218   -46.909484    137430.29   -43343.459    3731.1752   -47074.635     120.6489    1.0030287 
   10600    271.87436    79.929891     137514.9   -43313.253    3733.5397   -47046.793    121.93335    1.0024115 
   10700    270.65387   -14.980564    137393.33   -43359.844    3716.7792   -47076.624    122.98041    1.0032985 
   10800    270.80161    83.189102    137411.07   -43292.647    3718.8081   -47011.455    124.63912    1.0031689 
   10900    275.51309    110.34479    137367.89   -43213.715    3783.5088   -46997.223    126.07817    1.0034843 
   11000    273.25474    -56.83025    137468.17    -43258.69    3752.4959   -47011.185    127.74234    1.0027522 
   11100    270.04532   -44.942058    137639.22   -43330.264    3708.4222   -47038.686    129.29419    1.0015061 
   11200    272.50323   -90.064499    137893.86   -43313.959    3742.1756   -47056.135    130.77518    0.9996567 
   11300    270.92177   -96.862635    137716.95   -43379.889     3720.458   -47100.347    131.89674    1.0009408 
   11400    271.52527    33.265166    137544.45   -43366.648    3728.7457   -47095.393    133.01264    1.0021961 
   11500    268.87518   -10.343487    137817.85   -43528.068    3692.3531   -47220.421    134.03976     1.000208 
   11600    266.69428   -1.1781225    137970.71   -43575.396    3662.4038   -47237.799    135.32166   0.99909987 
   11700    272.89218    269.60791     137799.1   -43475.491    3747.5169   -47223.008     136.2587    1.0003441 
   11800    268.92238    -161.8478    137669.53   -43469.313    3693.0013   -47162.314    137.45287    1.0012856 
   11900    266.95513   -95.182546    137444.88   -43530.125    3665.9859   -47196.111    138.54324    1.0029222 
   12000    270.68372   -109.75813    137434.46   -43514.402     3717.189   -47231.591    139.88002    1.0029982 
   12100    267.91985    182.85987    137531.85   -43542.563    3679.2339   -47221.797    141.45026     1.002288 
   12200    272.86309   -48.447979    137687.93   -43361.929    3747.1175   -47109.046    142.81695    1.0011518 
   12300    272.53521    -81.15463    137634.35   -43337.573    3742.6148   -47080.188    144.47381    1.0015415 
   12400     275.4773   -9.1858665    137633.77   -43317.076    3783.0174   -47100.093    145.91829    1.0015457 
   12500    271.19497   -80.507808    137532.51   -43330.812    3724.2099   -47055.022     147.3287    1.0022832 
   12600    274.70537   -70.774397    137501.05   -43374.452    3772.4167   -47146.869    148.84786    1.0025124 
   12700    270.67848    -28.60643    137148.85   -43370.633    3717.1172    -47087.75    150.25089     1.005087 
   12800    263.54685   -12.609598    137293.39   -43396.746    3619.1813   -47015.927    151.50811    1.0040288 
   12900    270.48369    122.10162    137287.39   -43346.704    3714.4422   -47061.146    152.88189    1.0040727 
   13000    272.45561    10.198248    137082.76   -43392.654    3741.5217   -47134.176    154.31073    1.0055715 
   13100    266.50564     148.9922    137145.36   -43370.156    3659.8132    -47029.97    155.59518    1.0051125 
   13200    276.78476    55.661454    137266.86   -43335.591    3800.9722   -47136.563    156.98844    1.0042228 
   13300    271.81697    46.242327    137526.66   -43299.324    3732.7515   -47032.076     158.7254    1.0023258 
   13400    274.25126     58.64501    137620.85   -43363.388    3766.1807   -47129.569    160.00461    1.0016398 
   13500    267.55818   -125.93753    137560.96   -43408.264    3674.2674   -47082.532    161.20893    1.0020758 
   13600    270.50547    127.15361     137526.3   -43409.632    3714.7413   -47124.373     162.4806    1.0023284 
   13700    271.05597   -79.018335    137449.85   -43425.684     3722.301   -47147.985    163.61938    1.0028859 
   13800    265.89531    85.177519    137639.11   -43468.053    3651.4318   -47119.485    164.87662    1.0015069 
   13900    269.24126    76.415712    137759.77   -43494.878    3697.3804   -47192.259    165.79652    1.0006297 
   14000    264.89111   -99.179745    137422.04   -43590.728    3637.6415   -47228.369    166.54336    1.0030889 
   14100    263.30057     37.88845    137358.65   -43559.615    3615.7993   -47175.415    167.67304    1.0035518 
   14200    270.14605   -26.876362    137624.38   -43491.825    3709.8055   -47201.631    169.14656     1.001614 
   14300    268.58525   -156.20456    137589.09   -43521.677    3688.3716   -47210.048    170.44432     1.001871 
   14400    270.01723    51.545888    137574.41   -43505.218    3708.0364   -47213.255    171.54419    1.0019779 
   14500    268.95866   -129.06507    138092.67   -43540.821    3693.4995   -47234.321    173.13207   0.99821745 
   14600    269.00799   -110.21189    137694.81   -43447.177    3694.1769   -47141.354    173.29378    1.0011018 
   14700    268.30959   -19.466193     137598.4   -43422.532     3684.586   -47107.118    174.24278    1.0018032 
   14800    271.09694   -99.951117    137600.17   -43456.169    3722.8636   -47179.033    176.02149    1.0017903 
   14900    269.47544    148.03612    137508.49   -43426.194    3700.5963    -47126.79    177.26173    1.0024582 
   15000     270.1421    132.89441    137364.44   -43471.609    3709.7512    -47181.36    178.51185    1.0035095 
   15100    268.50442    51.418967    137431.89   -43463.561    3687.2616   -47150.823    180.28586     1.003017 
   15200    269.43583   -64.295365    137490.76   -43476.972    3700.0524   -47177.025    181.56647    1.0025875 
   15300    269.19843    10.533686    137533.94   -43439.016    3696.7922   -47135.808    182.64248    1.0022727 
   15400    275.82825   -56.889187    137488.51   -43354.203    3787.8368    -47142.04     183.8878    1.0026039 
   15500     270.6802    2.0956704    137332.69   -43400.214    3717.1407   -47117.355    185.06002    1.0037415 
   15600    270.70031    101.36362    137474.05   -43439.988    3717.4169   -47157.405    186.43621    1.0027093 
   15700    270.53763   -175.22253    137635.89   -43493.624    3715.1829   -47208.807    187.52763    1.0015303 
   15800    268.04525   -199.61472    137379.36   -43472.696    3680.9561   -47153.652    188.58161    1.0034005 
   15900    273.62751    -73.24658    137478.84   -43421.213     3757.615   -47178.828    189.87188    1.0026744 
   16000    269.29381   -104.77468    137727.42   -43476.619     3698.102   -47174.721    191.19945    1.0008647 
   16100    271.88654    -48.81169    137608.31   -43476.044    3733.7068    -47209.75    192.98423     1.001731 
   16200    268.28182    115.08426    137658.51   -43342.139    3684.2047   -47026.344    194.59869    1.0013657 
   16300    269.62516     110.2796    137506.22   -43317.935    3702.6523   -47020.587     196.2576    1.0024748 
   16400    273.12618    69.862103     137561.1   -43303.248    3750.7303   -47053.978    198.66658    1.0020748 
   16500    274.68765    -106.4972    137371.02   -43286.224    3772.1734   -47058.397    199.88481    1.0034614 
   16600     270.0794   -71.080048    137389.58   -43357.167    3708.8902   -47066.057    200.90353    1.0033258 
   16700    265.18742    9.0304545    137311.81   -43366.197    3641.7107   -47007.907    202.21343    1.0038941 
   16800    268.30888      120.546    137742.94   -43367.244    3684.5764   -47051.821    204.41609    1.0007519 
   16900    273.09554   -29.932387    137636.97   -43322.555    3750.3096   -47072.864    205.33301    1.0015225 
   17000    269.44056   -69.113569    137612.72   -43377.632    3700.1173   -47077.749    205.95469     1.001699 
   17100    272.62057    268.62479     137880.2   -43402.786     3743.787   -47146.573    207.28404   0.99975568 
   17200    273.42557   -79.170368    137819.03   -43348.185    3754.8417   -47103.027    209.03947    1.0001994 
   17300    273.34022    159.40351    137967.99   -43283.913    3753.6698   -47037.582    209.96168   0.99911958 
   17400    267.51324   -273.90702    137942.29   -43359.331    3673.6501   -47032.981    210.33758   0.99930572 
   17500    274.27738    136.47244    137501.57   -43360.549    3766.5394   -47127.088    211.17506    1.0025087 
   17600    267.39942   -286.44111    137399.27    -43449.46    3672.0872   -47121.547    211.98013    1.0032551 
   17700    268.38556    27.880444    137330.28   -43450.935    3685.6294   -47136.564    212.78884    1.0037591 
   17800    272.59503   -98.278087    137429.72   -43430.376    3743.4363   -47173.812    214.13123    1.0030328 
   17900    265.08372    33.172883    137660.18   -43479.744    3640.2866   -47120.031    215.86374    1.0013536 
   18000    263.60784     98.53816    137604.31   -43558.471     3620.019    -47178.49    217.37366    1.0017602 
   18100    265.48892    23.899645     137576.5    -43559.04     3645.851   -47204.891    218.46782    1.0019627 
   18200    271.85501    105.28181    137851.73   -43439.604    3733.2739   -47172.878    220.10609   0.99996218 
   18300     268.8273    -165.5851    137882.56   -43502.141    3691.6956   -47193.837    221.65146   0.99973858 
   18400     267.5583    67.128661    137847.89   -43581.069    3674.2689   -47255.338    223.13032   0.99999006 
   18500    267.26445    68.014494    137737.41   -43491.645    3670.2336   -47161.879     223.6573    1.0007921 
   18600    267.76004    102.38554    137704.17   -43480.037    3677.0393   -47157.076    225.52875    1.0010337 
   18700    270.66114    -235.7543    137753.74   -43364.509     3716.879   -47081.388    226.59203    1.0006735 
   18800    271.23223     19.98239    137876.76   -43364.843    3724.7215   -47089.565    227.69791   0.99978068 
   18900    271.64268   -15.606492    137857.32   -43400.338     3730.358   -47130.696    229.00372   0.99992163 
   19000    267.72403   -168.66319    137947.84   -43413.212    3676.5448   -47089.757    231.28458    0.9992655 
   19100    268.92761   -172.34847    137733.27   -43449.408    3693.0731   -47142.481    231.90761    1.0008222 
   19200    270.26491    105.06802    137621.96   -43390.187    3711.4377   -47101.625    233.32745    1.0016317 
   19300    268.35996    -175.8866    137552.46   -43388.413    3685.2778   -47073.691    234.59237    1.0021378 
   19400    269.46629   -84.603184    137522.07   -43399.632    3700.4705   -47100.103    235.31239    1.0023592 
   19500    273.65923   -30.441254    137244.69   -43352.033    3758.0506   -47110.084    235.69235    1.0043851 
   19600    270.42214   -115.14572    137389.46   -43349.524    3713.5969    -47063.12    237.58099    1.0033267 
   19700    271.49271    281.82637    137837.36   -43362.837    3728.2986   -47091.135    239.65546    1.0000664 
   19800     269.8075    97.562703    137916.14   -43343.266    3705.1563   -47048.422    241.34007   0.99949519 
   19900    271.89763   -50.014421    137710.87   -43329.204    3733.8592   -47063.064    242.47816     1.000985 
   20000    272.27269   -281.81876    137600.31   -43286.526    3739.0097   -47025.536    243.83418    1.0017893 
   20100    267.98477   -86.287921    137353.52   -43335.039    3680.1255   -47015.165    245.07115    1.0035892 
   20200    277.23203   -66.544106    137577.56    -43264.38    3807.1144   -47071.494    246.93985     1.001955 
   20300    279.50569    3.0314316    137597.68   -43250.198    3838.3376   -47088.535    248.70392    1.0018084 
   20400    271.38529    74.078997    137561.75   -43325.352    3726.8235   -47052.175    250.12469    1.0020701 
   20500    275.18734   -183.50845    137494.74   -43274.215    3779.0354    -47053.25     251.2465    1.0025585 
   20600    268.10412    -44.14879    137437.37   -43328.659    3681.7645   -47010.423    252.59558    1.0029769 
   20700    267.79892    173.96235    137605.92   -43371.919    3677.5732   -47049.493    253.87606    1.0017484 
   20800    264.63861    18.305757     137629.2   -43401.983    3634.1741   -47036.157    254.98597     1.001579 
   20900     267.6768   -114.46717    137453.55   -43418.327    3675.8963   -47094.223    255.88605    1.0028589 
   21000    276.04611    113.90502    137543.36   -43383.908    3790.8286   -47174.737    257.65476    1.0022041 
   21100    271.36722   -170.69991    137332.43   -43426.764    3726.5752   -47153.339    258.63055    1.0037434 
   21200    262.52964    99.878266    137256.98   -43506.239    3605.2124   -47111.452    259.93556    1.0042952 
   21300    264.67324    -42.79545    137461.26   -43535.059    3634.6496   -47169.709    260.92072    1.0028026 
   21400      269.623    17.908034    137557.84   -43444.273    3702.6227   -47146.895    262.35538    1.0020986 
   21500    272.62752    72.404465    137849.45   -43327.181    3743.8824   -47071.063    264.39176   0.99997875 
   21600    273.41734   -20.365757    138004.14   -43406.782    3754.7287    -47161.51    266.05533   0.99885786 
   21700    269.84421   -91.510629    138121.56    -43371.69    3705.6604    -47077.35    267.48245   0.99800869 
   21800    274.34896   -145.27105    137916.42   -43351.406    3767.5223   -47118.928     268.7145   0.99949314 
   21900    271.06143    51.401241    137958.55   -43355.391     3722.376   -47077.767    270.46287   0.99918796 
   22000    274.15346   -27.598705    137980.47   -43362.165    3764.8376   -47127.003    272.10192   0.99902921 
   22100    274.69709   -8.2354757    137902.36   -43318.306    3772.3031    -47090.61    272.97987   0.99959507 
   22200    268.54687    47.475963    137799.21   -43276.073    3687.8446   -46963.917    273.64516    1.0003433 
   22300    272.96039    156.14454    137760.68   -43305.676    3748.4536    -47054.13    274.66985    1.0006231 
   22400    269.35737   -181.99928    137583.67    -43413.81    3698.9749   -47112.785    275.93113    1.0019105 
   22500    271.22105   -52.728815    137427.38   -43419.461    3724.5679   -47144.029    276.87502    1.0030499 
   22600    272.74858   -14.903118    137567.59   -43417.999    3745.5449   -47163.544    278.45839    1.0020276 
   22700    268.75015   -16.964429    137698.34   -43425.056    3690.6362   -47115.692    279.89924    1.0010761 
   22800     268.3409   -79.239998    137383.97   -43488.228     3685.016   -47173.244    281.10667    1.0033668 
   22900    270.33874   -195.22657    137395.74   -43524.898    3712.4516    -47237.35    282.47742    1.0032808 
   23000    269.25524    152.03429    137626.26   -43377.777    3697.5723   -47075.349    284.34533    1.0016004 
   23100    267.99797    13.772219    137940.72   -43352.277    3680.3067   -47032.584     286.8159   0.99931706 
   23200    269.30965      -44.637    137676.82   -43376.837    3698.3195   -47075.156    288.03045    1.0012326 
   23300    269.24602    7.9076459    137813.46   -43418.572    3697.4457   -47116.018    289.69496    1.0002398 
   23400    269.91089    55.873441    137630.71   -43447.436    3706.5761   -47154.012    290.54323     1.001568 
   23500    265.97992    101.53451    137909.78   -43399.794    3652.5937   -47052.388    292.67569   0.99954127 
   23600    269.79455    30.791142    137868.16    -43456.65    3704.9784   -47161.629    294.18957   0.99984299 
   23700    265.47803   -169.27097    137414.77   -43496.332    3645.7014   -47142.033    296.02392    1.0031419 
   23800    268.62628    22.073872    137481.05   -43477.837    3688.9351   -47166.772    297.89172    1.0026583 
   23900    269.27689    48.917435    137481.31   -43399.614    3697.8696   -47097.484    298.34847    1.0026564 
   24000    270.51707    177.52618    137631.33   -43319.514    3714.9005   -47034.415     300.1219    1.0015635 
   24100    271.73054   -23.884644    137548.02   -43329.405    3731.5646   -47060.969    301.11196    1.0021701 
   24200    272.06755   -7.7240737    137628.18   -43261.319    3736.1926   -46997.511    302.08467    1.0015864 
   24300     267.6377   -67.593438     137806.4   -43341.534    3675.3593   -47016.893    303.94254    1.0002911 
   24400    272.93299    6.8838244    137603.34   -43302.784    3748.0774   -47050.861     304.7498    1.0017672 
   24500    267.22412    218.42615    137834.24   -43369.679    3669.6797   -47039.359    306.86101    1.0000891 
   24600    266.82077    84.590311    137867.34   -43369.934    3664.1408   -47034.075    307.95062   0.99984895 
   24700     272.7484   -61.178185    137789.64   -43336.332    3745.5424   -47081.874    308.83059    1.0004128 
   24800    277.12054   -62.218283     137485.8   -43325.905    3805.5833   -47131.488     309.5974    1.0026237 
   24900    271.67005   -22.425463     137412.4   -43448.889     3730.734   -47179.623     310.8259    1.0031592 
   25000    264.45301    75.192586    137320.48   -43465.756    3631.6252   -47097.382    311.55527    1.0038307 
   25100     269.2333    18.216378    137502.06   -43421.986     3697.271   -47119.257    313.26716    1.0025051 
   25200    269.83844    107.06424    137491.87   -43437.399    3705.5812    -47142.98    315.26637    1.0025794 
   25300    267.71121    203.46199    137696.26   -43474.225    3676.3687   -47150.593    317.13176    1.0010912 
   25400    265.13519    42.372869    137511.68   -43475.338    3640.9934   -47116.332    318.51193    1.0024349 
   25500    263.87669    16.809699    137613.49   -43429.144     3623.711   -47052.855    320.49441    1.0016933 
   25600    271.16117   -103.12648    137520.05   -43450.916    3723.7457   -47174.661    321.61407     1.002374 
   25700    268.77387   -67.673484     137210.7   -43493.306    3690.9619   -47184.268    322.42967    1.0046339 
   25800    265.15734    72.534687     137570.8   -43496.916    3641.2975   -47138.213    324.84515    1.0020042 
   25900    263.52174    182.96544    137441.56   -43608.687    3618.8365   -47227.524    325.94704    1.0029464 
   26000    275.73595    125.14348    137473.63   -43442.829    3786.5693   -47229.398    327.11139    1.0027124 
   26100    265.67994    2.2420177    137355.39   -43486.121    3648.4743   -47134.596    327.63798    1.0035756 
   26200    272.19265    94.749423    137546.07   -43397.842    3737.9106   -47135.753    329.53724    1.0021843 
   26300    276.12752    6.2570203    137706.72     -43347.4    3791.9466   -47139.347     330.5471    1.0010152 
   26400     274.6855   -58.908102    137752.76   -43432.117    3772.1439   -47204.261     331.3126    1.0006806 
   26500    273.25953   -90.671472    137678.07   -43300.437    3752.5616   -47052.998    332.31014    1.0012235 
   26600    265.95473     31.48788     137470.7    -43358.57    3652.2477   -47010.817    333.10221    1.0027338 
   26700    272.48971     91.43069    137375.13    -43337.94    3741.9899    -47079.93    334.57598    1.0034314 
   26800    272.49231   -159.74101    137747.16   -43310.172    3742.0256   -47052.198    336.16231    1.0007213 
   26900    270.49487    94.797427    137410.05   -43377.523    3714.5956   -47092.118    336.81646    1.0031764 
   27000    268.50821   -58.950028    137449.89   -43409.006    3687.3136    -47096.32    338.80887    1.0028856 
   27100    274.63066   -65.391646    137424.28   -43366.504    3771.3907   -47137.894    340.66394    1.0030725 
   27200    267.96483    96.066537    137485.08   -43351.733    3679.8516   -47031.585    341.71939    1.0026289 
   27300     274.1521   -81.722503    137397.73   -43316.235    3764.8189   -47081.054      343.028    1.0032663 
   27400    270.59369    122.87295    137507.37   -43291.512    3715.9527   -47007.464    345.64931    1.0024664 
   27500    272.43578   -10.318121    137197.55   -43348.525    3741.2493   -47089.775    347.32007    1.0047302 
   27600    270.46749    23.905946    137257.74   -43312.283    3714.2197   -47026.503    348.93837    1.0042896 
   27700     270.2193   -90.271853    137146.25   -43322.915    3710.8114   -47033.726    350.40063     1.005106 
   27800     273.5988    121.78202    137320.26   -43304.548    3757.2207   -47061.769    352.03782    1.0038324 
   27900    273.52577    98.313411    137282.91   -43319.985    3756.2177   -47076.203    353.48476    1.0041055 
   28000    274.39842    82.301662    137206.17   -43226.164    3768.2015   -46994.365    354.85769    1.0046671 
   28100    270.73269    196.11421    137243.78   -43288.034    3717.8616   -47005.896     356.1292    1.0043917 
   28200    266.67499    94.438243    137474.08   -43400.692    3662.1388   -47062.831    358.37521    1.0027091 
   28300    268.89411    91.419745    137569.91   -43458.405    3692.6131   -47151.018    360.12709    1.0020107 
   28400    270.65124    17.728048    137600.16   -43325.379    3716.7431   -47042.122    362.03244    1.0017904 
   28500    273.18888   -207.17371    137611.89   -43330.036    3751.5914   -47081.627    363.75369     1.001705 
   28600    272.34646   -94.276522    137743.91   -43391.157    3740.0228    -47131.18    365.02719    1.0007449 
   28700     271.8028   -121.48653    137604.93   -43478.555    3732.5569   -47211.112    366.36503    1.0017557 
   28800    270.65053    90.186767    137413.82   -43439.062    3716.7333   -47155.796    367.74242    1.0031488 
   28900    271.89277    134.00599    137837.47   -43407.611    3733.7924   -47141.404    369.57642    1.0000656 
   29000    266.38405     54.83146    137687.45   -43394.597    3658.1435    -47052.74    370.23039    1.0011553 
   29100    269.41287    4.7854252    137612.68   -43373.729    3699.7369   -47073.465    371.46945    1.0016992 
   29200     269.4857    41.556373    137736.06    -43465.55    3700.7371   -47166.287    373.31868    1.0008019 
   29300    268.16764    114.85983    137795.91   -43487.155    3682.6368   -47169.791    374.81074    1.0003672 
   29400    267.72495    65.533039     137621.5   -43456.869    3676.5574   -47133.427    376.47928    1.0016351 
   29500    268.45095   -106.56571    137438.83   -43463.794    3686.5273   -47150.322    377.19152    1.0029663 
   29600    266.98108   -108.33741    137401.18     -43428.9    3666.3422   -47095.242    378.57413    1.0032412 
   29700    272.93955   -61.449099    137283.89   -43438.249    3748.1674   -47186.417    379.36703    1.0040982 
   29800     274.8881    151.46936     137425.5   -43400.525     3774.926   -47175.451    380.40106    1.0030636 
   29900    271.81775   -74.848566    137639.75   -43330.963    3732.7622   -47063.725     382.5938    1.0015023 
   30000    271.63204   -159.78103    137610.78   -43344.147    3730.2119   -47074.359    384.08818    1.0017131 
   30100    274.78955   -134.04434    137553.25   -43296.583    3773.5728   -47070.156    385.61322     1.002132 
   30200    269.23919    88.516065    137642.41   -43373.237    3697.3519   -47070.589    387.58851    1.0014829 
   30300    272.99117    -126.1723    137720.69   -43290.018    3748.8763   -47038.894    389.26404    1.0009136 
   30400    267.16514     15.94377    137587.42   -43399.743    3668.8699   -47068.613     390.0705    1.0018832 
   30500     271.8466    -150.2697    137579.25   -43416.777    3733.1584   -47149.935    391.44804    1.0019427 
   30600    266.24184   -96.727992     137685.3   -43414.337    3656.1905   -47070.527     392.7199    1.0011709 
   30700    270.52406    0.9836995    137622.24   -43397.753    3714.9965   -47112.749    393.57245    1.0016297 
   30800    272.53718    24.772354     138019.9   -43378.862    3742.6419   -47121.504    396.17847   0.99874376 
   30900    265.83884   -19.550658    137903.92   -43379.552    3650.6563   -47030.209    397.64711   0.99958374 
   31000    274.25524   -67.739573    137673.54   -43326.182    3766.2352   -47092.417    398.30712    1.0012564 
   31100    266.12755    18.963016    137666.17   -43452.941     3654.621   -47107.562    399.54567      1.00131 
   31200    265.46973    12.684564    137569.21   -43483.072    3645.5875    -47128.66    400.60052    1.0020157 
   31300    271.16763     264.7728    137828.22   -43380.786    3723.8344   -47104.621    402.33895    1.0001327 
   31400    267.16796    39.794852    137739.39   -43471.415    3668.9086   -47140.324    403.77997    1.0007778 
   31500    273.08861    1.7007426    137561.63   -43356.488    3750.2144   -47106.703     404.2773     1.002071 
   31600    276.20397    139.01854    137771.34   -43356.995    3792.9964   -47149.991    405.73708    1.0005457 
   31700    270.75603     19.68713    137731.27   -43444.452     3718.182   -47162.634    406.97615    1.0008368 
   31800    268.59778     41.47104    137714.76   -43387.294    3688.5436   -47075.838    408.04883    1.0009568 
   31900    270.17914    67.920497    137508.69   -43366.189    3710.2598   -47076.449    409.44205    1.0024567 
   32000     272.7296    166.88662    137874.48   -43314.878    3745.2843   -47060.163    411.49613   0.99979718 
   32100    270.62181    26.216117    137599.81   -43397.526    3716.3388   -47113.865    412.07643    1.0017929 
   32200    269.53633    239.80374       137539   -43368.862    3701.4325   -47070.295    413.56497    1.0022359 
   32300    271.69343   -39.518338    137494.35   -43434.956     3731.055   -47166.011     414.5504    1.0025613 
   32400    274.33522   -100.28218    137384.84   -43322.949    3767.3336   -47090.283    415.11361    1.0033605 
   32500    271.38468    23.461166    137663.87   -43454.749     3726.815   -47181.564    416.57601    1.0013268 
   32600    268.20466    108.20733    137636.52   -43478.738    3683.1451   -47161.883    417.03778    1.0015257 
   32700    270.12356     82.88076    137684.74   -43444.893    3709.4967   -47154.389    418.78556     1.001175 
   32800    264.12345   -55.729478    137681.39   -43478.225    3627.0995   -47105.325    420.61299    1.0011993 
   32900    265.39171    91.544325    137698.68   -43558.769     3644.516   -47203.285    421.99228    1.0010736 
   33000    263.03952    72.111866    137856.69   -43541.493    3612.2143   -47153.707    423.72494   0.99992621 
   33100    267.97639   -72.625745    137948.72   -43533.426    3680.0103   -47213.436    425.43866   0.99925911 
   33200    270.29226   -26.164265    138166.35   -43463.728    3711.8133   -47175.542    426.86547   0.99768518 
   33300    266.95292     18.52805    137953.52   -43436.524    3665.9555   -47102.479    428.54008   0.99922438 
   33400     270.9697    14.846445    137777.21   -43455.869    3721.1162   -47176.985    429.30132    1.0005031 
   33500    272.80187    180.03295    137918.64   -43374.537    3746.2767   -47120.814    431.38928   0.99947708 
   33600    268.59955   -34.044307    137714.43   -43390.692     3688.568    -47079.26    432.40505    1.0009592 
   33700     269.0349   -115.04661    137614.87   -43420.219    3694.5465   -47114.765    433.03696    1.0016833 
   33800    275.72276    143.55369    137565.72   -43397.057    3786.3882   -47183.445    434.84101    1.0020412 
   33900    268.67658    52.656468    137808.66   -43457.716    3689.6258   -47147.342    436.06369    1.0002747 
   34000    266.62593     141.4147    137655.14   -43431.074     3661.465   -47092.539    436.91604    1.0013903 
   34100    265.03023   -17.049047    137577.35   -43504.356    3639.5519   -47143.908     437.7561    1.0019564 
   34200    274.08417   -26.465915    137652.49   -43471.506    3763.8861   -47235.392    439.00218    1.0014096 
   34300    272.66828   -25.953903     137597.1   -43460.628    3744.4423    -47205.07     440.0231    1.0018126 
   34400    272.10319    120.33478    137693.73    -43389.68    3736.6821   -47126.362    441.83861    1.0011096 
   34500    272.41259   -28.988318    137639.46   -43330.303    3740.9309   -47071.234    443.24424    1.0015043 
   34600    274.98123    11.567985     137597.1   -43350.382     3776.205   -47126.587    444.48466    1.0018126 
   34700    270.37928     213.4077    137709.71   -43433.378    3713.0083   -47146.386    446.74585    1.0009934 
   34800    263.11264   -117.38541    137591.89   -43455.692    3613.2185   -47068.911    449.21419    1.0018506 
   34900    268.14744    73.403797    137833.67   -43389.934    3682.3594   -47072.294     450.7407    1.0000932 
   35000    269.35283    -76.98423    137618.05   -43429.635    3698.9124   -47128.548    451.24924    1.0016601 
   35100    267.93684    45.461808    137582.14   -43379.389    3679.4673   -47058.856    452.78101    1.0019216 
   35200    274.97539   -16.385888    137664.09   -43224.192    3776.1249   -47000.317    454.01848    1.0013252 
   35300    272.97744    118.49427    137677.62   -43295.466    3748.6878   -47044.154    455.01648    1.0012267 
   35400    273.19321    12.175807    137666.55   -43417.311    3751.6509   -47168.962    456.55524    1.0013073 
   35500    269.60254     153.1214    137829.34   -43415.445    3702.3417   -47117.786    458.43015    1.0001246 
   35600    267.00437    197.51033    137641.73   -43434.691    3666.6621   -47101.353    459.63785    1.0014878 
   35700    272.10679    55.460185    137871.99   -43384.637    3736.7315   -47121.368    461.11093   0.99981525 
   35800    271.37679    212.51647    137908.05   -43410.474    3726.7067    -47137.18    462.01141   0.99955383 
   35900    267.10488    101.09594    137583.84   -43369.154    3668.0423   -47037.196    462.49389    1.0019092 
   36000     269.2166   -36.601411    137584.25   -43375.212    3697.0417   -47072.254    463.95267    1.0019062 
   36100    263.63543    116.15893    137633.67     -43402.7    3620.3978   -47023.098    464.97985    1.0015465 
   36200    269.43062   -106.43213    137844.38   -43351.121    3699.9808   -47051.102    468.29786    1.0000155 
   36300    268.34537   -189.83584    137767.79   -43381.349    3685.0775   -47066.426    469.75624    1.0005715 
   36400    277.56544   -50.684238    137717.93   -43313.404     3811.693   -47125.097    471.71008    1.0009337 
   36500    271.75427    93.972135     137826.4    -43269.89    3731.8904    -47001.78    473.63313     1.000146 
   36600    274.17986    86.861163    137755.34   -43335.614    3765.2001   -47100.814    475.80047    1.0006619 
   36700     274.8491   -91.982142    137458.93    -43354.93    3774.3905    -47129.32    476.51246    1.0028196 
   36800    270.73624   -127.29502    137399.85    -43443.93    3717.9102   -47161.841    477.10813    1.0032509 
   36900    271.42658    110.92954    137467.65   -43509.891    3727.3905   -47237.282    478.40329     1.002756 
   37000     268.8696    -239.2438    137602.19   -43434.093    3692.2764   -47126.369    480.50046    1.0017756 
   37100    270.90407    125.51038    137789.14   -43480.595     3720.215    -47200.81    481.77019    1.0004164 
   37200    266.19824     83.43579    137714.14   -43484.169    3655.5918    -47139.76    482.01845    1.0009612 
   37300    265.47993   -104.86531    137536.49   -43436.295    3645.7276   -47082.022    482.58149    1.0022541 
   37400    265.21843   -168.20475    137551.96   -43505.352    3642.1364   -47147.489    484.03474    1.0021414 
   37500    265.71817   -68.396538    137400.73    -43514.63    3648.9992   -47163.629    485.08422    1.0032444 
   37600    271.75504    83.790118    137701.96   -43476.747    3731.9011   -47208.648    486.68168    1.0010498 
   37700     263.7808   -54.662319    137633.36   -43486.648    3622.3941   -47109.042    487.39485    1.0015487 
   37800    268.15512     70.95695    137766.39   -43471.874    3682.4648   -47154.339    489.58464    1.0005816 
   37900    264.63265    64.169058    137593.64   -43522.933    3634.0922   -47157.025    490.69465    1.0018378 
   38000    266.31456   -21.672979    137523.77   -43493.269    3657.1891   -47150.458    492.00269    1.0023469 
   38100     265.4758    77.998555    137215.87   -43538.621    3645.6709   -47184.291    492.15009     1.004596 
   38200    265.30696   -35.802238    137149.88   -43561.779    3643.3522   -47205.131    493.15184    1.0050794 
   38300    266.49991   -16.688203    137239.17   -43569.841    3659.7346   -47229.575    494.19205    1.0044255 
   38400    261.41517   -69.715377    137357.55   -43612.697    3589.9079   -47202.605    495.56324    1.0035598 
   38500    265.22132   -11.708318    137313.14   -43612.701    3642.1762   -47254.877    496.73183    1.0038844 
   38600    265.39385   -201.51067    137322.69    -43512.34    3644.5454   -47156.886    498.06425    1.0038146 
   38700    265.06746   -214.00172    137249.77   -43508.082    3640.0632   -47148.146    499.78511    1.0043479 
   38800    266.71459   -213.66512    137504.13   -43386.056    3662.6826   -47048.739    500.95605      1.00249 
   38900    270.35399    -204.5308    137229.58   -43315.685     3712.661   -47028.346    502.12308    1.0044957 
   39000    272.92301   -92.089066    137214.55   -43365.871    3747.9404   -47113.811    502.98134    1.0046057 
   39100    272.14912    -62.23713    137313.02   -43364.998    3737.3129   -47102.311    504.17828    1.0038852 
   39200    270.57672    2.3497687    137419.47   -43419.078    3715.7196   -47134.798    506.52382    1.0031076 
   39300     271.2755   -112.41095    137591.39   -43377.941    3725.3157   -47103.257    507.60279    1.0018542 
   39400    267.67943     130.3361    137481.05   -43418.194    3675.9323   -47094.126    508.87148    1.0026583 
   39500    274.80975   -57.344033    137515.85   -43365.118    3773.8502   -47138.969    510.42737    1.0024046 
   39600    275.76753   -102.58312    137674.53   -43343.315    3787.0029   -47130.317    512.55284    1.0012492 
   39700    271.05149   -187.42867    137480.99   -43428.255    3722.2394   -47150.495    513.40427    1.0026587 
   39800    271.64825    73.354678    137313.64   -43397.336    3730.4346   -47127.771    513.74068    1.0038807 
   39900    265.90817    69.603319    137247.11   -43564.904    3651.6083   -47216.512    514.85076    1.0043673 
   40000    266.56271    76.905216    137347.48   -43479.052    3660.5969   -47139.649     516.6563    1.0036334 
   40100    266.27054    85.843488     137441.8   -43462.781    3656.5846   -47119.366    518.31883    1.0029446 
   40200    271.83376    91.769373    137506.59   -43410.516    3732.9822   -47143.498    520.35679    1.0024721 
   40300    270.88273    227.90924    137626.21   -43382.453     3719.922   -47102.375    522.00818    1.0016007 
   40400    270.73759   -274.45954    137640.36   -43412.325    3717.9288   -47130.254    523.01464    1.0014978 
   40500    268.07526    48.254751    137460.43   -43448.102    3681.3681    -47129.47    523.95581    1.0028087 
   40600    269.97026    96.629804    137453.41   -43391.455    3707.3915   -47098.846     525.5231    1.0028599 
   40700    266.73374   -157.53712    137292.47   -43407.448    3662.9455   -47070.393    526.03934    1.0040355 
   40800    269.21925    31.160879    137198.42   -43416.252    3697.0781    -47113.33    526.84142    1.0047238 
   40900     271.3825   -116.07715    137110.03    -43446.66    3726.7851   -47173.445    527.32758    1.0053715 
   41000     265.2206   -136.18646    136864.47   -43455.814    3642.1662   -47097.981    527.91536    1.0071754 
   41100    265.72209    85.149576    136832.73   -43454.993     3649.053   -47104.046    528.57375     1.007409 
   41200    275.61237     82.49016    136882.59   -43305.025    3784.8723   -47089.898    530.15962     1.007042 
   41300    264.98142    66.343053    136938.11   -43406.627    3638.8817   -47045.509    531.51368    1.0066337 
   41400    269.71181    242.10504    136994.27   -43403.086    3703.8422   -47106.928    533.17554    1.0062211 
   41500    272.81884    -51.28443    136928.73   -43441.449    3746.5097   -47187.959    534.14227    1.0067027 
   41600     273.5786    137.60232     137275.9   -43354.474    3756.9432   -47111.417    536.41638    1.0041567 
   41700    266.10739   -145.48016    137429.03   -43496.526    3654.3442    -47150.87    538.79341    1.0030378 
   41800    272.46641   -126.10723    137192.24   -43383.631      3741.67   -47125.301    540.31953    1.0047691 
   41900    276.89939    158.85953    137513.49   -43334.694    3802.5463    -47137.24    541.93077    1.0024218 
   42000    274.26947     10.87779    137733.85   -43389.978    3766.4307   -47156.408    543.57928     1.000818 
   42100     267.2368   -207.52506    137609.01   -43417.312     3669.854   -47087.166    544.60318     1.001726 
   42200    272.01282    101.67132    137574.33   -43342.923    3735.4411   -47078.364    545.33181    1.0019785 
   42300    273.61237      -43.615     137603.4   -43417.976    3757.4071   -47175.383    547.02124    1.0017668 
   42400     262.4224   -22.271148    137589.96   -43440.921    3603.7397    -47044.66    547.59433    1.0018647 
   42500    267.23986   -152.92262    137631.36   -43425.672    3669.8959   -47095.568    548.77528    1.0015633 
   42600     267.0772   -104.85364    137119.09   -43448.149    3667.6622   -47115.812    549.00341    1.0053051 
   42700    269.75009    108.06075     137165.3   -43474.508    3704.3679   -47178.876     550.9291    1.0049664 
   42800    264.47286    63.873747    137155.44    -43538.53    3631.8978   -47170.428     553.5771    1.0050386 
   42900    269.96871    53.024163    137186.64   -43483.161    3707.3702   -47190.532    555.52966    1.0048101 
   43000    267.22213     157.2176    137387.65   -43407.601    3669.6524   -47077.254    557.43552      1.00334 
   43100    271.68961   -107.61678    137260.62    -43427.23    3731.0025   -47158.233    558.64545    1.0042685 
   43200    272.73619   -122.10643    137354.14    -43440.71    3745.3747   -47186.085    560.09268    1.0035848 
   43300    268.05743   -43.029371    137437.52   -43428.248    3681.1234   -47109.371    562.13035    1.0029759 
   43400    268.55056    8.0658297     137517.8   -43493.249    3687.8953   -47181.144    562.99352    1.0023904 
   43500    273.96742   -4.3678119    137624.76   -43457.182    3762.2828   -47219.465    564.61436    1.0016113 
   43600    268.23364   -92.300207    137728.71   -43469.426    3683.5432   -47152.969    566.32063    1.0008554 
   43700    268.15325   -32.587555    137410.02   -43449.792    3682.4392   -47132.232    567.89803    1.0031766 
   43800    267.20598    90.906003     137380.9   -43376.511    3669.4306   -47045.942    568.89562    1.0033892 
   43900    271.57132    19.039339    137359.79   -43454.873    3729.3782   -47184.251    569.50538    1.0035434 
   44000    270.83266   -40.009176    137438.76   -43377.229    3719.2344   -47096.464    570.92775    1.0029668 
   44100    270.06448    92.381974    137350.32   -43343.336    3708.6853   -47052.021    572.80083    1.0036127 
   44200    267.55173    -92.95491    137375.69   -43378.678    3674.1787   -47052.857     574.9258    1.0034273 
   44300    264.12101   -6.5124202    137262.86   -43461.618     3627.066   -47088.684    575.45065    1.0042521 
   44400    270.93407   -99.243634    137268.84   -43428.824    3720.6271   -47149.451    577.26938    1.0042083 
   44500    270.39105   -145.10107    137243.67   -43488.441    3713.1699   -47201.611    578.13178    1.0043925 
   44600    264.36194   -194.81976    137124.44   -43498.919    3630.3746   -47129.294    578.79951    1.0052658 
   44700    265.83703    87.620176    137312.01    -43551.17    3650.6314   -47201.801     581.1297    1.0038926 
   44800    264.67619    124.58463    137430.19   -43451.949    3634.6901   -47086.639    582.94241    1.0030294 
   44900    270.57057   -2.2318524     137624.1   -43454.606    3715.6352   -47170.241     585.5546    1.0016161 
   45000    265.28527    39.595043    137825.75   -43479.849    3643.0543   -47122.903    588.28401    1.0001507 
   45100    270.13212     168.1487    137859.32   -43477.025    3709.6142   -47186.639    589.57102   0.99990712 
   45200    266.77897    -49.42926    137878.55   -43506.719    3663.5668   -47170.286    591.88542    0.9997677 
   45300    267.57465   -14.809444    137573.02   -43476.198    3674.4935   -47150.691    592.38423     1.001988 
   45400    265.96323   -115.39206     137453.4   -43517.842    3652.3644   -47170.206    593.89818      1.00286 
   45500     269.3459      105.435    137415.12   -43425.261    3698.8174   -47124.079    595.25016    1.0031393 
   45600    271.52864    130.38769    137599.09   -43443.427    3728.7921   -47172.219    596.45902    1.0017982 
   45700    269.70566   -137.19377    137513.47    -43452.35    3703.7578   -47156.108    597.63909    1.0024219 
   45800    271.34061    -66.19936    137324.44   -43353.051    3726.2098   -47079.261     598.0613    1.0038017 
   45900     268.2269    150.01147    137446.43   -43392.778    3683.4506   -47076.229    600.42116    1.0029109 
   46000    269.16894    145.13182    137593.81   -43409.036    3696.3872   -47105.424     602.2625    1.0018366 
   46100    271.37927    51.382256     137533.8   -43426.791    3726.7408   -47153.532    602.91354    1.0022737 
   46200      274.034    88.959921    137636.37    -43419.29    3763.1971   -47182.487    605.29196    1.0015268 
   46300    268.86562    37.784846    137694.18   -43409.997    3692.2219   -47102.219    606.86182    1.0011064 
   46400    269.51279    1.8281164    137498.65    -43389.12    3701.1091   -47090.229    607.07648    1.0025299 
   46500    268.10075    188.21885    137626.02    -43385.38    3681.7182   -47067.098    609.12533    1.0016021 
   46600    276.38415    39.166271    137576.03   -43335.843    3795.4707   -47131.314    610.40611    1.0019661 
   46700    270.71578    163.37731    137667.91   -43310.938    3717.6293   -47028.567      612.859    1.0012974 
   46800    271.73344    28.978598    137728.65   -43242.174    3731.6045   -46973.779    615.65667    1.0008558 
   46900    271.64036    193.24964    137697.96   -43268.097    3730.3262   -46998.423    617.72199    1.0010789 
   47000     270.4008   -69.161367    137658.81   -43326.098    3713.3038   -47039.402    619.67384    1.0013636 
   47100      274.129    136.66536    137575.94   -43322.815    3764.5016   -47087.316    620.08883    1.0019668 
   47200    271.51259   -34.546158    137609.42    -43324.98    3728.5716   -47053.552    622.16803     1.001723 
   47300    267.56587    69.490253    137491.45    -43313.51    3674.3728   -46987.883    623.05908    1.0025824 
   47400    274.36825   -3.7957628    137700.22   -43217.673    3767.7872    -46985.46    625.02089    1.0010624 
   47500     265.5662    11.220214    137755.26   -43291.994    3646.9123   -46938.906    626.23181    1.0006625 
   47600    270.70153   -143.08366    137534.67   -43235.222    3717.4337   -46952.656    626.28637    1.0022674 
   47700    271.06839    147.45471    137367.47   -43282.856    3722.4716   -47005.328    626.65942    1.0034874 
   47800     267.1066   -142.15579    136958.66   -43343.525     3668.066   -47011.591    625.98744    1.0064827 
   47900    272.74453   -104.79017    137087.16   -43315.752    3745.4894   -47061.242    628.22256    1.0055392 
   48000    269.66873    79.699092    137067.38    -43404.26    3703.2506    -47107.51    629.58593    1.0056844 
   48100    267.26336   -122.61577    137374.18   -43406.521    3670.2187   -47076.739    631.96918    1.0034383 
   48200    268.18717   -106.63236     137216.9   -43381.021    3682.9049   -47063.926    633.28279    1.0045885 
   48300    270.70144    122.42613    137237.71   -43323.393    3717.4324   -47040.826    634.43934    1.0044361 
   48400    270.26506   -58.574916    137369.33   -43294.491    3711.4397   -47005.931    637.26008    1.0034737 
   48500    266.72175    -1.524391    137360.55   -43383.533     3662.781   -47046.314    638.41988    1.0035379 
   48600    269.82655   -50.011196    137415.12   -43418.445    3705.4179   -47123.862    640.66013    1.0031394 
   48700    266.97794    43.545913     137349.8   -43476.636    3666.2992   -47142.935    641.19556    1.0036164 
   48800    265.67763   -10.057756    137336.48   -43475.758    3648.4424   -47124.201    640.78414    1.0037138 
   48900    269.67407   -42.468118    137319.92   -43398.302     3703.324   -47101.626    641.70396    1.0038348 
   49000    272.04758     37.87235    137319.26   -43390.226    3735.9184   -47126.145    643.53624    1.0038396 
   49100    271.57702   -70.148096    137499.61   -43412.961    3729.4564   -47142.417     644.9954     1.002523 
   49200    264.47838   -140.09183    137301.88   -43511.462    3631.9737   -47143.435    645.93243    1.0039667 
   49300    266.93134     60.57993    137393.79   -43517.818    3665.6591   -47183.477    646.69636    1.0032951 
   49400    270.67345    66.103166     137599.5   -43424.397     3717.048   -47141.445    648.35736    1.0017952 
   49500    272.14147     -150.869    137445.57    -43397.86    3737.2078   -47135.068    649.01798    1.0029171 
   49600    270.08128   -54.296906    137255.22   -43430.524     3708.916   -47139.439    649.43777     1.004308 
   49700    270.31029    192.76178     137285.1   -43406.355    3712.0609   -47118.415    650.96018    1.0040894 
   49800    272.26039   -83.383904    137393.01   -43380.908    3738.8409   -47119.749    653.17152    1.0033008 
   49900    267.42698   -204.17591    137369.92   -43456.301    3672.4656   -47128.767    653.86805    1.0034694 
   50000    267.39911    109.35964    137225.23   -43504.859    3672.0828   -47176.941    654.86354    1.0045275 
   50100    264.16635    96.113578     137527.1   -43524.811    3627.6887     -47152.5    656.98042    1.0023226 
   50200    266.30791   -18.892698    137610.32   -43510.513    3657.0978   -47167.611    658.36849    1.0017164 
   50300    269.08463    54.478775    137373.81   -43466.498    3695.2293   -47161.727    658.76152     1.003441 
   50400    265.48323    31.294848    137597.11   -43460.325    3645.7729   -47106.098    661.45744    1.0018126 
   50500     267.4855    53.250151    137912.19   -43494.217    3673.2692   -47167.487    663.40476   0.99952383 
   50600    268.49409    219.89638    137918.57   -43460.839    3687.1198   -47147.959    664.13061   0.99947754 
   50700    270.48492   -77.581549    138031.08    -43393.75    3714.4591   -47108.209    666.36263   0.99866286 
   50800    271.06907   -73.189457    137766.06   -43373.992    3722.4809   -47096.473    665.51725     1.000584 
   50900    273.84282   -96.214213    137868.11   -43375.373    3760.5716   -47135.944    666.91122   0.99984335 
   51000    269.15599    75.993839    137653.77    -43455.39    3696.2093   -47151.599    667.04108    1.0014003 
   51100    269.45586     92.51105    137474.26   -43435.943    3700.3273   -47136.271    667.59403    1.0027078 
   51200     274.3151      38.0987    137585.82   -43342.563    3767.0573    -47109.62    668.95476    1.0018948 
   51300    273.28343   -71.896117    137584.64   -43275.115    3752.8898   -47028.005    669.46208    1.0019034 
   51400    271.79309    163.79184    137630.57   -43471.584    3732.4236   -47204.008    670.38724     1.001569 
   51500    268.94783    12.207461    137536.22   -43509.539    3693.3508    -47202.89    671.20431    1.0022561 
   51600    265.13648     -77.4522    137605.03   -43512.181     3641.011   -47153.192    672.59409    1.0017549 
   51700    268.15388   -94.848726     137347.9   -43463.323    3682.4477   -47145.771    672.48517    1.0036303 
   51800    266.30096   -91.024427    137027.63   -43518.169    3657.0025   -47175.171    672.29187    1.0059761 
   51900    260.49478    49.881924    137110.48   -43517.381    3577.2685    -47094.65    674.65889    1.0053682 
   52000    268.95351     81.95513    137075.36   -43480.303    3693.4288   -47173.732    675.88716    1.0056258 
   52100    264.39116   -36.409309    137138.37   -43509.448    3630.7759   -47140.224    678.06512    1.0051637 
   52200    266.62568    122.82443    137266.59    -43515.98    3661.4617   -47177.441    679.43288    1.0042248 
   52300    272.68117   -71.712977    137522.28   -43444.962    3744.6192   -47189.581    681.12364    1.0023577 
   52400    271.60065   -8.7951734    137635.58   -43355.732    3729.7809   -47085.513     681.9091    1.0015326 
   52500    272.90127   -54.323447    137702.16   -43396.802    3747.6417   -47144.443     683.8727    1.0010483 
   52600    271.62818   -170.77153    137509.08   -43487.965     3730.159   -47218.125    685.10028    1.0024539 
   52700    267.26159    62.250624     137572.1    -43474.79    3670.1943   -47144.984    686.50857    1.0019947 
   52800     267.2947   -30.422173    137577.22    -43564.28    3670.6491   -47234.929    687.32509    1.0019575 
   52900    262.83882   -28.982025    137646.42   -43589.754    3609.4583   -47199.212    687.98695    1.0014537 
   53000    261.73094   -24.303275    137413.34   -43650.955    3594.2442     -47245.2    688.23153    1.0031523 
   53100    266.73723     80.38246    137522.68   -43629.001    3662.9935   -47291.994    688.69649    1.0023548 
   53200    266.54589   -82.580541    137751.16   -43485.633    3660.3659   -47145.999    689.91987    1.0006923 
   53300    264.52479    68.498847    137729.09   -43489.368     3632.611   -47121.979    691.16326    1.0008526 
   53400    268.75392   -147.52397    137935.94   -43410.356    3690.6878   -47101.044    692.59274   0.99935167 
   53500    272.82095   -96.317192    137933.04   -43345.115    3746.5387   -47091.654     693.8354   0.99937274 
   53600    275.14861    85.042081    137678.23   -43334.884    3778.5035   -47113.388    694.90788    1.0012223 
   53700    273.17197   -48.837206    137634.43   -43356.745    3751.3591   -47108.104    694.90634     1.001541 
   53800    267.72711    26.997164    137417.61   -43483.082    3676.5872   -47159.669    694.90686    1.0031212 
   53900     268.4365    26.920975    137281.21   -43538.885    3686.3289   -47225.213    695.55083    1.0041179 
   54000    269.24909   -52.215146    137491.19   -43459.326    3697.4878   -47156.814    697.40501    1.0025844 
   54100    265.11066   -45.592722    137399.81    -43453.88    3640.6565   -47094.536    698.59791    1.0032511 
   54200     264.4213   -269.89106    137264.03    -43380.14    3631.1898    -47011.33    699.36532    1.0042435 
   54300    268.95123   -186.82526    137341.55    -43389.43    3693.3975   -47082.828    700.36574    1.0036767 
   54400    268.83809    35.100137    137378.25   -43458.676    3691.8438    -47150.52    702.21282    1.0034086 
   54500    266.53559     187.1078    137603.66   -43439.531    3660.2245   -47099.756    704.51457    1.0017649 
   54600     267.9518    -47.92898    137495.65   -43435.673    3679.6727   -47115.346    706.31446    1.0025518 
   54700    266.96948   -108.52764    137564.07   -43442.138    3666.1829   -47108.321    707.20086    1.0020532 
   54800    271.79813    78.785707     137489.1   -43438.804    3732.4928   -47171.297    708.09318    1.0025996 
   54900    270.31547   -273.04077    137427.95   -43386.293    3712.1321   -47098.425      708.752    1.0030457 
   55000    278.93298   -9.6318465    137393.85   -43339.094    3830.4728   -47169.567    710.42618    1.0032946 
   55100    269.84466   -165.54867    137512.87   -43370.266    3705.6666   -47075.932    712.08502    1.0024263 
   55200    268.18243     107.8966    137592.51   -43429.896    3682.8398   -47112.736    713.73137    1.0018461 
   55300    273.00721    10.715164    137736.98   -43364.716    3749.0967   -47113.813     714.4311    1.0007952 
   55400     274.0615    -32.76779    137577.35   -43358.498    3763.5747   -47122.072    715.24339    1.0019565 
   55500    273.59692    54.199844    137615.21   -43368.651    3757.1948   -47125.846    716.52766    1.0016808 
   55600    271.57215   -69.005193    137578.38   -43362.776    3729.3895   -47092.166    717.59749     1.001949 
   55700    268.84581    72.430192    137548.51   -43351.711    3691.9497   -47043.661    719.57301    1.0021665 
   55800     264.1234     55.53639    137732.34   -43448.665    3627.0989   -47075.763    722.45411     1.000829 
   55900    266.79589   -144.19661    137471.57   -43505.038    3663.7991   -47168.837    722.75568    1.0027275 
   56000    267.81074    19.848955    137379.64    -43560.02    3677.7356   -47237.755    723.41902    1.0033984 
   56100    268.24935    -25.85303    137403.32   -43494.928    3683.7588   -47178.687    724.45305    1.0032256 
   56200    271.81078    -217.0238    137379.74   -43518.356    3732.6666   -47251.022    724.89391    1.0033977 
   56300    270.18343    53.709728     137385.6   -43449.951    3710.3188    -47160.27    726.36789    1.0033549 
   56400    270.77777   -140.35418    137613.71   -43441.469    3718.4806   -47159.949    728.06236    1.0016917 
   56500    267.08922    1.4408835    137583.08   -43411.997    3667.8273   -47079.825     729.1721    1.0019147 
   56600    272.56928    121.73402     137545.9   -43386.349    3743.0827   -47129.431     730.3541    1.0021856 
   56700      270.598   -42.179689    137404.37    -43361.95    3716.0119   -47077.961    730.29548    1.0032179 
   56800    270.20552   -34.438502    137598.79   -43303.399    3710.6222   -47014.022     731.8952    1.0018003 
   56900    271.15824   -101.71845    137662.59   -43407.206    3723.7055   -47130.911    733.87976    1.0013361 
   57000    272.14555   -4.2046276    137723.77   -43471.289    3737.2637   -47208.552    736.60822    1.0008913 
   57100    265.04414   -112.47969    137678.41   -43512.499     3639.743   -47152.242    737.67136     1.001221 
   57200    264.64792    133.39577    137623.77   -43589.374    3634.3019   -47223.676    739.39393    1.0016185 
   57300    266.93786   -171.97255    137602.45   -43594.601    3665.7487    -47260.35    740.77137    1.0017737 
   57400    266.47225   -38.835515     137739.6   -43547.937    3659.3547   -47207.292    742.95807    1.0007762 
   57500    268.43355   -157.40031    137954.97    -43513.12    3686.2884   -47199.409    745.62486   0.99921386 
   57600    264.77437    88.010592    137691.11   -43552.058    3636.0384   -47188.096    745.53999    1.0011286 
   57700    264.41777   -78.436965    137508.86   -43543.688    3631.1413   -47174.829    747.04946    1.0024555 
   57800    268.84372    319.24661    137630.35   -43424.578     3691.921   -47116.499    748.60144    1.0015706 
   57900    269.49241     105.6098    137697.68   -43492.506    3700.8293   -47193.335    750.39643    1.0010809 
   58000    263.72318   -152.90023    137505.07   -43551.679    3621.6028   -47173.281    751.86623    1.0024832 
   58100    267.93153    71.433293    137522.58   -43444.491    3679.3943   -47123.885    754.25895    1.0023555 
   58200    266.29287   -107.95748    137550.45   -43485.262    3656.8913   -47142.153     755.3208    1.0021524 
   58300    268.65681     7.240467    137435.79   -43521.465    3689.3543   -47210.819    755.87026    1.0029885 
   58400    266.44381   -28.273454    137742.31    -43446.07     3658.964   -47105.035    758.30982    1.0007566 
   58500    266.72599   -91.206208     137587.8   -43400.683    3662.8391   -47063.522    757.95629    1.0018804 
   58600    267.77946    76.686333    137413.64   -43431.658    3677.3061   -47108.964     758.7565    1.0031502 
   58700    270.27131   -170.36018    137783.28   -43404.342    3711.5256   -47115.867    760.93487     1.000459 
   58800    269.02743     36.01338    137761.28   -43386.228    3694.4439   -47080.671    761.87642    1.0006187 
   58900    272.12237    97.777176       138208     -43307.4    3736.9455   -47044.346    764.48669   0.99738453 
   59000    268.00917    15.501722    137981.06   -43423.977    3680.4606   -47104.438     764.7394    0.9990249 
   59100    272.33101   -105.24966    137709.97   -43469.416    3739.8107   -47209.227    764.95125    1.0009915 
   59200    264.29708    105.41595    137664.59   -43449.795     3629.484   -47079.279    765.99666    1.0013215 
   59300    269.82469   -113.79757    137705.25   -43481.265    3705.3923   -47186.657     766.7751    1.0010259 
   59400    271.66143   -113.10737    137810.58   -43424.985    3730.6155     -47155.6    769.27425    1.0002608 
   59500    266.80709    182.69409    137656.63   -43450.063    3663.9529   -47114.016    770.23641    1.0013795 
   59600    270.29222   -115.29568    137498.35   -43363.388    3711.8127   -47075.201    769.74135    1.0025321 
   59700    273.53096   -4.8709509     137713.8    -43419.05    3756.2891   -47175.339     771.9772    1.0009637 
   59800    267.59743    133.40875    137978.89   -43421.242    3674.8063   -47096.048    775.16887   0.99904062 
   59900    268.92401   -166.31865    138121.16   -43520.422    3693.0236   -47213.445    776.88632   0.99801161 
   60000    269.91518    21.466532    137737.32   -43504.133     3706.635   -47210.768    776.32148    1.0007928 
   60100    268.29017    197.30016    137834.89   -43460.393    3684.3195   -47144.713    777.24084    1.0000844 
   60200    264.02479    22.740466    137800.22   -43555.297    3625.7448   -47181.042    778.96152     1.000336 
   60300    267.07828   -33.505467    137650.83   -43485.408     3667.677   -47153.085    779.56011    1.0014216 
   60400    265.89919   -58.337579    137437.55    -43446.48     3651.485   -47097.965    779.28883    1.0029756 
   60500    263.68576    26.251297    137145.13   -43522.628    3621.0889   -47143.717    779.30346    1.0051142 
   60600    271.74827     68.67877    137209.22   -43493.156    3731.8081   -47224.964    780.39911    1.0046447 
   60700    264.18178   -35.491383    137319.14   -43441.602    3627.9005   -47069.503    782.14199    1.0038405 
   60800    265.42885    28.470426     137235.1   -43415.341     3645.026   -47060.367    782.46087    1.0044553 
   60900    269.09678    84.570676    137387.28   -43379.201    3695.3963   -47074.597    783.88235    1.0033426 
   61000    269.60599   -4.2389977    137290.59   -43310.094    3702.3891   -47012.483    785.08512    1.0040493 
   61100    272.55744   -101.25906     137383.9   -43272.353    3742.9201   -47015.273     786.3798    1.0033674 
   61200    271.40188   -429.85577    137082.55   -43341.516    3727.0513   -47068.568    787.19161     1.005573 
   61300    275.07705    222.48745    137244.82   -43302.252    3777.5209   -47079.773    788.43278    1.0043841 
   61400    279.50134    100.51473    137527.26   -43175.295    3838.2778   -47013.573     791.3823    1.0023214 
   61500    275.21949   -119.53171    137251.39    -43214.16    3779.4769   -46993.637    791.73858    1.0043361 
   61600    274.17811   -43.540292    137351.13   -43297.715    3765.1761   -47062.891    793.04562    1.0036067 
   61700    267.13739    126.67519    137305.34   -43340.248    3668.4888   -47008.737    793.43259    1.0039414 
   61800    269.00489    -54.36875    137334.13    -43372.62    3694.1344   -47066.754    794.83484     1.003731 
   61900    268.03837   -60.372121    137314.38   -43293.282    3680.8615   -46974.143    796.17687    1.0038753 
   62000    267.49903    54.720041    137224.59   -43351.443     3673.455   -47024.898    797.29431    1.0045322 
   62100    269.16168    28.830086    137508.03   -43362.116    3696.2875   -47058.403    798.91469    1.0024615 
   62200    265.82977    173.13659    137745.66    -43391.05    3650.5318   -47041.581     800.5996    1.0007322 
   62300    268.77755   -96.599257    137904.21   -43364.092    3691.0123   -47055.104    802.20605   0.99958161 
   62400    272.97176   -86.008491    137673.57    -43458.54    3748.6098    -47207.15    801.69471    1.0012562 
   62500    271.31692   -231.88941    137532.53   -43450.003    3725.8846   -47175.887    802.49841     1.002283 
   62600    270.54468   -93.853097    137570.28    -43414.42    3715.2797     -47129.7    803.85944    1.0020079 
   62700     268.9894   -127.59311    137672.33   -43410.499    3693.9216   -47104.421    806.71291    1.0012652 
   62800    272.11751   -59.740257    137411.77   -43452.907    3736.8787   -47189.786    806.26247    1.0031638 
   62900    266.34485     3.437945    137452.46   -43412.391    3657.6052   -47069.996    808.11245    1.0028669 
   63000    267.06165   -31.165305       137530   -43418.157    3667.4486   -47085.605    810.70302    1.0023014 
   63100    266.93654   -75.873218    137451.32   -43420.094    3665.7305   -47085.824    812.05099    1.0028752 
   63200    270.12274    178.32119    137622.77   -43405.909    3709.4854   -47115.394    814.49058    1.0016258 
   63300    262.53251    -31.96591    137505.43   -43527.747    3605.2518   -47132.999    814.69392    1.0024806 
   63400    265.17412   -3.3366113    137425.08   -43586.853    3641.5279   -47228.381    814.82458    1.0030667 
   63500    269.19741   -8.0846583    137428.76   -43491.324    3696.7782   -47188.103    815.85259    1.0030398 
   63600    267.29521    54.074589    137493.46   -43488.588     3670.656   -47159.244     817.8403    1.0025678 
   63700    265.16571    147.79147    137600.01   -43505.028    3641.4125    -47146.44    820.09698    1.0017915 
   63800    270.65825   -74.181049    137440.87    -43513.37    3716.8393   -47230.209    821.42099    1.0029514 
   63900    266.42182    78.825675    137758.35   -43479.359    3658.6621   -47138.021    824.40568      1.00064 
   64000     267.4753    23.101546    137589.63   -43538.741    3673.1291    -47211.87     825.3643     1.001867 
   64100    270.24289   -38.273008    137717.74   -43534.373    3711.1353   -47245.509     826.9047    1.0009351 
   64200    261.78931    186.53699    137630.11   -43491.936    3595.0457   -47086.982     828.4022    1.0015724 
   64300    268.86738   -73.856906    137506.78   -43533.147     3692.246   -47225.393    828.75761    1.0024707 
   64400     265.7551   -190.31299    137496.79   -43533.678    3649.5064   -47183.185    830.57881    1.0025435 
   64500    263.87627   -33.849131    137188.32   -43552.091    3623.7051   -47175.796    831.78545    1.0047978 
   64600    263.06685   -161.82975    137108.57   -43491.429    3612.5897   -47104.018    833.19123    1.0053822 
   64700    268.84644    -57.08742    136807.59   -43408.808    3691.9584   -47100.766    833.24605    1.0075941 
   64800    271.23132    161.23836    136798.28   -43347.703     3724.709   -47072.412    835.22039    1.0076627 
   64900    269.74263    59.619146     137030.4   -43359.253    3704.2654   -47063.518    837.41922    1.0059557 
   65000    277.52191    67.081692    136937.63   -43370.844    3811.0951   -47181.939    838.81633    1.0066372 
   65100    268.47631    33.489041    137382.16   -43478.994    3686.8756   -47165.869    842.83271      1.00338 
   65200    267.03078   -53.424642    137375.13   -43482.609    3667.0247   -47149.634    844.54074    1.0034314 
   65300     263.2695   -96.005162    137497.43   -43506.682    3615.3726   -47122.055    846.25818    1.0025389 
   65400    267.37746   -36.190257    137710.87     -43535.2    3671.7855   -47206.986    847.67746     1.000985 
   65500    270.20048    -8.407879    137587.28   -43439.627     3710.553    -47150.18    847.98159    1.0018841 
   65600    271.25516   -60.618039    137540.01   -43389.654    3725.0365    -47114.69    849.98447    1.0022285 
   65700    274.24105    145.41491    137457.25   -43381.962    3766.0404   -47148.003    851.21035    1.0028319 
   65800     267.8625   -55.788521    137609.35   -43433.313    3678.4464    -47111.76    853.89834    1.0017235 
   65900    268.23652    174.15748    137519.02   -43407.502    3683.5827   -47091.085    853.92829    1.0023815 
   66000     267.7538   -94.204874    137719.36   -43420.112    3676.9537   -47097.065    855.66342    1.0009233 
   66100     268.0358    243.90739    137655.99   -43442.261    3680.8263   -47123.087    857.14509    1.0013841 
   66200    268.67741   -68.130931    137786.16   -43399.656    3689.6372   -47089.293    859.31029    1.0004381 
   66300    269.69011   -13.258746    137926.16   -43372.405    3703.5442   -47075.949     861.3132   0.99942254 
[...]
   84600    264.01111    133.35714    137541.14   -43470.527    3625.5568   -47096.084    1105.0046    1.0022203 
   84700    269.92609     -120.859    137567.74   -43481.084    3706.7849   -47187.869    1106.7056    1.0020265 
   84800    265.04571   -105.18566    137675.76   -43440.985    3639.7645    -47080.75     1108.647    1.0012403 
   84900    273.51883    52.132568    137548.16   -43386.724    3756.1225   -47142.846    1109.2871    1.0021691 
   85000    267.22562   -78.180339    137467.83   -43406.429    3669.7005    -47076.13     1110.468    1.0027547 
   85100    267.93881   -24.449161    137687.38   -43415.266    3679.4944    -47094.76    1112.6886    1.0011558 
   85200    272.26165     171.6033    137477.07   -43420.513    3738.8582   -47159.371    1113.1714    1.0026874 
   85300    271.00559    90.265167    137439.26    -43413.03    3721.6091   -47134.639    1112.4947    1.0029632 
   85400    269.60559    37.866824    137496.15   -43394.539    3702.3836   -47096.923    1114.5446    1.0025482 
   85500    268.98222    25.302272    137137.08   -43449.583    3693.8231   -47143.406    1113.7134    1.0051732 
   85600    272.05908   -130.77558    137053.67   -43388.337    3736.0764   -47124.413    1113.9708    1.0057849 
   85700    269.92572    152.94834     137106.9   -43412.971    3706.7798   -47119.751    1114.3481    1.0053945 
   85800    266.02407   -45.551286    137422.89   -43420.914    3653.1999   -47074.114    1116.9304    1.0030827 
   85900    267.57121    74.286313    137544.01   -43438.436    3674.4463   -47112.882    1118.3963    1.0021993 
   86000    270.77982   -41.566583    137576.65   -43417.654    3718.5088   -47136.163    1119.3236    1.0019616 
   86100    269.94436    175.47883    137530.39   -43434.171    3707.0358   -47141.207    1119.2646    1.0022986 
   86200    269.42787   -21.937797     137604.7   -43448.421     3699.943   -47148.364    1121.1795    1.0017573 
   86300    270.15687    45.579984    137884.58   -43473.226     3709.954    -47183.18    1123.3661   0.99972396 
   86400    269.30364   -142.84867    137831.07   -43439.291     3698.237   -47137.528    1124.5792     1.000112 
   86500    270.37221   -105.92252    137691.16   -43438.933    3712.9113   -47151.845    1124.3706    1.0011283 
   86600    269.23881   -9.7244047    137654.43   -43451.902    3697.3467   -47149.248    1124.5525    1.0013954 
   86700    267.89597    127.20823    137590.62   -43453.501     3678.906   -47132.407    1125.7655    1.0018599 
   86800    266.84441   -28.445218    137538.55   -43403.668    3664.4653   -47068.133    1127.2731    1.0022391 
   86900    270.31384   -3.4577653    137465.69   -43406.561    3712.1097   -47118.671    1129.0631    1.0027703 
   87000    267.94347     76.78181    137530.33   -43456.228    3679.5583   -47135.786    1130.6084     1.002299 
   87100    266.26318    89.491984    137408.91   -43496.547    3656.4835    -47153.03    1132.1796    1.0031847 
   87200    267.24403    96.995911    137581.95   -43516.943    3669.9533   -47186.897    1134.9485     1.001923 
   87300    271.60306    87.610029    137697.21   -43373.943    3729.8139   -47103.757    1137.4941    1.0010843 
   87400    270.38178    68.603606    137831.23   -43387.826    3713.0426   -47100.868    1140.5267    1.0001109 
   87500    269.04584   -32.928566    137738.51   -43483.553    3694.6967   -47178.249    1141.7659    1.0007842 
   87600    269.19387   -76.539467    137861.39   -43463.844    3696.7296   -47160.574    1144.2916   0.99989215 
   87700    267.71647   -131.96714    137763.07   -43497.152     3676.441   -47173.593    1146.5069    1.0006057 
   87800    275.33605   -179.18507    137484.66   -43364.745    3781.0777   -47145.823    1146.7913     1.002632 
   87900     273.0808   -173.14639    137703.13   -43382.677    3750.1072   -47132.784    1150.6377    1.0010413 
   88000    268.16419   -30.695524    137657.45   -43351.275    3682.5894   -47033.865    1151.6525    1.0013734 
   88100    266.68072    56.969477    137384.01    -43408.22    3662.2175   -47070.437     1152.762    1.0033665 
   88200    272.19213    55.147779    137275.43    -43362.72    3737.9035   -47100.624    1152.9648    1.0041602 
   88300    271.75606    283.96829    137457.08   -43364.136    3731.9151   -47096.051    1155.4104    1.0028332 
   88400    267.65095   -5.0415398    137665.96   -43415.063    3675.5412   -47090.604     1158.149    1.0013116 
   88500    267.83365   -3.7909719    137675.07    -43481.92    3678.0503   -47159.971    1159.7551    1.0012453 
   88600    266.96385    152.74855    137856.53   -43470.444    3666.1056    -47136.55    1163.8953   0.99992737 
   88700    268.79885   -152.53622    137652.54   -43487.779     3691.305   -47179.084    1164.0425    1.0014091 
   88800    265.71129    205.89017    137809.62   -43471.929    3648.9047   -47120.834    1166.7325    1.0002677 
   88900    267.69527   -186.43287    137610.93   -43511.818    3676.1499   -47187.968    1167.3725     1.001712 
   89000    267.72464     67.48165    137749.83   -43432.674    3676.5533   -47109.227    1168.7133    1.0007019 
   89100    265.64937    314.93042    138063.32   -43392.624    3648.0544   -47040.678    1171.8153   0.99842967 
   89200    266.83971   -96.996286    137906.47   -43447.537    3664.4008   -47111.938    1170.7292   0.99956528 
   89300    267.22908   -21.607041    137665.32    -43460.76    3669.7478   -47130.508     1171.073    1.0013162 
   89400    270.31211   -86.779478    137365.42   -43384.946    3712.0859   -47097.032    1170.1114    1.0035023 
   89500    266.05444    147.39188    136913.99   -43487.698    3653.6171   -47141.315    1168.4569     1.006811 
   89600    270.52812    68.849609    137159.65   -43400.303    3715.0522   -47115.356    1171.4213    1.0050078 
   89700    269.99913     20.29108    137632.62   -43348.436    3707.7878   -47056.224    1174.7252    1.0015541 
   89800    269.43531    59.889604    137866.19   -43405.641    3700.0452   -47105.686    1176.7241   0.99985727 
   89900    268.99124    34.988195    137643.42    -43444.02    3693.9469   -47137.967    1177.9942    1.0014755 
   90000    267.67254    96.889079    137676.89   -43456.071    3675.8377   -47131.908    1179.7141    1.0012321 
   90100     267.7231    8.1967998    137630.07   -43414.729    3676.5321   -47091.262    1180.2487    1.0015727 
   90200    265.38006   -83.564984    137521.74   -43546.126     3644.356   -47190.482      1180.26    1.0023616 
   90300    266.91377   -279.41042    137252.64   -43529.706    3665.4179   -47195.124    1179.5066    1.0043269 
   90400    270.15507    28.938669    137154.08   -43416.248    3709.9293   -47126.177     1180.119    1.0050486 
   90500    270.02593    65.595924    137197.14    -43352.35    3708.1559   -47060.505    1182.2582    1.0047332 
   90600    266.52676   -233.34475    136943.07   -43380.599    3660.1033   -47040.702    1181.7431    1.0065972 
   90700     270.2779    127.68513    136913.31   -43412.585    3711.6161   -47124.201    1182.8752     1.006816 
   90800    269.65509    90.258383    136985.04   -43360.018    3703.0633   -47063.081    1184.7133    1.0062888 
   90900    267.16723    10.902159    137092.77   -43457.486    3668.8986   -47126.385    1185.7725    1.0054981 
   91000    269.73343    15.474344    137315.06   -43411.372    3704.1391   -47115.511    1187.4102    1.0038703 
   91100    270.68151   -36.381876    137346.47   -43376.653    3717.1587   -47093.811    1189.7139    1.0036408 
   91200     269.0588    372.80296    137518.05   -43439.281    3694.8747   -47134.156    1192.2206    1.0023885 
   91300    270.04776   -175.47639    137495.46   -43460.576    3708.4557   -47169.032    1192.9141    1.0025532 
   91400    263.83098   -73.689525    137345.89   -43512.723    3623.0832   -47135.807    1192.6761     1.003645 
   91500    270.42979    161.89611    137371.92   -43475.202    3713.7019   -47188.903    1195.0452    1.0034548 
   91600    266.28181    12.215244    137255.23   -43462.802    3656.7394   -47119.541    1194.6919    1.0043079 
   91700    266.92588    122.38075    137368.04   -43491.039    3665.5842   -47156.624    1195.8626    1.0034832 
   91800     264.7788    70.109943    137637.36   -43594.041    3636.0992    -47230.14    1198.1071    1.0015196 
   91900    264.41379   -132.42332    137583.79    -43547.58    3631.0867   -47178.667    1199.2169    1.0019096 
   92000    270.75262    0.1436228    137497.31   -43479.405    3718.1352    -47197.54    1200.7681    1.0025397 
   92100     272.4075    -59.39585    137336.64   -43388.633    3740.8611   -47129.494    1201.3955    1.0037126 
   92200    275.21714    8.7384646    137471.74   -43317.289    3779.4447   -47096.734    1203.2135    1.0027262 
   92300    272.41152    24.313083    137386.49   -43347.399    3740.9162   -47088.315    1204.4596    1.0033484 
   92400    274.21272    163.33005    137720.92   -43393.528    3765.6514    -47159.18     1208.479     1.000912 
   92500    268.52117    38.138789    137824.92   -43349.869    3687.4917   -47037.361    1210.4257    1.0001567 
   92600     272.9036    52.360705    137927.59   -43408.641    3747.6738   -47156.315     1211.264   0.99941218 
   92700    272.93243   -64.879115    137899.76   -43440.465    3748.0697   -47188.535    1213.4126   0.99961391 
   92800    269.29818   -88.337489    137744.18    -43463.09     3698.162   -47161.252    1213.3079    1.0007429 
   92900    273.55032    36.919802    137850.79   -43470.084    3756.5549   -47226.639    1216.0147     0.999969 
   93000    264.64444      93.0282    137727.56    -43430.37    3634.2542   -47064.625      1215.24    1.0008637 
   93100     268.9008   -160.32608    137649.58   -43443.909    3692.7049   -47136.613    1215.6463    1.0014307 
   93200     270.9565   -9.7601308    137136.34   -43364.485    3720.9351    -47085.42    1212.3336    1.0051786 
   93300    274.76656  -0.58533592    137213.24   -43295.987     3773.257   -47069.244    1213.3651    1.0046153 
   93400    267.63888   -49.381541    137263.24   -43424.986    3675.3756   -47100.362    1215.1736    1.0042493 
   93500    267.57223    99.393862    137155.47   -43457.898    3674.4602   -47132.358     1214.863    1.0050384 
   93600     268.1485    95.194314    137477.09   -43464.201    3682.3739   -47146.575    1217.0292    1.0026872 
   93700    264.36061    181.13394    137634.25   -43444.983    3630.3564   -47075.339    1219.9117    1.0015422 
   93800    272.93596   -84.233071    137765.23    -43331.94    3748.1182   -47080.058    1221.4472      1.00059 
   93900    273.20058   -79.929279    137803.11   -43455.576    3751.7521   -47207.328    1222.9077     1.000315 
   94000    266.80389   -54.547286     137762.6   -43458.365    3663.9089   -47122.274     1224.415    1.0006091 
   94100    266.91415    -42.28847    137575.37   -43523.907    3665.4231    -47189.33    1224.8153    1.0019709 
   94200    265.80564     58.18994    137690.16   -43503.204    3650.2003   -47153.404    1226.9981    1.0011356 
   94300    265.28098    192.25136    137844.12   -43436.852    3642.9954   -47079.848    1229.3873    1.0000174 
   94400    270.15842   -220.52429    137871.56   -43446.893    3709.9753   -47156.869     1230.881   0.99981833 
   94500    271.42402    28.297904    137687.93   -43459.135    3727.3552   -47186.491    1230.1466    1.0011518 
   94600    264.54397      149.002    137655.45   -43554.897    3632.8743   -47187.771    1230.3978     1.001388 
   94700    268.86967    57.673744    137608.74   -43476.429    3692.2775   -47168.706    1231.5367    1.0017279 
   94800    269.08381    2.9789631    137679.25   -43420.291    3695.2181   -47115.509    1234.0067    1.0012149 
   94900    270.24791    118.62238    137456.94   -43370.364    3711.2042   -47081.568    1233.2967    1.0028342 
   95000    267.91154    97.386999    137446.08    -43390.39    3679.1198   -47069.509    1233.8873    1.0029134 
   95100    270.61901    114.27963    137493.01   -43356.076    3716.3005   -47072.376    1235.3474    1.0025711 
   95200    273.91106   -48.066057    137807.04   -43343.337    3761.5088   -47104.845    1238.8896    1.0002865 
   95300     270.1558   -99.052061    137868.44   -43407.798    3709.9393   -47117.737    1240.8652   0.99984095 
   95400      272.677    152.81125    137777.14   -43416.496    3744.5619   -47161.058    1242.7476    1.0005036 
   95500    270.37701    97.249308    137657.21   -43433.529    3712.9771   -47146.506    1243.3489    1.0013752 
   95600    267.40366      89.2084    137746.64   -43570.623    3672.1453   -47242.768    1244.8237    1.0007251 
   95700    270.84825   -39.254958    137854.88   -43532.322    3719.4485   -47251.771    1245.9485   0.99993932 
   95800     271.3142    -23.70357    137995.58   -43474.721    3725.8472   -47200.569    1248.2568   0.99891978 
   95900    269.36304    -39.44989    138207.12   -43494.157    3699.0527    -47193.21    1250.9158   0.99739085 
   96000     267.9121   -117.10128    137876.73   -43443.247    3679.1276   -47122.374     1249.837   0.99978084 
   96100    270.90277   -103.61172    137542.53   -43442.416    3720.1972   -47162.613    1249.1013    1.0022101 
   96200    270.90892   -202.55429    137526.64   -43462.454    3720.2816   -47182.736    1250.0872    1.0023259 
   96300    268.73093    101.63326    137507.46   -43394.461    3690.3722   -47084.833    1249.4053    1.0024657 
   96400    268.33284   -10.840016    137575.32   -43480.399    3684.9053   -47165.304    1252.5727    1.0019713 
   96500    267.14168   -21.497922    137439.48   -43415.767    3668.5477   -47084.314    1251.6289    1.0029615 
   96600    273.13286   -131.61331    137353.77   -43374.002    3750.8221   -47124.824    1251.4775    1.0035874 
   96700    270.68001    28.313736    137397.82   -43342.595    3717.1381   -47059.733    1252.2849    1.0032656 
   96800    269.68014    167.36154    137344.21   -43297.069    3703.4073   -47000.476     1253.222    1.0036573 
   96900     267.8459   -158.84653     137293.8   -43338.572    3678.2184   -47016.791    1253.4947    1.0040258 
   97000    270.02932    49.143071    137307.28   -43363.855    3708.2024   -47072.057    1254.9587    1.0039272 
   97100    271.13474    113.95964    137458.37   -43373.382    3723.3827   -47096.765    1257.5174    1.0028237 
   97200    272.33816   -39.627277    137572.57   -43344.496    3739.9089   -47084.405    1260.5611    1.0019913 
   97300    269.38805   -50.033241    137466.27   -43436.942    3699.3962   -47136.338    1261.5076    1.0027661 
   97400    267.68032    125.25744    137390.71   -43391.634    3675.9446   -47067.578    1262.8212    1.0033176 
   97500    265.98459   -127.50918    137456.61   -43399.874    3652.6579   -47052.532    1265.1229    1.0028366 
   97600    270.90718   -144.68293    137313.61   -43383.146    3720.2578   -47103.404    1266.0824    1.0038809 
   97700     270.6387    146.93475    137341.68   -43431.068    3716.5708   -47147.639    1268.3156    1.0036758 
   97800    270.82068   -7.9090681    137301.47    -43417.88    3719.0698    -47136.95    1268.8185    1.0039697 
   97900    272.61929    215.95997     137669.4   -43322.417    3743.7695   -47066.186    1273.2931    1.0012866 
   98000    271.90277    -40.90786    137896.71   -43313.181    3733.9298    -47047.11    1276.4199     0.999636 
   98100    266.55651    36.164638    137706.76   -43400.064    3660.5117   -47060.576    1276.3981    1.0010149 
   98200    278.78461   -166.99509    137656.06   -43320.721    3828.4353   -47149.157    1277.8993    1.0013836 
   98300     274.6651   -132.85257    137966.71   -43306.994    3771.8637   -47078.857    1282.4678   0.99912883 
   98400    272.48661   -111.95667    137546.87   -43311.317    3741.9474   -47053.264    1281.8661    1.0021785 
   98500    268.40185   -60.425031    137361.05   -43391.618    3685.8531   -47077.471    1282.6508    1.0035342 
   98600    268.57542    26.349884    137450.08   -43347.747    3688.2367   -47035.984    1284.0654    1.0028842 
   98700    264.72218    93.759247    137308.65   -43399.285    3635.3217   -47034.607    1283.8026    1.0039172 
   98800     268.5609   -38.965949    137633.63   -43351.329    3688.0373   -47039.366    1287.1243    1.0015468 
   98900    268.10393    109.98464    137570.23   -43373.905    3681.7619   -47055.667    1287.4741    1.0020083 
   99000    272.93537    1.1460975    137479.76   -43302.929      3748.11   -47051.039    1287.2059    1.0026677 
   99100    267.93418   -14.929889    137360.17   -43374.015    3679.4307   -47053.445    1287.8081    1.0035407 
   99200    268.32426    32.798173    137454.06   -43324.009    3684.7875   -47008.797    1289.7254    1.0028552 
   99300    271.59324   -39.226464    137537.79   -43359.934    3729.6792   -47089.614    1291.5542    1.0022447 
   99400     273.5301    19.315922    137485.35   -43284.326    3756.2772   -47040.603    1293.2145    1.0026269 
   99500    274.15934   -41.361387    137386.09   -43343.608    3764.9183   -47108.527    1293.2386    1.0033513 
   99600    268.79202    270.21705    137301.06    -43385.03    3691.2112   -47076.241    1294.0386    1.0039727 
   99700    275.34735   -11.891813    137511.72   -43374.897    3781.2328   -47156.129    1295.6447    1.0024347 
   99800    269.89748    77.086441    137497.74   -43399.116     3706.392   -47105.508    1297.3649    1.0025366 
   99900    270.58359    103.81591    137114.31   -43416.792    3715.8141   -47132.606    1296.0077    1.0053401 
  100000    270.02608    26.122125    137293.82   -43420.689     3708.158   -47128.847    1298.2459    1.0040257 
  100100     269.1086    69.666294    137468.65   -43422.034    3695.5586   -47117.592    1300.3803    1.0027488 
  100200    268.48681    122.83016     137665.5   -43398.454    3687.0197   -47085.474    1303.9342    1.0013149 
  100300    271.35066    5.5956049    137830.48   -43415.671    3726.3479   -47142.019      1304.01    1.0001164 
  100400    267.44457    13.449367    137808.89    -43427.94    3672.7072   -47100.647    1305.4757     1.000273 
  100500    266.78084   -114.91699     137664.2   -43436.458    3663.5924   -47100.051    1305.5499    1.0013244 
  100600    267.40502   -92.554073    137459.43   -43482.338     3672.164   -47154.502    1303.6191     1.002816 
  100677    271.18216    32.368705    137492.51   -43424.792     3724.034   -47148.826    1305.2576    1.0025748 
Loop time of 191.847 on 6 procs for 100000 steps with 4608 atoms

Performance: 225.179 ns/day, 0.107 hours/ns, 521.248 timesteps/s
99.4% CPU use with 6 MPI tasks x no OpenMP threads

MPI task timing breakdown:
Section |  min time  |  avg time  |  max time  |%varavg| %total
---------------------------------------------------------------
Pair    | 165.34     | 169.26     | 176.12     |  29.3 | 88.23
Neigh   | 7.402      | 7.5108     | 7.5528     |   1.8 |  3.91
Comm    | 5.44       | 12.314     | 16.2       | 109.1 |  6.42
Output  | 0.17294    | 0.1737     | 0.17716    |   0.4 |  0.09
Modify  | 1.8581     | 1.9439     | 2.0439     |   4.2 |  1.01
Other   |            | 0.6421     |            |       |  0.33

Nlocal:        768.000 ave         772 max         763 min
Histogram: 1 0 1 0 0 1 1 0 1 1
Nghost:        1689.50 ave        1697 max        1677 min
Histogram: 1 1 0 0 0 0 0 1 1 2
Neighs:        0.00000 ave           0 max           0 min
Histogram: 6 0 0 0 0 0 0 0 0 0
FullNghs:      25758.7 ave       26024 max       25396 min
Histogram: 1 0 0 0 0 3 0 0 1 1

Total # of neighbors = 154552
Ave neighs/atom = 33.539931
Neighbor list builds = 7007
Dangerous builds = 0

undump              1
unfix               2
unfix               3
unfix               4


################################################
#######         Run Simulation         #########
################################################

reset_timestep      0
log                 log.run_${NAME}
log                 log.run_liq_270K_1atm_mW
