LAMMPS data file via write_data, version 29 Oct 2020, timestep = 200000

4608 atoms
1 atom types

-0.03106306691087468 57.301573066909 xlo xhi
-0.027611615032117953 50.9347316150334 ylo yhi
-0.027611615032117953 50.9347316150334 zlo zhi

Masses

1 18.015

Atoms # atomic

5 1 1.5372626477099756 1.2657576755618034 1.6592733571283 0 0 0
3 1 3.329208139555013 50.72390153848495 3.0909667646007897 0 -1 0
13 1 7.983501880213501 1.5588113903475271 1.732952351566957 0 0 0
21 1 14.436303331431526 1.3633289020213086 1.2660962294075115 0 0 0
19 1 16.00744975765888 50.87743181964534 3.3770412477743625 0 -1 0
697 1 0.4627921593672303 31.999833652220072 19.456621925546482 0 0 0
8 1 4.919646123056386 4.958817840554459 1.6222569205410076 0 0 0
10 1 6.385576586701722 3.085272399475327 3.0565337012733824 0 0 0
16 1 11.402144449257028 4.689343757342447 1.2001529269025986 0 0 0
18 1 12.685255088419904 3.050901815214359 2.930281463558327 0 0 0
76 1 2.937210004722984 22.184082442549172 0.5023930487362053 0 0 0
24 1 17.56938749651535 4.816401771894155 1.1125041990835078 0 0 0
29 1 1.119189068406978 7.514365686794749 1.5268211370119622 0 0 0
27 1 3.1968808553627333 6.609333472859976 3.3353087783216613 0 0 0
37 1 7.872641081819785 7.840462912521114 1.5373599102596875 0 0 0
35 1 9.756297026883473 6.391889400476071 2.794626624286404 0 0 0
45 1 14.183631262887065 8.075342544900757 1.7229778268102278 0 0 0
43 1 15.927932926417665 6.261961160036208 3.099396099852775 0 0 0
595 1 16.046979028678898 0.29027755430156327 22.09674366004319 0 0 0
32 1 4.690357846035184 10.645044394946096 1.3342028613636714 0 0 0
2305 1 19.061118964454014 0.28322163014217716 25.28250861093379 0 0 0
40 1 11.23090110757496 10.888128621532577 1.4806565649065417 0 0 0
42 1 12.580930358058092 9.63709349067478 3.4732406160682197 0 0 0
48 1 17.72271805596616 10.940321414538435 1.647085768740294 0 0 0
53 1 1.3000371880828854 13.664986817522324 1.83517897646407 0 0 0
51 1 3.376458638827082 12.2263028678229 3.237607514654945 0 0 0
61 1 7.366317126237748 14.363517006178716 1.9494701017483649 0 0 0
69 1 14.39600888013052 14.260556093858828 1.3556566054830088 0 0 0
67 1 15.950490780425085 12.496151082505321 3.0439450396926477 0 0 0
170 1 0.07558791284850486 47.81929325336584 2.732681571270115 0 0 0
56 1 4.86528665083511 17.31532211448242 1.7621944670486238 0 0 0
58 1 5.931312898198976 16.046002411406164 3.8747251434526806 0 0 0
64 1 11.133539228560528 17.549708836049188 1.7490940931940997 0 0 0
66 1 12.560848097584884 15.607283782950375 2.838078442031787 0 0 0
72 1 17.315847757037254 17.571875799299885 1.7287362979505907 0 0 0
77 1 1.3299027801478667 20.291731490985285 2.144410568926681 0 0 0
75 1 3.514062782074135 19.031011171204835 3.420352221693035 0 0 0
766 1 14.273002183904088 49.802072282456706 23.722088518460183 0 0 0
85 1 7.8410876185385785 20.989495563607594 1.7858653400438753 0 0 0
601 1 0.32682084397165406 6.305381765979746 19.17001276732745 0 0 0
83 1 9.699861725498437 19.368149706870145 3.3006350234672297 0 0 0
93 1 14.40684980760472 20.321559658840734 1.7603505755678956 0 0 0
91 1 16.084349987268812 19.11928467449256 3.4000563913708914 0 0 0
578 1 0.34291805519903407 3.105822021712588 22.07134915819431 0 0 0
80 1 4.3819341413357655 23.78902377719972 2.0579410891845797 0 0 0
88 1 10.903719858816256 23.41971391983498 1.8251627617068307 0 0 0
649 1 0.05429833532077377 18.970719562542122 19.15639118370634 0 0 0
90 1 12.792929754444895 22.215342454054124 3.2779080574384705 0 0 0
96 1 17.734658255361467 23.691090791372698 1.5020679951871279 0 0 0
921 1 6.323186281970077 38.33560621672045 25.411133471099394 0 0 0
99 1 2.739525214084543 25.35564381532154 3.55985742137036 0 0 0
101 1 1.2628796680030965 27.071931879906863 1.8837896558908545 0 0 0
107 1 9.66066860096318 25.652924506935378 3.103500403000234 0 0 0
117 1 14.155180254298479 26.735355075354345 1.3533907168911938 0 0 0
115 1 15.933881820103789 25.727035544890263 2.956742171846699 0 0 0
104 1 4.367883394119625 30.460365300283403 1.5356793220590295 0 0 0
106 1 5.78569882244997 28.81478080760278 3.2945788508246308 0 0 0
109 1 7.333142506282412 27.097033597227878 1.6821250494059583 0 0 0
65 1 12.675110979198562 12.7311052987813 0.19054749695014925 0 0 0
114 1 12.475344131255815 28.42939253215681 2.79168372367094 0 0 0
123 1 3.1187953465441756 31.776752528467167 3.4723070326445087 0 0 0
60 1 9.323377113253427 16.08914474286961 0.5003756236654522 0 0 0
131 1 9.65704703505237 31.490451710011694 2.95382641127601 0 0 0
112 1 10.707830560479207 29.80867481756811 1.0129723384198865 0 0 0
721 1 0.11683520885009102 38.361737547727245 19.33386936803036 0 0 0
120 1 17.307030166297878 29.78787625972491 0.9534930522712494 0 0 0
125 1 1.5458460238455158 33.238958450299734 1.7885041184171082 0 0 0
1537 1 18.88626439386776 50.73139481192422 0.2545234827846829 0 -1 0
133 1 7.87794784809871 33.146756877122414 1.7138471145970189 0 0 0
745 1 0.09230140467905822 44.29918476516761 19.222428556867502 0 0 0
141 1 14.315936817163253 33.488417616531564 1.2400578739464867 0 0 0
138 1 12.847554571346972 35.05090008958439 3.0309612855087167 0 0 0
132 1 9.49741694308977 34.79065281497968 0.17144972629263777 0 0 0
128 1 4.566009918712056 36.652466156840106 1.63645218921649 0 0 0
2401 1 18.73293367149112 25.22305553983696 25.42384212419165 0 0 0
136 1 11.089506617819183 36.59140651002785 1.4873460781677972 0 0 0
458 1 0.055121312405006506 22.53015356242219 16.006788593015067 0 0 0
144 1 17.59238546611556 36.27826836922452 1.6504653562423754 0 0 0
149 1 1.4583705315627837 39.86665270181334 1.2147044067060073 0 0 0
157 1 7.72846334827499 39.97566757074604 1.3799701171371475 0 0 0
154 1 6.196234416530526 41.48530963558758 3.303598492851291 0 0 0
162 1 12.61693352581204 41.3651688795416 3.210862858061144 0 0 0
9 1 6.5473162679721115 50.92443373796665 0.17782104639616272 0 -1 0
165 1 14.068679005223721 39.42486107516733 1.736005812704657 0 0 0
152 1 4.424315689380775 42.740463222640386 1.650270639800587 0 0 0
179 1 9.311091477570972 44.43320758377877 3.278001178397974 0 0 0
160 1 10.840919769148332 42.9036717621467 1.4824879213562365 0 0 0
187 1 15.735288208225542 44.68488813012661 3.184594374660381 0 0 0
168 1 17.223802118026068 43.36027967926792 1.8172421217025185 0 0 0
173 1 1.5291706866329058 46.151028088222745 1.304971081569392 0 0 0
181 1 7.9061750239116355 45.91176674830504 1.6957265831888522 0 0 0
186 1 12.53804959853962 47.66267097194802 3.5095868381505113 0 0 0
673 1 0.12633733107303777 25.568713410071904 19.145161219978508 0 0 0
189 1 13.999544618323974 46.05488736919624 1.9392823470217289 0 0 0
176 1 4.9521116102436284 49.1273281163794 1.5695027543847906 0 0 0
178 1 6.13389617753027 47.34379117755185 3.3727374441608893 0 0 0
184 1 11.017258357868407 48.92603139812621 1.5695359489875298 0 0 0
192 1 17.2660378901067 48.84765008377025 1.9022082053240246 0 0 0
758 1 7.977353932583993 49.28525717096312 23.50091253036929 0 0 0
553 1 -0.01739671028287404 44.79541109054753 12.800386141675437 0 0 0
7 1 4.86916117691418 1.3774216392725291 4.40552198415758 0 0 0
15 1 10.926553765041382 1.3329633738361764 4.318772430920055 0 0 0
23 1 17.516306770134232 1.6747834315296233 4.471332063709354 0 0 0
6 1 1.7743064798499488 4.7519800745824625 4.763549326250626 0 0 0
196 1 3.462112560135332 2.9383072014448435 6.204598707956104 0 0 0
14 1 7.99866093015015 4.74668062468371 4.544272768459215 0 0 0
204 1 9.703918350979274 2.948627380274834 6.311059648949733 0 0 0
212 1 15.827586630794551 3.3321395986701883 6.171682486452567 0 0 0
22 1 14.07376769931274 4.531780666381892 4.888719782549976 0 0 0
746 1 0.12154515551279471 47.41149381305618 22.03725288059236 0 0 0
31 1 4.750799919088155 8.061973217773899 5.006353998797076 0 0 0
39 1 11.031468892088967 7.849313913809196 4.950780743514465 0 0 0
233 1 12.591809911607971 6.562473422548617 6.605501211669514 0 0 0
47 1 17.84994985933103 7.6998070614957825 4.429305276704229 0 0 0
30 1 1.5950192458355896 11.085456223571997 4.815549407949873 0 0 0
34 1 6.515942796648639 9.436535537411405 3.191475450675795 0 0 0
38 1 8.03015930090995 11.236826546068876 4.543516138482123 0 0 0
46 1 14.372033234755378 11.095453446479674 4.544321967030803 0 0 0
482 1 0.0036885526800958107 28.530849731488896 15.786191736199406 0 0 0
55 1 4.570302524475259 13.817724334681744 5.205769709281972 0 0 0
59 1 9.416478881714216 12.663078305072498 2.4728795517086004 0 0 0
63 1 10.990359628093259 14.01257618016746 4.693372689464034 0 0 0
71 1 17.423535386221108 14.08726099004326 4.841383041433358 0 0 0
54 1 1.5057305062819482 17.785699294000487 4.7330403323375325 0 0 0
244 1 2.959530846648395 15.844068933446293 6.311137948736454 0 0 0
62 1 8.198734958268094 17.405802555865627 4.909722429377753 0 0 0
70 1 14.141324763482142 17.439011148018167 4.6353165004815695 0 0 0
956 1 16.298073865964646 48.04330111829813 25.09416567701331 0 0 0
79 1 5.000259888023906 20.60541312910767 5.054946501335025 0 0 0
87 1 11.18026582136876 20.918270780092012 4.791019653752415 0 0 0
281 1 12.696404966886975 19.105379879688204 6.257713840670394 0 0 0
95 1 17.583727820221068 20.88630619780066 4.938383718419891 0 0 0
78 1 1.4806883884929154 23.196677370650907 4.92416858835404 0 0 0
268 1 3.474916164586366 22.189614686143024 6.579819184084105 0 0 0
82 1 6.2301269977941045 22.280368239472626 3.387965260549684 0 0 0
276 1 9.607877201483406 22.432144330438913 6.230907494258914 0 0 0
94 1 14.42300880633343 23.987738517254947 4.635024550385136 0 0 0
284 1 15.811953133212148 22.42744667687719 6.352536869339476 0 0 0
297 1 6.401243589777119 25.760091809235934 6.283207723343611 0 0 0
86 1 7.976380313413701 24.063197842559823 4.638617214353903 0 0 0
434 1 0.0881001547491905 16.001043318143143 16.169203681765648 0 0 0
102 1 1.5060153053142047 30.343863380788257 4.884435830876927 0 0 0
103 1 4.469917152391944 26.9998016883738 5.076449197871536 0 0 0
111 1 11.024145881950306 27.099268868262453 4.72838741857341 0 0 0
300 1 9.307113583218554 28.880299685973966 6.450659753646313 0 0 0
308 1 16.012527320780585 28.82907746010238 5.964995055966221 0 0 0
119 1 17.563967241980365 27.33406873339186 4.5674394386715145 0 0 0
122 1 0.03232247687602552 35.037975233041124 3.3682220273954817 0 0 0
110 1 7.763419729163307 30.531121360544468 4.862079819563322 0 0 0
321 1 6.485601777962288 32.166961222210475 6.4143609226554235 0 0 0
139 1 15.698954297076433 31.715465684016024 2.6037413649007464 0 0 0
118 1 14.134865230744332 30.36125990033557 4.282886218812781 0 0 0
750 1 1.536896329649236 49.23217154265076 23.65462813665943 0 0 0
127 1 4.77348328199131 33.74150635509727 4.899630692073073 0 0 0
130 1 6.24442042793275 35.288793947112936 3.2876225543935655 0 0 0
316 1 2.969942852519208 35.255968535524744 6.0768279932986555 0 0 0
135 1 11.05724030026726 33.42693825493605 4.404571660580264 0 0 0
324 1 9.473657223439528 35.15204297738909 6.102568049252342 0 0 0
143 1 17.292941001173332 33.33550021641602 4.4182840184742735 0 0 0
126 1 1.3117983548690582 36.996069672595965 4.643179873616089 0 0 0
147 1 2.845054880169743 38.368712781374555 3.0252207362853527 0 0 0
345 1 6.309013239253692 38.49640255924402 6.166981054342111 0 0 0
134 1 8.061506914211833 36.738165717220085 4.620997677355637 0 0 0
155 1 9.385680582179061 38.342243028027895 2.840135430156864 0 0 0
142 1 14.331668829552603 36.7667758785193 4.683906355151895 0 0 0
353 1 12.50288456089646 38.43864341053964 6.128223429398842 0 0 0
163 1 15.975771281082306 37.942138493897346 3.193020077894434 0 0 0
340 1 2.8658604071419416 41.596611834040004 6.353419245417937 0 0 0
151 1 4.589452584857461 39.93008044647051 4.813181820065552 0 0 0
348 1 9.636296361410881 41.75648745719157 6.320744853998317 0 0 0
159 1 10.813338570680994 39.9407563615318 4.521967107576718 0 0 0
167 1 17.451044502606138 39.95840182645337 4.6667020208086205 0 0 0
356 1 15.85628977440305 41.496027629196774 6.004121500812454 0 0 0
171 1 2.9450035889744353 44.44776323217661 2.9940169494351427 0 0 0
150 1 1.2313112933122623 42.90618601386771 4.61031182761028 0 0 0
158 1 7.916009256261003 43.02803369610831 4.708353923772186 0 0 0
166 1 14.013792126194105 43.10124118482801 4.881017910861742 0 0 0
506 1 0.143740913620105 35.14308166282018 16.027006245386843 0 0 0
767 1 17.635172953076367 46.16428363080688 23.633795185605646 0 0 0
175 1 4.363300646866047 45.80330783693667 4.702462559590779 0 0 0
372 1 9.57189804594165 47.73760232396734 6.526090657419966 0 0 0
183 1 11.091117751909517 45.858775419968566 4.728063668546313 0 0 0
191 1 17.599968674654487 45.99060669899143 4.739201418201504 0 0 0
174 1 1.4931220575773576 49.24677968525452 4.688815417210137 0 0 0
11 1 9.25015567416976 50.39271024350006 3.0303743600641444 0 -1 0
182 1 7.77202397599757 48.91793701188689 4.783336278207411 0 0 0
190 1 14.20681029971447 49.18777505079116 5.013670395971004 0 0 0
380 1 15.948854241824677 47.660866180641534 6.425102667104456 0 0 0
197 1 1.7854972936940818 1.2460265095550842 7.706909606283851 0 0 0
195 1 3.5011154225996273 50.673333995516856 9.550520576417918 0 -1 0
205 1 7.998977630259285 1.5926396863716057 7.813304017967769 0 0 0
201 1 6.163192382058028 50.71972516458672 6.302670257244142 0 -1 0
209 1 12.358135222020787 0.10020466617280022 6.095694471043066 0 0 0
213 1 14.129282129208585 1.4281555494980542 7.585683412981115 0 0 0
211 1 15.703908129651266 50.88472720650794 9.526497009188498 0 -1 0
124 1 2.9296451303774145 34.895301515314145 0.22382585859453907 0 0 0
200 1 5.053162833406136 4.563822704153122 7.803815122622708 0 0 0
208 1 10.913126159535054 4.81913296967045 7.722265186248893 0 0 0
210 1 12.873875222870174 3.4107539483934772 9.400032675136291 0 0 0
216 1 17.401876209070053 4.724642119424106 7.7187814071278185 0 0 0
762 1 12.549225564564674 48.01710389035112 22.675433361553132 0 0 0
221 1 1.7030703073552842 7.625160592774656 7.832189307993285 0 0 0
225 1 6.494622863318653 6.4130123036146065 6.11529421397732 0 0 0
219 1 3.230501588455202 5.996743890649119 9.724660294843618 0 0 0
229 1 8.05638138589919 8.112771811445192 7.670286162245797 0 0 0
227 1 9.60427840595736 6.632082192439626 9.623335819633388 0 0 0
237 1 14.331809029698434 7.861275122656907 8.065120310637923 0 0 0
235 1 16.05591969038232 6.301444669868801 9.614364787018312 0 0 0
759 1 11.37546212783094 45.97347859054827 24.09348805133251 0 0 0
220 1 2.8970396670342575 9.530397556691074 6.452434657301991 0 0 0
224 1 4.513819778716502 11.027619375390598 7.928687801464447 0 0 0
228 1 9.560803235215268 9.848875033837613 6.1412384211024795 0 0 0
232 1 11.220906839125979 11.246949190493671 8.077179624634905 0 0 0
236 1 16.223661121246312 9.456668875601014 6.228346247355824 0 0 0
240 1 17.57406747710495 11.213237292527532 7.999373186053978 0 0 0
245 1 1.3432997088432328 14.162715372944907 8.095348950184846 0 0 0
249 1 6.471269619733885 12.557150030266644 6.5452422188789345 0 0 0
253 1 7.719082486725376 14.286253071156088 7.998078884654431 0 0 0
257 1 12.888276854267449 12.5261579290776 6.1889838178804135 0 0 0
261 1 14.431677060792982 14.063293954303761 7.794367385521028 0 0 0
259 1 16.043704344792985 12.863053423485427 9.496207066552339 0 0 0
386 1 0.1293919303216826 2.8273368202860985 16.046381880048298 0 0 0
751 1 4.846508367966881 46.28625471428978 23.470775505310943 0 0 0
248 1 4.445189806016163 17.51773577232945 7.9649974550868095 0 0 0
252 1 9.548832940688126 15.59713298137945 6.42911336602736 0 0 0
256 1 11.16947821885291 17.63039098811337 7.805012492332091 0 0 0
260 1 15.703908427077051 15.869701560629323 6.243184613019475 0 0 0
264 1 17.52908287164978 17.422389330621993 7.809500208167813 0 0 0
269 1 1.6424594318502679 20.69650386432709 7.8744471575193264 0 0 0
267 1 3.038869815098743 19.009502661088952 9.869846027327153 0 0 0
273 1 6.470090603553666 19.015536517319685 6.466212961622023 0 0 0
277 1 8.053312106974495 20.799989115920805 8.051455372037227 0 0 0
285 1 14.363316107416063 20.68043817695479 7.936074405994831 0 0 0
283 1 16.370454894857 19.200616062194825 9.355538802924904 0 0 0
763 1 15.677605553596308 44.85926450285103 22.05288365863083 0 0 0
272 1 4.773386113818759 24.420349180675487 7.887903300226851 0 0 0
274 1 6.311017351422539 22.623603951383664 9.36236995813352 0 0 0
288 1 17.436987361922462 23.626914822352603 7.939329419595292 0 0 0
218 1 0.04597012529628973 9.274907343900805 9.39822799441941 0 0 0
293 1 1.376506479800558 27.04574935275577 7.879694613072407 0 0 0
291 1 3.0205380741135297 26.003249839106353 9.640437756647664 0 0 0
299 1 9.619336582367923 25.616099767314935 9.451460313967518 0 0 0
280 1 11.289610228535194 24.037174168720213 7.748244611499171 0 0 0
305 1 12.768657307815015 25.37762107255758 6.165629324583813 0 0 0
307 1 16.240327847848967 25.510545961773477 9.249432756707552 0 0 0
852 1 9.33605527404131 22.20769060574874 25.381298639385953 0 0 0
292 1 3.028520979900674 28.75380484041169 6.553881111960565 0 0 0
298 1 6.179991107312218 28.729253250960493 9.350581509629341 0 0 0
301 1 8.023551855273116 27.28013169665961 8.190613036487107 0 0 0
309 1 14.351914054481131 27.042030903067563 7.780898251231171 0 0 0
306 1 12.608689439640319 28.64687675497404 9.238660515263824 0 0 0
4 1 3.132377281884517 3.1984182845230587 0.01233721897125381 0 0 0
296 1 4.6288828294400375 30.64822322737753 7.790911674783506 0 0 0
315 1 3.043424770841599 32.18290811429475 9.179561770731526 0 0 0
323 1 9.430880447831605 32.11023816139996 9.35915513032319 0 0 0
304 1 11.147067374318828 30.35848634503484 7.84899184719379 0 0 0
329 1 13.031576947790338 31.83584336732661 6.251542508993315 0 0 0
312 1 17.444059340017375 30.281568585724386 7.748284287695623 0 0 0
317 1 1.197833536428115 33.663777690746514 7.573352582505017 0 0 0
742 1 14.678919055512994 42.91059447997466 23.645425320996246 0 0 0
325 1 8.093827122946088 33.90259881463898 7.899152749367578 0 0 0
322 1 6.097765840089121 35.282081148980666 9.303206737251871 0 0 0
330 1 12.517548167034477 35.14868405953581 9.563271677798388 0 0 0
333 1 14.226128039060317 33.625739330791546 7.727800857361364 0 0 0
332 1 15.992178252737151 35.12265935525488 6.103174151063555 0 0 0
457 1 0.26393277434165846 18.972637798946515 13.064701104961822 0 0 0
320 1 4.703214261732137 36.8147098506698 7.5811193421377325 0 0 0
328 1 11.365829155960357 36.56326405567624 7.638003945294191 0 0 0
336 1 17.578880729099293 36.499976814303125 7.768549230255575 0 0 0
355 1 15.98931919952043 38.12051306519889 9.39674067412398 0 0 0
772 1 3.3343199498453857 3.1808700134469112 25.252372208878207 0 0 0
341 1 1.3535681814008813 39.80692222114246 8.130151321922044 0 0 0
349 1 8.214532115047547 39.94811904049564 7.681498580676021 0 0 0
354 1 13.122264023635775 41.37486272273779 9.82325109218848 0 0 0
357 1 14.437642730028182 39.79600234168781 7.803202974868221 0 0 0
363 1 2.9644975883635536 44.44753976222587 9.665372407643979 0 0 0
344 1 4.85998737027051 43.23132694475268 7.848430524968754 0 0 0
369 1 6.543915309811321 44.916556789712374 6.332696819746096 0 0 0
352 1 11.25977842014211 42.985402119493074 8.388507280040232 0 0 0
377 1 12.73611233166909 44.56963755532955 6.682807377581745 0 0 0
371 1 9.467378895201993 44.6005472397696 9.843179089719458 0 0 0
379 1 15.94880264120383 44.46441354762389 9.519715474052004 0 0 0
360 1 17.382776688561393 42.900468363526755 7.978312270510546 0 0 0
365 1 1.2323033142166946 45.950233942951414 8.18237477094504 0 0 0
364 1 2.7975016626380933 47.53585563964921 6.320182017692371 0 0 0
373 1 7.99953095142134 46.310680294921184 7.97861514430617 0 0 0
381 1 14.103772314886792 46.30515860004812 8.165783315419606 0 0 0
368 1 4.425439727843916 49.04240021564627 7.795202993872532 0 0 0
203 1 9.738776962678724 0.31138674931440846 9.567767100781975 0 0 0
376 1 11.210510713404062 49.425343718600544 7.8491908688038965 0 0 0
384 1 17.63086354313837 49.52097472611764 8.040708210986748 0 0 0
177 1 6.379745083940771 44.54723677422534 0.051323461914361115 0 0 0
937 1 0.09455853387692059 44.43916582327827 25.31197943941814 0 0 0
199 1 4.703760158597263 1.7645491377811588 10.842333849119814 0 0 0
393 1 6.301981925492277 0.27083124260721314 12.668836049371517 0 0 0
207 1 11.356419982693717 1.8521725304594818 11.05356184259309 0 0 0
215 1 17.41645422197468 1.6999010714401748 11.026382129756268 0 0 0
1849 1 18.922845829585377 31.780777680214623 6.174400631277005 0 0 0
481 1 0.015191913850599773 25.619687556469348 12.62693948875646 0 0 0
198 1 1.3859266201669902 4.323622773956462 11.080859997609254 0 0 0
202 1 6.533887988216425 3.0313357185777776 9.195445167844069 0 0 0
206 1 8.017210350827945 4.706755957107413 10.807920507959611 0 0 0
214 1 14.5032421556338 4.725739432268166 11.06312986989649 0 0 0
404 1 16.18541735708123 3.3568054579321744 12.908851522053485 0 0 0
223 1 5.098690215847751 7.704561207296258 11.260460123879987 0 0 0
231 1 11.104643724463742 7.88059053698193 11.4105801390872 0 0 0
239 1 17.65573357822434 8.011068182453474 11.041397540431102 0 0 0
222 1 1.4587105123023354 10.816897463988983 11.139259378939272 0 0 0
226 1 6.606501394195376 9.367578456791746 9.476711513512049 0 0 0
230 1 8.108207856249594 10.748816131177366 11.172998479221175 0 0 0
420 1 9.461418239742226 9.44300559678349 13.168644775679915 0 0 0
234 1 12.77523017499652 9.432599154567304 9.774336242938924 0 0 0
238 1 14.355020867538686 11.661548321503414 10.840764480076121 0 0 0
243 1 3.1101542597116913 12.703527159781476 9.74337104175989 0 0 0
247 1 4.726649765358153 14.475357293557357 11.189263399622577 0 0 0
251 1 9.318050402644113 12.927642357934966 9.684028122163372 0 0 0
255 1 11.133298882468033 14.610338499884625 10.93032516104824 0 0 0
263 1 17.687235259000897 14.312171695874788 11.233585005367377 0 0 0
246 1 1.8449995353873445 17.244574786701584 11.313416916195672 0 0 0
250 1 6.4588544871751195 16.110824073859668 9.57731407967172 0 0 0
254 1 7.9463901409460025 17.675023372501755 11.255309307965469 0 0 0
444 1 9.49932055757934 15.973048647044028 12.637954962715833 0 0 0
258 1 12.997438970788304 16.13482592692253 9.355836802961239 0 0 0
262 1 14.463940488291602 17.745276247689407 10.852423306997094 0 0 0
452 1 15.977357591934645 16.2281247079785 12.678990390961815 0 0 0
271 1 4.66023255390184 21.048778928464994 11.142719827309527 0 0 0
465 1 6.049023569974776 19.3228776694284 12.746047628452525 0 0 0
275 1 9.61451054800989 19.017181383044054 9.641490884400998 0 0 0
279 1 10.958862146544876 21.006446406088166 10.941840297370803 0 0 0
270 1 1.7235315236819537 23.949104010676635 10.89903236236531 0 0 0
460 1 3.2480043734435453 22.535027327180472 12.795469169432687 0 0 0
278 1 8.10767796295027 23.92154726715575 11.191717940567852 0 0 0
468 1 9.47544640379231 22.474584475026575 12.613208658268027 0 0 0
282 1 12.347214385008819 22.384467783135637 9.537733037653044 0 0 0
287 1 17.342118009391598 20.806290308786696 11.082320153520323 0 0 0
489 1 6.539815219304552 25.94682282768992 12.661183102881228 0 0 0
497 1 12.727218173634245 25.537204243314214 12.321080928758976 0 0 0
286 1 14.497862024185329 23.94817192424769 10.933824686216703 0 0 0
892 1 3.3330258513767257 35.2473073834539 25.442842685139954 0 0 0
484 1 3.0968751739146727 28.985401440029204 12.855415193443996 0 0 0
295 1 4.589108424907615 27.323754578831274 11.386241018486038 0 0 0
492 1 9.633207125490674 28.886787549255487 12.555726429386285 0 0 0
303 1 11.207125516267812 27.28704890405701 10.931546581849046 0 0 0
311 1 17.663390527881443 27.240255904116875 10.998545605544267 0 0 0
294 1 1.3906238189217683 30.34377969061015 10.824960618772447 0 0 0
302 1 7.880055941970476 30.50920216613924 10.962638585982965 0 0 0
310 1 14.444415166325618 30.29895862403724 10.677672887528704 0 0 0
331 1 15.836865253095272 31.984809516913703 9.22997353923871 0 0 0
521 1 12.826642026382993 31.80065749469048 12.311716174177215 0 0 0
319 1 4.568348787719409 33.59531652348758 10.73655849189859 0 0 0
508 1 3.1667136263912665 35.0608868984302 12.489088042208051 0 0 0
516 1 9.323526524961528 35.21128789099204 12.624257496114566 0 0 0
327 1 10.992063579546151 33.493097465204954 11.169943578727446 0 0 0
335 1 17.354337974124054 33.586980461913384 10.855612078310196 0 0 0
318 1 1.435988882985953 36.597633738163566 10.882357694219255 0 0 0
339 1 2.943135812592113 38.02188505862702 9.373457344963349 0 0 0
347 1 9.844416017234172 38.49095515588263 9.304711448559962 0 0 0
326 1 8.045366615579772 36.79873216876486 11.03472737397469 0 0 0
334 1 14.197723052832 36.383092899604975 10.970650836760953 0 0 0
545 1 12.432750007959681 38.311901938057005 12.412875569028635 0 0 0
532 1 3.072680708189344 41.41254816441405 12.590684464363989 0 0 0
346 1 6.0076352812012015 41.2078767027394 9.445260136686233 0 0 0
343 1 4.523586771932117 39.38444088709137 11.223111193166249 0 0 0
351 1 11.244519274466786 40.05175985976898 10.996030681316586 0 0 0
359 1 17.6506865194991 39.5861793382016 10.826026414156706 0 0 0
342 1 1.192669988416801 42.95492772138397 11.164638814280726 0 0 0
350 1 7.625378626625764 42.63516991312703 11.184802245503214 0 0 0
561 1 6.532173349379781 44.62084324165376 12.501255995534258 0 0 0
358 1 14.557748371879324 42.958098765055624 11.283956110420457 0 0 0
2185 1 18.81113172702265 18.875390088886274 19.546023264313302 0 0 0
367 1 4.6364434041726685 46.23205508830267 11.168817425287317 0 0 0
370 1 6.339116583453402 47.9757212359801 9.650329802843205 0 0 0
375 1 11.156675020573873 46.24412417089134 11.598292436470697 0 0 0
378 1 12.711716917010541 47.78120780446693 9.81572422039341 0 0 0
383 1 17.21402434240846 46.21401030316903 11.40460342686512 0 0 0
572 1 15.649796926448868 47.66981333108747 13.059037423469933 0 0 0
366 1 1.6324001063522098 49.72147118800889 11.232271210411918 0 0 0
564 1 9.482971674847063 47.93787466714241 12.963286197675272 0 0 0
374 1 8.219319291719632 49.69982022293489 11.322357647281867 0 0 0
401 1 12.750532688409985 0.3882628848517765 12.519230313035573 0 0 0
382 1 14.163459679214448 49.45714748003549 11.48048925935483 0 0 0
389 1 1.9491815779718342 1.2702117240616628 14.591417257407551 0 0 0
397 1 8.181201851904376 1.6248421656154255 14.563313175125993 0 0 0
405 1 14.525795226308107 1.5581312533465528 14.160783081202187 0 0 0
388 1 3.0220013085216197 3.143685685665297 12.657446325840471 0 0 0
392 1 4.69667670434439 4.74909095296449 14.126452615668041 0 0 0
396 1 9.488943310777266 3.17146371572729 12.577357754890691 0 0 0
400 1 11.0769339153869 4.861834522514583 14.317303210899516 0 0 0
408 1 17.998462478777878 4.758654811145979 14.383040219727116 0 0 0
777 1 6.439679899691467 0.011674945725161479 25.327323814927666 0 0 0
413 1 1.3838304118439293 7.570768215644909 14.269001969973509 0 0 0
417 1 6.509445943024907 5.828426112883545 12.73213196715731 0 0 0
421 1 7.643560586956032 7.735114080490089 14.73756401807411 0 0 0
425 1 12.970374997420976 6.415997425742663 12.54614750704648 0 0 0
429 1 14.567121811565002 8.054545467959233 13.992085949960847 0 0 0
73 1 0.16499534819565487 18.866864426054317 0.03528081145820394 0 0 0
57 1 5.978881331523007 12.758591171605483 0.06160605254874149 0 0 0
412 1 3.1837286027324514 9.218501959012553 12.721385334574963 0 0 0
416 1 4.632756198651259 11.05110216009722 14.408251969661492 0 0 0
424 1 11.280839022950946 11.400461793765635 14.483727829018882 0 0 0
428 1 16.033847986098387 9.917979666407344 12.361247761946009 0 0 0
432 1 17.827805915993164 11.44808718632627 14.042761122134719 0 0 0
437 1 1.0974737904627136 14.394958375456213 14.385089113031382 0 0 0
435 1 2.549194851993633 12.745351796776573 15.900616154764178 0 0 0
441 1 6.297699532830138 12.538923612542664 12.471532861161721 0 0 0
445 1 7.763816772638707 14.564448076065101 13.847673530088555 0 0 0
449 1 12.730984196601485 12.94670952508279 12.632363053173227 0 0 0
453 1 14.349844107782191 14.4844463539371 14.11995560787697 0 0 0
451 1 15.897951108492741 12.731267439252726 15.722264500233331 0 0 0
436 1 3.1570698197665226 15.67425612914029 12.987411681373521 0 0 0
442 1 6.23781924480944 16.065412423455957 15.841362558364239 0 0 0
440 1 4.1873305491690695 17.941662759012242 14.37329865168002 0 0 0
448 1 11.275505293838162 17.277539627219074 14.415986778459793 0 0 0
456 1 17.26160672889628 17.94508936508446 14.307366708731584 0 0 0
461 1 1.5008812429251488 21.047283973040045 14.523117561701214 0 0 0
469 1 7.761079283626182 20.847243895007413 14.13341183145074 0 0 0
473 1 12.69089819348701 19.228624635530583 12.684820835500174 0 0 0
477 1 13.885984863768863 21.15170875200074 14.16100391951527 0 0 0
2018 1 18.701963782725972 28.77839823378728 15.998762499434584 0 0 0
464 1 5.071092771452271 24.224944752191 14.488748802738764 0 0 0
466 1 6.386232470373899 22.365630087658303 16.056875408313765 0 0 0
474 1 12.519996552297044 22.653645353098852 15.770153788717623 0 0 0
472 1 11.142978641802829 24.356292706012923 14.20658901845479 0 0 0
476 1 15.925990525264929 22.418026084917887 12.584534896853055 0 0 0
485 1 1.800040614286178 27.138590885653585 14.209731713419187 0 0 0
483 1 3.2461342079811586 25.73423397041324 15.899380995631368 0 0 0
491 1 9.958341554864663 25.838475359196234 15.870963940114796 0 0 0
499 1 15.829247930229853 25.586831889367726 15.908348661392717 0 0 0
480 1 17.291988718832346 24.239475799031926 14.155728721299367 0 0 0
105 1 5.834650410493099 25.25092549730188 0.10492133195710679 0 0 0
493 1 8.134061897243587 27.262144750855505 14.444872252392134 0 0 0
490 1 5.92050728235444 28.483736828541662 15.670374239604111 0 0 0
501 1 14.310460714588805 26.999687857029805 13.889842520992751 0 0 0
500 1 16.020394551268883 28.77905142410895 12.23800144759218 0 0 0
833 1 12.729020983936556 12.592392028626398 25.40027880068654 0 0 0
488 1 4.5760090294037346 30.40736925111788 14.484811557733691 0 0 0
513 1 6.0317348472773995 32.059891217155055 12.57384767642805 0 0 0
496 1 11.463939965455967 30.395444883155623 13.923350789590627 0 0 0
504 1 17.47706224419402 30.515140404264006 14.071067787537572 0 0 0
509 1 1.6290461750806893 33.56223952064663 14.041999205173822 0 0 0
2425 1 18.645623302407287 31.4721265257317 25.1738889316593 0 0 0
517 1 7.681527583754773 33.53536294549555 14.046813908116027 0 0 0