LAMMPS data file via write_data, version 29 Oct 2020, timestep = 100000

8501 atoms
1 atom types

-0.23644808520879224 104.64360590637718 xlo xhi
-0.18737026153347358 51.14971349159694 ylo yhi
-0.18737026153347358 51.14971349159694 zlo zhi

Masses

1 18.015

Atoms # atomic

294 1 4.445657476456838 3.047652439951393 1.4040687687702684 0 0 0
190 1 3.238283978056083 0.8116613941499691 0.10717612569969498 0 0 0
289 1 9.500471812966408 1.5887762613166252 0.12449046287131205 0 0 0
195 1 15.489057693659495 1.023885796795499 0.08305809853705515 0 0 0
297 1 17.20833746495943 2.9827501793860614 1.588840721629614 0 0 0
1001 1 21.605139987141303 1.3121120120693608 -0.15485484794689583 0 0 0
1002 1 23.309712719338158 2.766858300593901 1.4268830064251359 0 0 0
1080 1 28.25210976114578 0.9749462914260563 -0.13198338284499161 0 0 0
1004 1 30.092467048559648 2.7690669912470267 1.5398614210713386 0 0 0
300 1 1.1147783177980155 5.616788275574524 1.6435327947964755 0 0 0
302 1 7.772136053731991 6.001427926710293 1.369520115402291 0 0 0
2377 1 31.806593313286868 36.42835166822847 25.432608556980014 0 0 0
296 1 11.124475355973077 3.135620365135831 1.616127304268031 0 0 0
303 1 14.283670737671224 6.020486044316 1.6257329527627815 0 0 0
199 1 12.647897183848727 4.700330077645572 -0.0439034894181515 0 0 0
745 1 18.6842411732927 4.338637523719474 0.10906285485599143 0 0 0
1008 1 26.804591697790386 5.752255073659348 2.1136331176836154 0 0 0
1007 1 25.431987236241962 4.367272091698879 0.10859996525718019 0 0 0
1010 1 31.366641465122694 4.538198688436366 0.2285667591470173 0 0 0
204 1 2.966606098573995 7.296488053441725 0.28200055618444364 0 0 0
305 1 4.842140386641029 9.011020455663624 1.823839103283731 0 0 0
206 1 9.36544441202465 7.934324486047627 0.18027767623017632 0 0 0
208 1 15.842453353106762 7.6023869068274585 0.17127136978785268 0 0 0
1006 1 20.407455180524547 6.084944563260278 1.5370825527568028 0 0 0
1013 1 24.072398639110048 9.028655362328694 1.8257401306148302 0 0 0
1568 1 9.09890414324899 49.07432133019198 22.348517184023198 0 0 0
936 1 28.1777882293228 7.160204161875388 0.2905910170209379 0 0 0
1014 1 30.10998075158571 9.058873060993834 1.6342278737079654 0 0 0
1011 1 33.2250212770206 6.111370892923701 1.558221840396707 0 0 0
2319 1 34.391203999085505 49.446688278567905 22.156709853166987 0 0 0
310 1 7.863491358568007 12.067245297009514 1.7360335621069487 0 0 0
309 1 6.355880232530487 10.680576638236351 0.03307684781031603 0 0 0
306 1 10.871709121178698 9.187741927302062 1.9745493858092327 0 0 0
312 1 12.54886426665715 10.745852995412184 0.3318718285917912 0 0 0
307 1 17.448557660334725 9.318732606893603 1.6039151724410046 0 0 0
829 1 19.080348863387364 11.021726245842938 0.16248562094928565 0 0 0
1016 1 20.78844363953156 11.962095972491966 2.207098157215818 0 0 0
1017 1 25.728915883899695 10.721010525728843 0.11024400264267875 0 0 0
941 1 31.888031112427477 10.848521556832933 0.32330076182214107 0 0 0
308 1 1.1878483939762474 12.13559432354352 1.7021618007122887 0 0 0
314 1 2.84578556780614 14.029642189729184 0.30078487318621683 0 0 0
316 1 9.078090968936383 14.25463860200202 0.24120861904201746 0 0 0
313 1 14.134866647993842 12.98356632245487 1.4024932290153787 0 0 0
221 1 15.830189977150766 14.189795705833285 0.052649056770702946 0 0 0
1022 1 22.295906869498218 13.636325792363717 0.4169866421164711 0 0 0
1018 1 27.066430523897573 12.430890707999588 1.7013832705775733 0 0 0
944 1 28.683013057347054 13.96662481437237 0.44348841372458214 0 0 0
1020 1 33.349119771858 12.45061387112584 1.9999330402344468 0 0 0
1025 1 34.55222028703279 14.495432868762737 0.07631872500806597 0 0 0
315 1 4.4686370844528 15.808439105522623 1.7523624356788354 0 0 0
320 1 6.2076527823773056 17.45033649129911 0.13407498019163822 0 0 0
317 1 10.900476950389956 15.943951053834557 1.4924060598520987 0 0 0
323 1 12.77194678065267 17.47443271891514 -0.08827313841379729 0 0 0
318 1 17.480183204758436 15.644611867050141 1.7968583126249527 0 0 0
1026 1 18.962004298509385 17.24081378120521 0.4966779064544974 0 0 0
1023 1 23.659761873323937 15.436982905487385 1.9367559736002673 0 0 0
949 1 25.16575446213599 17.08025936953142 0.5549781447730731 0 0 0
1024 1 29.643352774140205 15.69833189143491 2.1734712122369237 0 0 0
1029 1 31.465338809318368 17.37052914236341 0.1967799186774189 0 0 0
319 1 1.5756562937122642 18.588545077347945 1.8770041200904908 0 0 0
230 1 2.774220834932094 20.36041259427929 0.42775715453844865 0 0 0
321 1 7.701037380946522 19.020686173851285 1.8186680345180295 0 0 0
328 1 9.37571678654715 20.368121508733253 0.19850412615824348 0 0 0
324 1 14.244214537372569 19.091215281200483 1.414197898087873 0 0 0
234 1 16.158225300406357 20.55227744744526 -0.08857231017799101 0 0 0
1031 1 20.538837456648498 18.93777653542376 2.056387820976518 0 0 0
1032 1 21.94442623163488 20.515290018152374 0.3256839007258534 0 0 0
1028 1 26.375658994526127 19.268268801013654 2.0505786563659605 0 0 0
1034 1 28.16489741838847 20.80281055141113 0.572953049913444 0 0 0
1036 1 33.4272012855435 19.018053275439012 1.5584370923329167 0 0 0
2308 1 21.927972625930487 49.26303012283778 22.446659394183406 0 0 0
326 1 4.401958722547659 22.407707233710056 1.7056358554594953 0 0 0
237 1 6.059234355518026 23.988724420561223 -0.08171429507541572 0 0 0
329 1 10.7253543345445 22.36520826114721 1.5039664733391693 0 0 0
334 1 12.119165531643985 23.748647976198427 0.09433830672200749 0 0 0
335 1 17.133708964656385 22.16426515617778 1.6449986919966577 0 0 0
780 1 18.890242462889937 23.46014412469067 0.11710055311064221 0 0 0
1033 1 23.515515445032626 22.38531451592764 1.3766342962237355 0 0 0
1035 1 30.295030844904584 22.263016250716213 2.02593485746762 0 0 0
962 1 31.78948389109457 23.857931709237175 0.3988884707917476 0 0 0
330 1 1.45371067349152 25.319436305640444 1.46099021883945 0 0 0
332 1 7.862959381745142 25.29177120984462 1.754826627804155 0 0 0
242 1 9.380561796725273 26.992986638724517 0.007726361319670694 0 0 0
338 1 14.278269451709914 25.318500554276074 1.495919345046513 0 0 0
3402 1 -0.176479205466121 10.75409435711665 13.783246776082715 1 0 -4
1038 1 20.353849164902066 25.539436130558176 1.6366880724355766 0 0 0
1663 1 17.44135192246817 50.74555884660745 24.092713328505052 0 0 0
1040 1 26.664528617735044 25.45036501669764 1.667408171752105 0 0 0
1044 1 28.467394914260556 27.216412152771248 0.4351930798453997 0 0 0
1045 1 33.2245760345066 25.355805569393755 2.0062093264150596 0 0 0
967 1 34.446339659326306 26.7881615628979 -0.08872434170509874 0 0 0
241 1 2.7558170141008196 27.381658972783487 0.19744685753786867 0 0 0
341 1 4.330554935648846 28.707355896848988 1.9501145645289597 0 0 0
248 1 5.927692920214487 30.118380946868108 -0.09354909539867638 0 0 0
343 1 10.974593868261245 28.67050589648195 1.4936322832421298 0 0 0
5158 1 0.006033416837792321 15.297977836806831 8.491363229510418 1 -2 0
344 1 17.456244716885113 28.623528907892847 1.5608947450537485 0 0 0
434 1 15.806788530229806 30.16837492491518 2.8052240896500704 0 0 0
8451 1 0.14018606113173088 0.5170055604406414 4.375069076272118 1 1 3
1046 1 23.467261646638647 28.374125391247325 1.7369478581979108 0 0 0
1047 1 25.08330584080245 30.044386296963477 0.29157019413223695 0 0 0
1048 1 30.372523519432367 29.03083632045386 1.5508676008248572 0 0 0
345 1 1.1194939857950075 31.739255655210968 1.3866272274111906 0 0 0
346 1 7.634442357924495 31.90532856686729 1.5248465401872773 0 0 0
347 1 14.224612442436017 31.69425835357265 1.2387603653028456 0 0 0
1051 1 20.549623078057024 31.84303352586832 1.3362277192780094 0 0 0
1053 1 26.923124876764074 31.63140191562613 1.4330024800653391 0 0 0
1052 1 28.62737676240519 33.183859602139954 0.14293344587539414 0 0 0
1054 1 32.98624653285096 31.746345497198924 1.209677052006513 0 0 0
141 1 -0.18815116168129428 17.340124081000926 6.751883691047552 0 0 0
350 1 4.309713672200831 35.00357743169316 1.2978775060723038 0 0 0
255 1 9.191364658418529 33.51265978680565 -0.08494176348980383 0 0 0
353 1 10.758686314567504 34.90095645118937 1.7329666498375167 0 0 0
3065 1 34.6838825029266 23.592558484170553 15.99651472264334 0 0 0
354 1 17.145976977916952 34.99520859298001 1.4173992075525594 0 0 0
1570 1 15.948482474151092 49.37197358379564 22.383438006367875 0 0 0
1056 1 23.877836109829325 35.0638311728483 1.6045340721471177 0 0 0
1058 1 30.202380815542977 34.67847383141579 1.7503761481207283 0 0 0
355 1 1.1650374239067542 38.01769966604051 1.4442499864068525 0 0 0
262 1 5.845144345749592 36.69697436422533 -0.14111014393707852 0 0 0
358 1 7.800403028057735 38.219588809533775 1.597218779093702 0 0 0
263 1 12.290169060902745 36.563052761490816 0.11997736402177661 0 0 0
359 1 13.976950343080302 37.802315259452364 1.532890294891136 0 0 0
729 1 18.866461889234596 36.380079519313824 0.19570510801132796 0 0 0
1061 1 20.653938518763646 37.85055934399381 1.6167254584718938 0 0 0
1057 1 25.37679506661359 36.614775630911296 -0.18334964686338728 0 0 0
1062 1 26.805056926126255 37.937269289591875 1.8559631957946632 0 0 0
1059 1 31.732460870997535 36.85971782122289 0.03727777307475777 0 0 0
1065 1 33.28271993338085 38.12557605774625 1.8029037632857807 0 0 0
356 1 2.6781104092492165 39.44755109923378 -0.07058331297770828 0 0 0
363 1 4.264775653533135 40.81546445563375 1.786343317713914 0 0 0
357 1 9.606526237061395 39.9184655658009 -0.1395995161492713 0 0 0
364 1 11.012134657576384 41.48540730615296 1.5583699322207838 0 0 0
270 1 15.775590991146853 39.546566908118294 -0.0472084344780557 0 0 0
365 1 17.443490756729833 41.01799613618226 1.3876972134706336 0 0 0
979 1 22.39267108237997 39.62428250766315 0.24060749177196988 0 0 0
1066 1 23.7390286178344 41.31589743611477 2.041954541047759 0 0 0
1064 1 28.463646438825442 39.50477255934315 0.293175829918328 0 0 0
1068 1 30.066944972038193 41.11661581015121 1.7553723051079868 0 0 0
1526 1 -0.183821464468608 13.991944483960344 16.49013728483208 0 0 0
366 1 0.9207618068691101 44.39999033520596 1.7276410272190186 0 0 0
362 1 5.754659396254561 42.64606996526994 0.0015018051309749203 0 0 0
367 1 7.378763659147426 44.07897524900661 1.747883740437753 0 0 0
274 1 12.897262641799822 42.81371256920474 0.3809790095365194 0 0 0
369 1 14.338391270696237 44.403173847327245 1.8474274753264148 0 0 0
1021 1 19.19108762439347 42.83747702834617 0.003754687320356609 0 0 0
1071 1 20.712669433531573 44.634190636094175 1.5303754658314368 0 0 0
985 1 25.348866477637934 42.89715599821985 0.29902236886553407 0 0 0
1073 1 27.19542591333639 44.50685982162364 1.7476926782378628 0 0 0
988 1 31.77998515475985 42.76133490124243 0.15484919488543297 0 0 0
1074 1 33.7538826454319 44.54092008812205 1.3374708690240513 0 0 0
276 1 2.6995561788710782 45.89847128104866 0.22247955082223714 0 0 0
371 1 4.378076034607657 47.69000326693255 1.7318360683963816 0 0 0
281 1 9.228006616570289 46.052080379325886 0.4009853633455597 0 0 0
373 1 10.923945002757375 47.70211980478428 2.1629997622182677 0 0 0
282 1 15.73491512295876 45.91541141365252 0.07624989861184023 0 0 0
375 1 17.005111637283182 47.67188753025129 1.9685491733372071 0 0 0
989 1 22.409044997444003 45.995750041883085 0.08631013844190782 0 0 0
1075 1 23.497786155569006 48.027678128857076 1.8089248572813252 0 0 0
991 1 28.54607995002113 46.05033500984254 0.0063327612494314955 0 0 0
1077 1 29.982840241184107 47.68420772215699 2.0083164679088856 0 0 0
377 1 1.3622209302096966 -0.14394410887026204 1.795539351867636 0 1 0
372 1 6.0874440728718895 49.440525456694495 0.20737779895749042 0 0 0
379 1 7.975039680812181 -0.16568020487915658 1.88598000585844 0 1 0
374 1 12.485101276478547 49.245247204300995 0.3734225423102371 0 0 0
381 1 13.942552246923396 50.92777662353161 2.0447333866046815 0 0 0
748 1 18.577776821478164 49.0849995596935 -0.07980122814743021 0 0 0
1078 1 20.048101242858905 51.0275531017037 1.4219691302635726 0 0 0
995 1 25.264200570259252 49.40845271365538 0.07883806335660082 0 0 0
1081 1 26.48339449940199 50.806635224244566 2.0225560235991944 0 0 0
1082 1 31.839036543108193 49.10243609882499 0.591029878097736 0 0 0
1083 1 33.231157448041785 51.086606405520484 2.0319628033257886 0 0 0
2404 1 29.897372442423332 50.62938443125157 24.133918559651114 0 0 0
382 1 1.6802479769091212 2.5513713066070554 5.167893458615412 0 0 0
295 1 6.050163402568934 1.5480612915960623 3.237752719936722 0 0 0
383 1 7.936772364387565 2.9073961442347938 5.139678871938985 0 0 0
380 1 12.524069670306808 1.6659546714748052 3.087558738411125 0 0 0
384 1 14.306312486330773 2.8404229266949823 4.73556604196959 0 0 0
746 1 18.82339712397228 1.3890969922022491 3.3777746180207404 0 0 0
1084 1 20.50392771870431 2.8440431647337534 5.118221720818687 0 0 0
1003 1 24.703914689353894 1.729674483314664 3.5345503046569084 0 0 0
1085 1 26.98439647624737 2.861211901297261 5.149271073844306 0 0 0
1005 1 31.55089783190977 1.5866325267719115 3.6012501628160405 0 0 0
385 1 2.7572860019020644 4.432211710657992 3.2263182123601974 0 0 0
386 1 4.438546170278049 6.0439293824786455 4.7011005900922855 0 0 0
387 1 9.24965582276969 4.460098963086919 3.1459147355933745 0 0 0
304 1 15.97246020067903 4.646169463366133 3.4787119261327737 0 0 0
389 1 17.792634160466804 6.053530845458933 4.958697088780805 0 0 0
1088 1 21.947784147644327 4.39409937382044 3.219210143577355 0 0 0
1089 1 23.669529387646396 6.049244029174128 4.904252908561538 0 0 0
1009 1 28.60172703507369 4.3351006107614865 3.5118144670218783 0 0 0
1087 1 33.38119816651434 3.412493538750152 4.913874615782706 0 0 0
391 1 1.1126738672478411 8.876701394051523 4.8442104441094465 0 0 0
392 1 6.258443162287582 7.127508455310743 3.30129751533978 0 0 0
393 1 7.397017110391011 9.041693461822556 5.314614863884438 0 0 0
388 1 10.843890357977825 6.1571162563037865 4.8927016040402505 0 0 0
394 1 12.744776392568088 7.717390080641502 3.114581770007211 0 0 0
495 1 15.84180107474661 7.613902751904439 6.066833070639944 0 0 0
743 1 18.81081786063675 7.848717572784578 3.1401863273725144 0 0 0
1094 1 25.466793110868412 7.4646757270201824 3.5652112768737956 0 0 0
1091 1 30.42990593076378 6.128991512713629 5.009724906846105 0 0 0
1015 1 31.824811735442196 7.781570524211587 3.4003426892861257 0 0 0
398 1 2.9196492028985483 10.530913976217006 3.290508627326153 0 0 0
311 1 9.222022523995104 10.75630035544121 3.7395266789052632 0 0 0
395 1 14.347801566460447 9.362380843759528 4.566205598755649 0 0 0
401 1 15.82029486355292 11.233142008612454 2.9289550047516335 0 0 0
1093 1 20.591161443155446 9.17302465186351 4.804391619999978 0 0 0
1098 1 22.669556029627426 10.542495199592002 3.556959265937731 0 0 0
1095 1 26.824069262801064 9.31171322723635 4.918546503633427 0 0 0
1019 1 28.63563356727029 10.870140783056467 3.24851590765592 0 0 0
1097 1 33.32470241630831 9.331283413771141 4.752856133958029 0 0 0
399 1 4.374374331107014 12.370719905369889 4.984007970546608 0 0 0
405 1 6.045864171669303 13.86439142636542 3.0396737416123143 0 0 0
400 1 11.048597214203602 12.7214532104578 5.059780598679779 0 0 0
407 1 12.504444314424811 14.2737807406694 3.201136313030452 0 0 0
402 1 17.621306581284486 12.76926586460794 4.617080024159897 0 0 0
1030 1 19.406672062100228 14.257028352008925 3.3626110455572795 0 0 0
1099 1 23.90670436544894 12.410191530089186 5.265107875412038 0 0 0
1104 1 25.334317719065094 13.76973245460421 3.204854553233646 0 0 0
1101 1 29.97284980832975 12.573933873408532 4.916656243665317 0 0 0
1106 1 31.65577896875078 14.351572463429521 3.5412740503194553 0 0 0
403 1 0.8251913003695439 15.72772406132903 4.960754038270853 0 0 0
410 1 2.8928855984114503 17.012051974743237 3.5575809816026474 0 0 0
406 1 7.5177461397260075 15.89788019026955 4.421225353655587 0 0 0
322 1 9.260073872589624 17.31201933570924 3.2067502097910676 0 0 0
408 1 14.12966953337687 15.817563903810075 4.694578036265319 0 0 0
325 1 15.763582350883624 17.568098347931578 3.2479469880882776 0 0 0
1102 1 20.485349798535463 15.861005741163392 4.938852870307955 0 0 0
1027 1 22.461977746730206 17.457940137361106 3.5818975977353085 0 0 0
1105 1 26.265157172137044 15.613540881864576 4.937634607042228 0 0 0
1110 1 28.207466350998676 17.3300142241388 3.7034880136613126 0 0 0
1107 1 33.21239819309892 16.100548976958102 5.1359601539106725 0 0 0
266 1 -0.011627173591078122 20.32340278062413 3.635174304846119 0 0 0
327 1 5.796210422516646 20.675019783587658 3.3152678925906907 0 0 0
412 1 3.9271972815632976 19.288373978293148 4.948917217185514 0 0 0
413 1 11.043242513030428 18.621639534611653 4.991773192377535 0 0 0
417 1 12.464200694369609 20.580396149637952 3.2538003577568113 0 0 0
414 1 17.05288111626253 19.29181405767595 4.882726031849394 0 0 0
837 1 18.88342709310562 20.72100196498127 3.2352554015642117 0 0 0
1109 1 23.495751683514445 19.31078975871717 5.223344922041675 0 0 0
1114 1 25.003986934787072 21.110514297221737 3.4526579972573037 0 0 0
1111 1 29.91134355700913 19.21446234534197 4.817797253035826 0 0 0
1115 1 31.954190094070583 20.513172511841567 3.4448029687516346 0 0 0
415 1 1.2301849386250283 22.406206400165097 5.099325210588961 0 0 0
331 1 2.984177703978676 23.899799515776245 3.3648837575619415 0 0 0
416 1 7.514997886989968 22.205379770649483 4.708087169299288 0 0 0
333 1 9.236105846357935 23.83911900417047 3.181906603628934 0 0 0
418 1 13.663986408970075 22.511041774170128 4.735787748611511 0 0 0
424 1 15.71201331047546 23.78233822819815 3.1531200978590532 0 0 0
1112 1 20.377440123732942 22.2679001989299 4.87060228824374 0 0 0
1039 1 22.002306573968433 23.75085038181968 3.211487940724232 0 0 0
1117 1 27.048226856145657 22.451905499119466 4.851422311547581 0 0 0
1041 1 28.599326142290035 24.008539649958657 3.4643679935192098 0 0 0
1116 1 33.463253976812965 22.147162092563438 5.103859247918226 0 0 0
420 1 4.814434429936454 25.596361644531573 5.064821314715125 0 0 0
423 1 10.910194770242942 25.72822605449982 4.7815520867699295 0 0 0
337 1 12.500663483570142 26.913780899930558 2.8886302368020416 0 0 0
429 1 17.08338256725641 25.61094982700578 4.730491808478008 0 0 0
728 1 18.768426012536835 26.859300525241487 3.2048058740584624 0 0 0
1119 1 22.855023379732327 25.77763197941322 4.764478221371511 0 0 0
1043 1 25.235459231254254 27.009332763902158 3.42015904692964 0 0 0
1118 1 30.29529606697094 25.661886871381892 4.611839435152931 0 0 0
1121 1 31.636460298219312 27.132743980249174 3.0656092284963417 0 0 0
425 1 1.5305205955052326 28.52146414567962 4.784707138715038 0 0 0
336 1 6.288931849635063 27.32501009208058 3.2300696822948423 0 0 0
431 1 7.889447056862791 28.64550382090946 5.020772243111508 0 0 0
433 1 14.09013128588264 28.382014954586797 4.463560151745039 0 0 0
1123 1 21.92025270782429 30.123161440950753 3.139453249422228 0 0 0
1124 1 20.34463871983672 28.60419007881073 4.901154604347367 0 0 0
1125 1 26.818633248623872 28.49099633706108 4.809533076008117 0 0 0
1049 1 28.403833962851262 30.094638161349547 3.3643348900991414 0 0 0
1128 1 33.62368765062494 28.539439045430157 4.44807355364009 0 0 0
340 1 2.832454269049066 30.37553630280039 3.425065487510419 0 0 0
1662 1 10.897667076485192 50.30587941285119 24.07369180794426 0 0 0
436 1 4.317404033721292 31.803095247933104 5.060868588583573 0 0 0
342 1 9.394486878399698 30.276534665216936 3.12419835637706 0 0 0
438 1 11.232418104026273 31.791123993718823 4.497200173832799 0 0 0
349 1 12.600478267874882 33.201861858358576 2.879228660290522 0 0 0
439 1 17.26918379607208 31.911290153961524 4.645497990507602 0 0 0
1131 1 23.965736768675594 31.59378035806063 4.6536287121763635 0 0 0
1134 1 29.948480998016972 31.321128937499207 4.954895383842186 0 0 0
1135 1 31.599655994274297 33.1190481662968 3.2947988534802564 0 0 0
440 1 1.358853811382851 34.97037037108826 4.616315111365268 0 0 0
437 1 5.7788537210892255 33.4621148799111 3.142390855609373 0 0 0
442 1 7.435133392262042 34.94338811805935 4.621148745571931 0 0 0
444 1 14.103040199161908 34.959361319262065 4.864296055684625 0 0 0
803 1 19.16417890140867 33.459350133492556 2.9475132702972986 0 0 0
1137 1 20.946885807175093 34.835070470279526 4.9249808166565 0 0 0
1130 1 25.42131954799605 33.410616712032045 2.910144623383082 0 0 0
1139 1 27.173695715992274 34.88732969568886 4.656861357260767 0 0 0
1141 1 33.33755843984123 35.04699907110633 4.971453844384108 0 0 0
351 1 2.9025673241896235 36.47491038462667 3.0572979490942256 0 0 0
448 1 4.2415173375280695 37.966346631457974 4.913525685290761 0 0 0
352 1 9.083588623199544 36.62590274930677 3.192998885168387 0 0 0
449 1 6.23892688481602 39.28091950266751 3.4836528320343265 0 0 0
450 1 10.622523963948966 38.156610292316884 4.898218159476254 0 0 0
445 1 15.561281960965589 36.45598968379773 3.063168287897106 0 0 0
451 1 17.296184814456623 37.82410383527775 4.681403463522905 0 0 0
1055 1 22.42963085303524 36.63013670119444 3.3427367201727916 0 0 0
1143 1 23.972414324392634 37.94783694063704 5.13302527748649 0 0 0
1140 1 28.575018099847874 36.63525933564468 3.247617826674846 0 0 0
1145 1 29.89614625030986 38.145481570120005 4.8427035271271786 0 0 0
453 1 1.1969463536655556 41.24302940971128 5.039698077400222 0 0 0
455 1 7.836442110623883 41.26886656060774 4.997775325886861 0 0 0
360 1 12.205037478053963 39.7387083161848 2.980785810795829 0 0 0
457 1 14.131662566120468 41.31961287603981 4.525799819394041 0 0 0
471 1 18.786960768478455 39.43423699995422 3.0285960043198576 0 0 0
1149 1 20.640959377355415 40.930390664999116 4.509330033977928 0 0 0
1063 1 25.283083779924322 39.53988796566667 3.287274588960641 0 0 0
1150 1 26.864630845740777 40.92579503566898 4.952753638430402 0 0 0
1146 1 31.682732217750686 39.808385675150355 3.405536180378501 0 0 0
1154 1 33.691110363058776 41.23568301237422 4.917465780758182 0 0 0
361 1 2.808164671422683 42.85154618888814 3.159293845281595 0 0 0
459 1 4.5591410073225935 44.56398861381348 4.592322284072898 0 0 0
456 1 9.243045502534951 42.962749605657564 3.4820595217023627 0 0 0
462 1 10.93506774565523 44.332007826764894 5.0859887549328935 0 0 0
458 1 16.038557715464755 42.68533827087015 2.9882164311734294 0 0 0
464 1 17.366748329154643 44.30313607053807 4.6665680165597125 0 0 0
1067 1 22.06889523010337 43.00787903108419 3.4137025546493036 0 0 0
1155 1 23.778073434612086 44.23983354375038 4.957286072740911 0 0 0
1152 1 28.78258759453346 42.548189556944486 3.4324963287041004 0 0 0
1156 1 30.279745599727804 44.49389597562628 4.796587612696091 0 0 0
466 1 1.1191835627705018 47.71707812357366 5.006526792170238 0 0 0
368 1 6.281259932110927 46.07245618446533 3.0695137464419617 0 0 0
468 1 7.816445050474387 47.79507250302254 4.93006141153177 0 0 0
463 1 12.493602110708878 45.876872776031014 3.393226689983095 0 0 0
469 1 13.84679368154627 47.51846118849568 5.091300653153658 0 0 0
735 1 18.848307773741332 45.996135018367966 3.2730259019497727 0 0 0
1158 1 20.3114480899406 47.83424431168452 4.723977250634319 0 0 0
1072 1 25.145371250038778 46.35208286117236 3.3931068816765095 0 0 0
1161 1 26.78421437360634 47.78854985187454 4.845737971101643 0 0 0
1157 1 31.81444168789737 46.00749649783031 3.1241196108596747 0 0 0
1162 1 33.42587028223622 47.61021898563331 4.773438959097257 0 0 0
472 1 2.7011885281375663 49.374585745772144 3.301212010954739 0 0 0
473 1 4.7803277002152775 50.64003326688731 4.733153413764327 0 0 0
378 1 9.243660706548958 49.40253007630167 3.533360637238535 0 0 0
475 1 11.140917733020359 50.970572056882595 4.570019660013229 0 0 0
376 1 15.434733726857859 49.13341473125184 3.6294883539305194 0 0 0
477 1 17.09193613913199 50.95560664887438 4.684483823035718 0 0 0
1079 1 21.48906275493064 49.38512873304572 2.9329527061216716 0 0 0
1163 1 23.538796707392144 50.66023295208234 4.594022506783874 0 0 0
1076 1 28.411901181642065 49.251349449465366 3.35481270251495 0 0 0
1164 1 30.027607388078405 51.01585341925008 4.738654064727549 0 0 0
480 1 3.361847910720105 0.9223251652303643 6.776209968678214 0 0 0
481 1 10.973953572723604 2.870135342997717 8.172417242679824 0 0 0
474 1 9.646228510275007 0.9829091249701642 6.703994520960367 0 0 0
476 1 15.647811078290182 1.3831134645711316 6.558207463974619 0 0 0
1167 1 23.449409908049947 2.958534640596907 8.135786268259585 0 0 0
1165 1 22.267581876786107 0.9414697524362534 6.341232457298088 0 0 0
1168 1 30.472069526253993 2.6392267639903864 8.017548717858581 0 0 0
1086 1 28.559435394136987 1.0409734049766552 6.799955823624136 0 0 0
222 1 -0.14669702810433644 4.114618971193895 6.62857895775296 0 0 0
479 1 4.562984842250499 3.4934388818221715 8.214713472436257 0 0 0
485 1 6.172575935911429 4.566069557041086 6.397518669953382 0 0 0
486 1 7.599615509964191 5.841551706803608 8.388817149881463 0 0 0
487 1 12.35070342293403 4.169207414349836 6.195920316803063 0 0 0
483 1 16.894335326073154 3.105626621850095 8.169946227231671 0 0 0
833 1 19.16055036476124 4.554299897542307 6.689328198853971 0 0 0
1090 1 24.928467920318596 4.433893957929381 6.3537887238508475 0 0 0
1170 1 26.985770175928696 5.82759088621542 8.177527145152148 0 0 0
1092 1 31.945660243015837 4.770240914739701 6.637786450625325 0 0 0
484 1 1.2462733049643442 6.119138324974342 7.799113575904348 0 0 0
491 1 2.9385327127456944 7.600332844219633 6.331718024868796 0 0 0
493 1 9.287090916524601 7.592286973974685 6.637390152812408 0 0 0
488 1 13.669652836563506 6.371473915717425 7.817799554583855 0 0 0
1169 1 20.466304403709813 6.412911570502072 8.325550698685992 0 0 0
1173 1 22.115771878256016 7.578462763613865 6.56600264350452 0 0 0
1096 1 28.470544770154895 7.5497787074724405 6.446096109385342 0 0 0
1171 1 33.86766844512705 6.408392178388402 7.912396789410462 0 0 0
492 1 4.380904130949059 9.371876082454216 7.929894521490429 0 0 0
498 1 6.1561082423929525 10.971902100237672 6.5627133258961665 0 0 0
494 1 11.052982770958149 9.65732654376459 7.980536642370717 0 0 0
500 1 12.726986643508765 10.732229868076132 6.315470460438134 0 0 0
496 1 17.401780478070688 9.400921776542079 7.492915973962895 0 0 0
831 1 18.939712017201025 11.058902858949187 6.213939564172869 0 0 0
1174 1 23.689694367792786 9.444527222880202 8.011447716330704 0 0 0
1100 1 25.567764065169033 11.031416908065337 6.655561963214557 0 0 0
1176 1 30.055122200492523 9.351983353985284 7.723077449556101 0 0 0
1182 1 31.895816995746195 11.005692436519093 6.613398903968592 0 0 0
497 1 1.1345882685505222 12.156628829364534 8.344920419171872 0 0 0
404 1 2.2826204848147533 14.071631279920007 6.482240086085444 0 0 0
499 1 7.966866071436801 12.881233400337178 7.9809059035023235 0 0 0
504 1 9.357075939948313 14.506209976646574 6.201602148863198 0 0 0
501 1 14.362469427113234 12.232993645368847 7.910694735312253 0 0 0
409 1 15.683863643572721 14.057491543132631 6.303187158291729 0 0 0
1178 1 20.55926295445615 12.756009324424067 7.899559466610727 0 0 0
1103 1 21.957982804159652 14.059323416064878 6.319531876348313 0 0 0
1180 1 27.25271036324102 12.601919734754063 8.274864665251224 0 0 0
1186 1 28.36214660110948 14.414490287673546 6.493622715121999 0 0 0
1183 1 33.11943035284195 12.874732777358693 8.422391674645038 0 0 0
2447 1 25.078757372781848 30.074690365550882 25.366113802372197 0 0 0
503 1 3.9295210652602286 15.804315095426144 8.124322911497506 0 0 0
411 1 5.985748436183333 17.404746283671592 6.422753506352405 0 0 0
603 1 9.233226317401256 17.419316626960725 9.27652349363172 0 0 0
505 1 10.843763921693972 15.770276010130008 7.923223284258363 0 0 0
510 1 12.670029241793461 16.995623137573975 6.487828558174753 0 0 0
506 1 17.38377472848621 16.03532019315038 7.66649135178204 0 0 0
605 1 15.673088443848984 17.697608480286817 9.196203368043658 0 0 0
873 1 18.92836315564755 17.689694001167375 6.240346606747959 0 0 0
1184 1 23.411998989942816 15.830414924647425 8.028262170154802 0 0 0
1191 1 24.938140049655164 17.45947280364877 6.6409647554583815 0 0 0
1187 1 30.39476106069941 15.816762859128382 8.110705329529134 0 0 0
1193 1 31.474718583792583 17.716091695287286 6.468570874615344 0 0 0
507 1 1.6369909050086777 19.015565902564727 8.288970638193254 0 0 0
513 1 2.7580627838477305 20.84514200125123 6.882087529931889 0 0 0
509 1 7.847674320895841 18.97738297808227 7.624016158747961 0 0 0
515 1 9.50163013602339 20.584832931854503 6.083992855951045 0 0 0
511 1 14.133065794817236 19.059666455312616 7.6924249344424185 0 0 0
516 1 15.473808272015848 20.86398237858731 6.2997341646398715 0 0 0
1113 1 21.937634181615717 20.90354356248568 6.518113185131283 0 0 0
1189 1 20.230732764478446 19.36270107702401 8.02315648905732 0 0 0
1192 1 27.03742967733771 18.851515481451546 8.025395627366912 0 0 0
1196 1 28.59464900738326 20.87081668234002 6.679986144546503 0 0 0
1194 1 33.25406880871686 19.149204756582797 8.170930274587121 0 0 0
1709 1 12.061057751904334 23.871602221164025 25.34834535381127 0 0 0
514 1 4.74962324312664 22.129738291902914 8.515159177560824 0 0 0
421 1 6.134745218022268 23.7297362114764 6.639113746250958 0 0 0
521 1 11.164454837443438 21.95566656498332 7.8470934758358375 0 0 0
422 1 12.29262707314147 24.018883944152957 6.351264745996118 0 0 0
614 1 9.317199186770084 23.727317014295387 9.20149956353249 0 0 0
522 1 17.187351367138834 22.045356689620416 8.352778376084276 0 0 0
734 1 18.473248306596822 23.735256509264843 6.2484301610889785 0 0 0
1198 1 25.00444938534941 24.101387874381025 6.225743198926268 0 0 0
1195 1 23.66084872744636 22.279653502305464 8.120690708673724 0 0 0
1201 1 30.219312660086782 22.412012999110964 8.067677218722448 0 0 0
1202 1 31.79271276429855 23.966375522990027 6.207718211442515 0 0 0
519 1 1.3451045241378232 25.572389304132237 8.153107500131366 0 0 0
426 1 2.9823001850827855 27.111585341904295 6.481000070345153 0 0 0
520 1 7.957214757949014 25.535213422957565 7.80457989349951 0 0 0
427 1 9.72089972642899 27.21623660464679 6.452471279833169 0 0 0
526 1 14.1598071507009 25.144492374191174 8.060809670905066 0 0 0
428 1 15.614890326509117 26.963603680372895 6.490002996694279 0 0 0
1205 1 20.204509867904537 25.189679344375776 7.982926593564528 0 0 0
1120 1 21.794144559057198 27.101515777929105 6.581397135407325 0 0 0
1200 1 26.7748388994118 25.584879322707312 7.8879748189282655 0 0 0
1203 1 33.410501820040224 25.560126160195363 7.756047260433287 0 0 0
432 1 5.667188812775202 29.871899161367296 6.251092866741373 0 0 0