LAMMPS data file via write_data, version 29 Oct 2020, timestep = 200000

4608 atoms
1 atom types

-0.10348927304463729 53.50348927304304 xlo xhi
-0.11444924443318882 51.02156924443292 ylo yhi
-0.11444924443318882 51.02156924443292 zlo zhi

Masses

1 18.015

Atoms # atomic

2143 1 0.5712572503718482 1.8348372282577705 3.837522796402297 1 0 0
3269 1 0.7250895512201085 13.03383313802358 1.8825677321595504 0 0 0
682 1 4.122855719513907 39.83887368491998 3.263462731515342 0 -1 -1
2330 1 7.072495739877246 2.611102922196666 2.294627966399697 0 1 1
4556 1 9.534168926569247 1.8800864595871933 1.0762240899046307 0 2 1
2385 1 12.457999186040416 49.010691206254386 1.3270394746307907 1 -1 1
4034 1 12.650653976370203 0.14164077013889015 3.1980503705743777 1 0 0
3424 1 3.674421211332112 6.70452146738555 4.81846326689207 2 0 0
2503 1 4.880246118832591 6.323361202437138 2.239081327278216 0 0 1
2002 1 0.8618608748900132 49.82461848969309 18.73812140298244 1 0 0
196 1 5.485528721606521 22.195004655935012 1.0598126047825511 -1 0 1
1824 1 11.44310717316033 2.60586474510844 2.9329559685681343 0 1 1
1465 1 0.12304799634724226 20.28068022362251 15.186201613860854 -1 0 1
1815 1 2.64861625021564 40.4142348406916 1.0282644719684362 0 0 0
4458 1 1.1988366144359053 30.86292254576153 19.31835863205435 0 -1 0
2227 1 9.583641390442958 27.038973293996943 1.455554571521586 0 0 0
1514 1 4.373924223528651 9.567901054411816 3.8626216301980847 0 0 2
2790 1 6.922285183558963 8.990478107282518 2.3900191091225325 1 0 1
4547 1 0.895038387496322 5.668695513478164 25.29421704653785 1 0 0
4250 1 2.0829522548566293 1.5753853072353983 14.09067726812739 1 1 1
1460 1 0.2934447904918903 4.251726775146785 22.59347834962931 0 -1 -1
1350 1 4.586727322998177 14.608502226666074 2.1224848461640122 0 -1 2
919 1 6.365610279423909 0.8909725024249382 25.156580099631498 0 1 1
3960 1 10.272723798346428 17.386667686957555 3.166864673496523 0 0 1
1417 1 3.271177808945234 49.97987095340463 10.076360014680958 1 1 1
3640 1 14.76478240244559 14.547040823977062 3.4114263598745156 0 -1 1
1502 1 2.1125557283458427 31.6798018740053 21.91813111403192 0 0 0
3391 1 1.5762373470252968 50.40074192017503 12.430380807165173 1 0 0
4201 1 0.41633541106256833 24.596631322090477 18.215964261525954 2 1 0
2931 1 13.21227609324877 16.821793724039846 2.6047614842557874 0 0 -1
2602 1 3.7922275640664753 8.567400977111962 0.727379271343412 1 0 0
304 1 16.218543988623207 31.002414766362207 3.719290250468975 0 0 1
1770 1 1.5843894208209108 19.77712494305321 3.792695479238727 0 1 0
1620 1 13.004992408759371 18.601697731617094 6.564802969777156 0 0 0
2367 1 6.207469944410791 31.79422067716703 1.5592360578944933 1 0 0
4454 1 0.10907430867951007 33.09803992542221 23.293068348992954 0 -1 1
4390 1 1.862306788790331 46.09678063811192 24.050885917742058 1 0 1
579 1 5.721433555910584 18.34205271918718 3.5398985438016237 -1 0 0
4080 1 12.046496999887466 19.813724681920515 0.9047772375617669 0 0 0
1347 1 10.291554397003786 33.00731884393597 23.395669664980954 0 1 1
855 1 15.793917822634953 14.090157343215813 0.6544647314665047 0 0 1
3559 1 2.8301501097234487 30.39896889767856 0.14972246182463467 1 -1 0
2473 1 3.728436756502024 24.86140765337101 0.9409704231302385 1 0 0
3361 1 1.103426061637576 8.011187935262868 0.7938577203884126 1 2 1
1915 1 1.8399500604371373 37.42719885272222 6.7850758912757065 1 0 0
4102 1 11.529431239499774 24.624599956934144 2.2827290746790116 1 0 1
2401 1 2.286441174722423 26.26903309791688 19.853958065647678 0 0 0
3941 1 8.966381388437613 11.734435157171472 1.2794342202716031 0 0 1
4258 1 12.228404144353977 31.21994459694838 0.8449535511418304 1 -1 1
3002 1 2.060156372231936 31.942442889651815 3.562553680776469 1 0 0
3602 1 2.684410924334688 33.5636882768501 0.9112214532685807 1 -1 0
4497 1 5.180234950298022 33.78015312807305 3.214056060536902 0 0 3
1900 1 5.419834264850032 36.71705841038273 3.603887373042975 0 0 1
2658 1 0.3805930009831614 5.192690563326233 19.630112263962772 1 -1 1
371 1 0.6789513872605056 37.17565564229361 24.902478450452595 0 0 -1
408 1 9.21263426544704 31.83227100193925 1.5594382245586662 0 -1 1
942 1 0.16273654097354762 0.3759747721721091 24.47416596886995 -1 1 0
1526 1 1.6684406720990006 22.383696079408992 16.813877436387603 1 0 0
2831 1 6.377921339881352 34.736469416367974 5.758647235121811 1 -2 1
3568 1 2.9095677955392834 9.839209967351502 8.714635528481066 1 0 0
2871 1 3.3374286143952525 47.57967190910302 8.498983672016244 0 -1 1
3974 1 11.311141560373075 42.40567269112965 23.2530128958452 0 0 1
1246 1 7.06850333550235 38.71290645516862 6.110120760528226 0 0 1
2603 1 9.032227085659157 40.64054987556633 6.36263767819716 1 0 1
3886 1 14.38004963804241 38.1895703718744 2.627315983896728 1 -1 1
2696 1 8.091888792164283 40.34337467987344 0.35335316952243473 1 0 0
1808 1 1.6279822794105345 3.4403851900540476 1.6851584806293203 1 0 1
3542 1 2.3030986838291048 17.609073035891466 0.6204138536269638 0 0 0
1194 1 6.560180568942956 43.98439525734575 2.4520080926076933 1 0 0
2152 1 1.9942275469103192 26.75593500737776 10.961667582566989 0 0 1
1527 1 9.969841498501651 41.3448898062687 3.8003062659240947 2 0 1
470 1 0.0412627628658159 40.02621003599981 16.84532652381862 0 1 0
3818 1 16.523187375756702 15.245529896705355 23.427798579008925 0 1 -1
402 1 0.06087612549220078 15.188394346837255 3.5843954113100613 -1 1 0
885 1 11.767431657678461 28.645663129587533 0.4550073140383162 0 0 1
2645 1 8.22797418284971 47.65393823503895 2.907452760283244 1 -1 1
3909 1 7.102785651744995 28.319677679401128 2.0842828026739557 1 1 1
1272 1 0.25427473786142174 23.337782704522137 14.529803543670972 0 0 1
991 1 1.309834782127371 48.83614462291956 0.27076949461042427 0 0 1
2774 1 5.72037215238509 48.17001906113127 4.803992598204489 0 -1 2
3701 1 8.526731172670463 45.726619448085955 4.9542074487175745 0 -1 0
2806 1 13.480174045586027 45.19838552352353 6.047254915178929 1 -1 2
1660 1 0.38801074519401024 3.290190395466866 16.036585846076512 1 1 0
2935 1 4.655763811068798 50.284098847196496 2.920887416351062 0 -1 1
2742 1 2.8663866233562394 37.289341678849695 4.245373681200576 1 0 1
2634 1 17.088117155761093 10.91455357951107 22.236982338492535 1 0 0
4369 1 12.765519706445627 47.31487027148741 3.9015334865068176 1 -1 0
559 1 0.04703662779018988 29.21357484693201 9.063125228591273 1 1 0
753 1 3.2074294466014344 1.372555656548934 8.92238598353761 0 1 0
1680 1 6.4669247401832335 0.6817401264492571 4.550712670649738 0 0 0
1712 1 14.982793807569132 2.278639680820969 7.276722271107136 0 1 0
3370 1 16.063003936777594 49.926830612800636 2.2164759958683065 1 -1 0
4532 1 1.4326754127934334 2.2030540719707425 6.740979951661338 1 0 1
249 1 3.5235097834003555 4.093296877387218 5.638690747695733 -1 0 0
2521 1 6.798936442862145 5.094712097948466 3.8591801724132875 0 0 1
4286 1 10.408327559471887 3.2839181876416186 5.402545547101337 0 0 1
2338 1 12.569033372784917 5.357032633602796 3.9256039750819145 0 0 1
4218 1 5.419116698068378 8.443209223958414 6.736312491936566 0 0 -1
1637 1 9.822001339799524 6.767119235173737 7.832431266883932 -1 1 -1
2873 1 9.014749010245072 5.62735313208422 5.328862628506378 0 0 1
828 1 14.413714905166064 3.1760436309063724 3.563066951774959 0 1 1
3589 1 14.95580561086201 3.501585301011436 0.6847420046221657 1 1 -1
3977 1 12.867055698617337 37.340900892799716 24.37719671286309 0 -1 -1
2031 1 5.888363770280061 10.776619409691438 8.985875643144514 1 1 1
2428 1 10.027732538040954 7.430933509047427 3.5058885684455747 0 0 1
2373 1 13.501041146398391 6.2365994995928125 1.3729831313232554 -1 1 0
2343 1 13.236519361994779 10.469297885133843 3.6425787604357223 0 1 1
398 1 16.83525960613164 8.410177220172145 5.876657014332115 0 0 0
4463 1 2.6777312473509123 15.647205942704774 5.128900140413492 1 0 0
3202 1 17.26569869938864 27.914890991265327 15.619189074626327 0 0 0
1615 1 8.068707329303225 11.202706362879784 4.152434400000027 0 1 1
3016 1 5.945489300794701 11.704389857359452 5.970973946357146 0 -1 1
938 1 10.851703346164571 9.878636063961517 1.8902232080387336 1 1 1
1217 1 10.69189384593858 14.463031482269825 2.174269275568251 0 0 0
1925 1 13.07339867316358 12.510703478356854 1.8714700390109724 0 1 0
3564 1 0.04672934148853486 32.06245816296387 9.315604267964652 1 0 0
2619 1 2.1646507280146903 18.303117169663576 6.160949337433487 0 0 2
2746 1 0.5030258143675526 49.89632815492026 21.7904435901763 0 -1 1
1169 1 7.581299528430241 16.493491871534786 4.367316044388838 0 -1 1
279 1 10.489087692496652 19.5436544628095 5.165179443453035 1 0 1
3301 1 15.523273174799467 18.78120201445364 3.2606618117728408 1 -1 0
702 1 12.001491672665637 15.791903098633675 7.871517625828551 0 0 0
3715 1 15.642020546364062 17.601070088300386 5.863532536552031 1 1 -1
3020 1 7.538843008250852 14.1810975084229 2.370985142439329 0 -1 1
2357 1 1.5730602904094473 22.353436807473088 4.949199309284326 1 0 1
2710 1 10.472176030007468 20.839837293770415 2.644932647533328 1 0 1
4587 1 11.744533364569984 20.78479124560332 9.516606980841816 1 0 1
4172 1 14.645564404504327 20.978034775456415 4.589085376633026 1 0 0
1657 1 0.7432882052537987 17.09460842730583 15.966075980281914 0 1 0
544 1 5.517822511591438 21.362590112651542 4.150787002350977 0 -1 0
433 1 3.9589728890530056 23.944493565084816 3.729784235401639 1 0 0
665 1 8.24866547813073 22.644303910911535 3.808205471434377 0 0 0
319 1 11.352073877864722 21.94356556771437 6.7752916472503575 0 -1 1
585 1 17.14215900212792 24.944619723304374 4.978347284019703 0 0 0
2011 1 17.75026431583963 43.85396052887588 24.947656506980966 0 -1 0
3697 1 6.685622106953163 28.34588516460989 6.0587790433836926 0 -1 0
2004 1 3.820988066099282 26.322727564159702 5.218444596996805 -1 0 1
3102 1 9.47989684859489 25.639825954156077 3.992550098403906 1 -1 0
6 1 6.800836246258024 26.595049416803004 4.149655521803536 0 -2 1
715 1 13.960187984870759 25.368577565331332 8.242796926626397 0 1 0
4100 1 13.31817634885688 22.223615448600505 2.3666984282914414 1 -1 1
1483 1 15.832667467282784 23.292484985452763 7.494131282784987 1 0 2
4094 1 7.556372618292778 32.407150346953344 21.95826430596688 0 -1 1
1699 1 0.7620972414135921 47.37286698393998 11.926190995819496 1 -1 0
1468 1 3.516864888420417 27.297604863532374 2.304242765797987 1 2 0
2390 1 12.004786556606557 24.331912753022184 5.5142379448585555 0 -1 1
1942 1 10.187827468602897 28.515418861676064 5.095000011537609 0 -1 0
4278 1 10.054793837538778 42.16371343844989 0.22500012576860806 0 -1 1
1671 1 4.271071357351138 30.30663144071446 3.008602511906132 1 0 0
4030 1 9.656996793203096 34.729527213723806 0.8723803662584289 0 -1 1
2735 1 10.267911965285466 31.345885363437763 4.050083074958137 1 -1 1
3450 1 13.102724617308349 31.478244775389477 4.2195307911728825 1 -1 0
3425 1 0.4195241113829066 35.172390699319 7.268781683870835 1 -1 0
3751 1 4.811638093693518 34.927794655099376 8.228999757959997 0 -1 1
3056 1 8.595398552803085 36.29253452156202 5.527320495067478 0 0 1
569 1 15.072597291057757 35.34300437847142 1.4581231103539996 0 0 0
3109 1 0.6909278714870833 39.881427164383155 7.802749238885764 1 -1 0
1996 1 17.182932207458954 39.06402821915284 11.133432527961403 0 0 0
863 1 4.249312290096507 4.2856011461309365 0.45011733417214317 -1 0 1
2438 1 6.247229298474309 38.71648518117771 8.935147448688975 0 0 1
3004 1 10.39542149427079 36.469775986432 7.416838381485759 1 -1 0
2690 1 11.511250318327921 39.194226148825784 2.5884790763009904 1 1 1
1000 1 15.230525783098571 36.158605021315225 4.373593797629919 0 -1 1
878 1 7.590887009913689 37.83692979221346 1.8611091429819662 0 0 1
1888 1 2.7600700832518767 41.92230048074558 4.938869571090743 1 0 0
4512 1 2.4171947574555537 20.28754745561878 0.978045001782347 1 0 1
81 1 7.5535074450051685 42.843448873540936 7.5734055818422865 0 -1 0
3983 1 10.871117583010038 39.068331297463196 8.174743507094258 0 -1 1
2103 1 16.18187252492763 39.99680297248245 3.1450468521044646 1 -1 1
2034 1 4.552242914698646 43.83462960662956 4.411537109586984 1 -1 0
4057 1 -0.01861385368776254 41.84407121935553 4.168595071637737 2 -1 1
1613 1 9.230837983670597 43.61931257072223 2.597616430947644 1 -1 0
2561 1 12.053784821459539 42.6521284289065 5.029534388543755 0 0 1
884 1 11.906574738114545 44.91170747738619 3.02480081432273 0 0 1
872 1 0.5140964167287919 38.729770947587554 3.4390765199851128 1 0 1
3946 1 14.476271763604496 42.90884860487568 3.2634275046799117 0 -1 1
2711 1 8.445759706782784 19.006377927217905 1.7323402897205131 0 0 1
2972 1 1.4209553035106686 48.31186091898415 6.1971768778593805 -1 0 1
4499 1 6.43897996477116 44.92781908384297 6.359332089355253 0 -2 0
834 1 9.43268852194967 47.94611138884212 6.697607270022799 0 -1 1
3021 1 15.317571098765915 49.39192424687 6.4959755288807415 1 -1 1
3451 1 13.841878859246169 26.40565453782389 1.3441493750276987 0 -1 0
317 1 2.1038948387754184 50.12924995962333 4.279959557920752 0 0 1
4437 1 3.349433219368967 46.40960116106367 4.777571182217574 0 0 0
3299 1 10.376789445709397 49.15296560275302 4.411614788231467 1 -1 0
2221 1 1.8536327391452094 46.646441593042375 2.196670804331272 1 0 0
2947 1 10.263784685069428 1.2776680557011855 7.601503466281389 -1 0 0
511 1 11.779504388546563 49.59269989442846 9.356162050021531 0 0 0
4484 1 13.757589756290349 6.4769201020603875 6.643302340271863 1 0 1
4380 1 1.5951348995808665 12.778814553827933 22.172666292212487 1 1 0
3381 1 6.300709974226251 3.3433519224642088 6.297152101834851 1 -1 0
1081 1 9.666700526184204 2.1671102043717516 12.693370600613129 1 0 0
996 1 11.486208604062083 4.520781604653175 8.02959104222299 0 0 1
206 1 16.490713576499747 5.579398390618053 7.292990478550434 0 0 0
1693 1 2.8299659880794596 28.64466751140387 18.487473585989097 0 -1 0
1759 1 7.395649804356609 5.05346720535004 8.378177896928989 0 0 2
447 1 11.223455698754044 4.748043725897028 11.274123612172724 0 0 0
3764 1 11.522432875909768 9.141651005805771 9.114148798960747 0 1 0
1944 1 14.818331871489976 7.891980381407652 4.0341428141534585 0 1 0
704 1 13.992830031241667 9.344782398674669 7.6304945621834825 0 0 0
3627 1 15.620224440036383 9.401409167358134 10.139097505536737 0 1 0
460 1 0.5330611056061052 27.233097819717862 21.768091366930843 0 1 0
1610 1 0.82942521084678 27.662089058863835 2.1321955754040425 0 0 1
3461 1 5.015304018602237 6.455481902376026 9.248937048735394 1 1 0
2321 1 6.176066957739857 8.258217016902567 11.223297498008515 1 1 2
4371 1 8.5966359152719 9.285613671670708 8.293540909548808 1 0 1
445 1 10.281901442682008 11.899678507659523 8.803983273397776 0 0 0
2003 1 11.713329059128439 11.440648176834948 11.81252016890829 1 1 1
271 1 1.1733500491044617 6.586724301636392 3.621730682054827 0 1 0
243 1 2.9568692512369514 14.569919460331175 9.3890493592929 1 0 1
2029 1 8.648390704945397 16.405480626271213 9.312059441680407 1 0 0
922 1 9.853726370365745 13.268778240445169 11.478918485660888 0 1 1
3604 1 5.657566917582205 16.00636537950033 9.094755558832267 1 1 0
3126 1 12.584726294170826 13.009655567177736 7.829654043120688 1 0 0
2117 1 8.017122420641426 13.072505292599002 7.836083048323044 0 1 1
3581 1 13.914833881111916 11.618675000737358 6.041032744178579 1 0 0
2157 1 1.1500290947607525 14.414924235752801 7.093203980518379 1 0 0
1801 1 9.352071791509756 15.290978846528747 6.781848028404722 0 1 1
2914 1 12.75147529625765 18.36586616916695 10.012714364867962 0 0 1
4330 1 15.320124901823403 15.526048088231844 7.708855737978111 1 0 2
847 1 17.53756007110564 39.22590262330758 0.7874653851041877 1 0 0
2220 1 2.5311664395053106 20.554562741160876 8.101278596065491 0 0 1
1908 1 8.579869568141122 21.74790662444432 6.761288104671012 1 -2 1
1478 1 14.718199498690042 20.965442102022223 7.271289901125442 0 -1 0
2032 1 4.166150508939017 22.055916586015996 6.543036359195262 1 0 0
1520 1 1.5768546087169772 23.940119667624195 10.482561530109068 0 0 1
3323 1 1.053758863758323 8.95896081729634 6.9492565682394725 2 1 1
3015 1 7.059781951821629 20.383169033637575 9.324363199051 0 0 0
1469 1 8.073718913559011 18.654677291702942 6.7937554993859885 0 1 0
111 1 6.339247147069164 22.944266385831508 8.249690816265844 0 -1 0
1679 1 9.586095439744504 23.748316094975284 9.356160037442608 1 0 0
3030 1 13.548520541723523 21.98796385067992 11.435092657329813 1 0 -1
1834 1 0.20355734979376894 24.53448813360065 7.858145892366481 1 0 0
4429 1 9.029040072515985 29.569094854129947 7.4579388919333445 0 -1 0
376 1 7.142792272073365 24.962266569120818 10.299543196002361 0 0 0
86 1 7.188488304304105 40.229177372274236 3.4077694880974856 -1 -1 0
4474 1 3.1645657330978336 24.459693721235105 7.579762643517898 -1 1 1
1220 1 5.398546315123079 26.265073564305542 8.021685065040181 0 -1 0
892 1 11.684240130051732 30.586305600666787 8.315439274838855 1 0 0
1960 1 10.566817502047995 26.237577328307992 6.8914549852782105 -1 0 0
2704 1 9.21310960638826 27.121401677064043 9.533456763617922 0 0 1
1028 1 12.359976365720108 28.770914949471333 10.7718954034629 1 -1 0
516 1 14.363896979819645 3.579042408864226 24.07563367585405 0 1 0
4230 1 2.5679113955422688 28.96000954538251 7.845562743707867 0 -1 1
2156 1 5.482098528911014 30.90509674596775 5.300837769333928 0 0 -1
1317 1 3.6774480417423523 31.376491214288887 7.442203973241739 0 0 0
2405 1 10.19541294542612 34.374027357877864 9.26503800007683 1 0 1
1509 1 11.898533561330582 33.87722906487708 2.573863474755657 0 0 1
2480 1 13.93689483065648 28.415651585296168 4.308011076521903 -1 1 1
2322 1 13.21285950491092 32.56106121596263 6.929346658799316 0 0 1
2244 1 1.8057164197051554 36.10475603686777 15.723717646597713 1 0 0
983 1 2.2127784989188357 33.48374594612861 8.664412207428823 1 0 1
3286 1 2.9028227137951976 34.145908164484155 5.412228141593647 1 0 0
668 1 8.113506938527983 32.28786168993636 5.576377611142088 0 0 -1
406 1 5.8122206286522715 34.425233521219525 11.476884644810463 0 0 1
4 1 10.065316803947386 30.783055817005522 11.155759453520483 0 0 -1
119 1 5.185751677466266 14.431380562272759 5.11640550160269 1 0 2
4025 1 13.313404417851144 36.0514593133811 10.557490373378322 0 0 0
1303 1 7.729232554475549 36.20653207260222 9.775434602078475 1 0 1
1214 1 12.405140285571145 35.47329097236065 4.875806494333338 0 0 0
2628 1 13.224130853325047 35.227470188760485 7.618029930928189 1 0 0
1346 1 2.1490644972930295 10.531162221245626 2.7863031879351836 1 0 1
4096 1 16.49775149250944 30.337121626161153 25.295593026678795 0 -1 0
1799 1 5.6095381412819725 41.58419499202913 8.842836731872955 1 -1 -1
539 1 6.794395161952649 39.22526573635691 12.078494395205738 0 0 1
904 1 12.064232624377278 42.98100503812005 8.010412906050071 0 -1 0
2249 1 13.419448668737386 40.53729065278672 8.855656721731226 0 0 0
1499 1 16.730272580890606 34.619558753863764 21.90645448104853 1 0 1
1553 1 3.660412856276123 37.39385663550954 9.159865101871794 0 0 1
106 1 5.512654292639208 45.08006248082199 11.01735252230215 0 -1 1
1971 1 6.739503696228999 42.62358626916377 11.332765742679717 1 -1 0
3952 1 13.149122951561726 46.255757860780854 9.265687352698686 1 0 -1
4550 1 14.249290877069718 40.87119819515756 5.617995258004742 1 0 0
1006 1 16.55826910190099 42.109688286817295 6.99395833063397 0 -1 -1
1570 1 17.758217164443337 6.341776686884253 15.228278519955408 1 1 -1
1757 1 3.4596142218795567 44.825260246576455 7.405959159350733 1 0 -1
1792 1 6.062667300160301 46.56418760616494 8.575687451541947 0 0 -1
3955 1 8.764379120727817 46.301423355457004 9.172163556305346 0 0 0
3309 1 9.446836173818006 48.90815123501672 10.287413402370827 0 -1 0
699 1 12.232812191223008 48.07545334606503 7.021815548244041 -1 0 1
1085 1 16.917524541824413 44.12050875376824 3.8371702940466577 1 0 2
4580 1 5.908889980754689 1.294065394707804 8.146468856360821 0 -1 1
3822 1 6.175367558833256 49.48901346156117 7.448249502875197 1 -1 1
1430 1 8.71787826075266 50.806791510356305 6.0346026990341555 0 0 0
1163 1 13.080601929372252 0.246511319579109 7.550482749213059 1 1 0
4509 1 14.02739771363697 50.64245366955341 12.727226514187628 1 0 1
2632 1 14.134768308774154 48.7028059909933 10.781513111740534 0 -1 0
2983 1 13.684593932737027 35.198484069890476 21.98428451661675 1 -1 0
609 1 8.178100762763064 2.2778391890083114 9.13955010712656 1 2 0
3397 1 12.733534750450659 2.3654948175362205 12.224345246737888 1 0 0
4419 1 14.040590520700277 4.484583890600312 9.035575939211816 1 0 1
3480 1 15.352394054620516 3.22021826168581 10.990850901175556 0 1 0
1338 1 2.922281935048962 22.14605711016945 25.437793002656207 0 1 0
2852 1 1.567288712916917 3.305577294142371 9.985046654122598 1 1 1
3273 1 4.515600743621564 1.9534415390127924 13.154747478646826 1 -1 1
1623 1 5.93022709556589 2.288721680816601 15.611954272987123 0 1 0
4324 1 0.0587305726457954 30.235017980238737 4.172668319214707 1 -1 0
1482 1 3.399205105080231 5.833614540297395 11.69553978759714 -1 0 0
2987 1 1.6263863578621045 3.945415580738711 12.60831351654243 1 1 -1
4183 1 8.176431176345382 4.762253302446168 11.18142582320671 1 1 0
3502 1 11.772401173086195 5.787623659837949 14.850709015564748 1 1 0
1125 1 8.909109611868677 7.629136501162549 10.940673479573567 1 0 1
1158 1 12.334034085821054 7.07128658173721 12.416200597396426 0 0 0
4309 1 15.94324785119817 4.967613974265799 12.97841285039944 1 1 1
2949 1 1.9500068566168434 8.226927388525668 10.855506213044169 1 1 1
1818 1 3.5852797573933164 7.601895388124038 13.915239122120907 0 -1 0
334 1 8.695276792084046 9.109783060951534 5.615104622779238 0 0 0
674 1 13.54768065137944 15.527023158006598 15.697103839384516 0 -1 -1
2558 1 11.822069698036334 13.461202529649311 14.80440819313833 0 1 0
2054 1 16.588491830179695 38.56031095319141 5.467274752797593 0 0 -1
581 1 0.12424312231648393 9.071869127135573 4.357779432147149 1 0 0
3489 1 1.868603991917757 12.189412210043118 9.897271381676534 1 0 -1
1302 1 2.1235498271259123 9.84812898698399 12.863133176730708 0 -1 1
2927 1 3.25162404113197 12.19935623334772 12.150881029940885 0 -1 0
3023 1 7.216628383290528 13.586748994654325 10.396785181164658 1 -1 1
1268 1 9.204879689972888 14.24209709132458 14.421073951892314 -1 1 0
3151 1 13.85328119630087 11.934280565348413 10.13328266600012 1 2 0
4424 1 16.27429600143035 37.945681697659715 24.038110463833775 2 0 0
437 1 8.714715253544007 16.627166285147798 12.836381054736645 1 0 0
2398 1 5.268284656560595 17.785122697305884 6.608742327573699 1 1 1
359 1 10.997486029642612 15.67267140784685 10.620649065858949 0 0 1
730 1 14.961264772372429 18.351200344724784 11.60520589377067 0 0 0
2923 1 17.469326454282363 17.566819124087157 10.65552132006068 1 0 1
3052 1 4.5307339095526045 20.04506604405197 10.169231281778915 1 0 0
3953 1 9.136051744119053 20.855565518894032 11.09472065706946 2 0 1
3436 1 10.571287906771577 18.82441588119558 12.09673467507643 0 1 0
2827 1 4.679526450087602 48.745078354342645 0.75823461566216 1 -1 3
2060 1 13.898570294567284 18.154665783265873 14.532398195626254 1 -1 1
2211 1 17.376859144572418 19.082488872229888 1.036461846003981 0 1 -2
583 1 4.1767562931318745 22.90766840081072 10.325101962064897 0 0 0
3369 1 4.909420687550406 25.97821732123972 11.78190272788988 1 0 -2
3772 1 9.655430717244265 23.52585842786708 12.526218288138246 1 2 0
1551 1 11.461757572076603 19.383504565418264 14.355395956049017 -1 1 0
4137 1 4.2215194775520155 28.014888629571715 9.776784473214779 0 0 0
1894 1 6.511232941633789 27.444088639245827 13.834571261170442 0 1 1
2934 1 9.580385644584986 28.81637190228154 15.8696269648078 0 -1 1
2509 1 12.300935438441662 24.171446424787636 10.329091678720115 0 0 0
3962 1 10.960869165056886 26.5595246518649 11.508186960549283 0 1 0
4525 1 9.164369251978885 26.885950733160076 13.517717328774546 1 1 0
3567 1 16.452424163466198 20.932770728838268 11.651553836414019 0 0 0
3486 1 17.082629631161186 21.184007714345547 18.952863657330347 1 0 -1
3481 1 1.3560032687425136 26.014656549351727 14.419510419089297 0 0 1
4155 1 7.769691834174736 28.678901650641098 11.437106458655826 0 1 2
4302 1 13.612567980583691 30.179178763399033 12.621898488555296 1 0 1
670 1 1.382847486211311 31.403892143716277 12.097060494900388 1 0 0
3965 1 5.937933533019279 32.21318981139733 9.185973490705416 0 1 0
1370 1 5.668957426857084 30.216220902098286 11.306165792838463 0 0 2
399 1 8.521483143947332 32.36035913135806 8.36449034239469 1 0 0
2930 1 12.952015172877125 34.38051616586181 13.571491735081088 -1 0 1
2273 1 16.188408234002434 45.28465779430616 6.31949985977432 1 -1 -1
3150 1 8.01377992132358 34.96987598400631 13.36138738100016 1 0 0
3554 1 10.326045601634714 34.19052699661916 12.272161244762449 0 0 0
1143 1 11.164060570096817 37.00744264657055 12.075059690213845 0 -1 1
4578 1 16.88756398136352 19.59933809866128 21.531339527444537 1 0 2
3274 1 9.679438865228093 43.79959267975181 25.051719767093612 0 1 -1
1700 1 4.198999846516404 39.18330805467041 15.503064601209847 0 0 0
1557 1 12.507762966457483 32.97931791952327 10.024081361283214 1 0 -1
133 1 9.191917808738014 38.5064051105169 10.444431491751581 0 1 -1
1333 1 13.934177970595155 43.199923959488046 23.9576597989594 0 0 0
4328 1 4.8407853158371275 37.47293312220643 11.915670197186133 0 0 0
64 1 8.641257654830564 41.299220422041266 14.021912350696077 0 0 1
1451 1 16.067250005812745 46.39597685830145 8.97664202923724 0 0 1
3547 1 11.164310756849249 40.015760658239294 13.062874758244975 1 -1 0
2107 1 13.134569418259135 41.307224049535634 11.469807340570636 0 1 0
378 1 2.5891607083784236 41.93933474028326 7.735366076132582 0 -1 1
1101 1 3.2315392317463396 43.47612178786568 10.318284134619125 1 0 0
1513 1 1.2762839181014196 45.60810796439535 9.944418276904273 1 -1 0
3460 1 5.47457568300278 43.117380663765545 15.78696766029868 1 0 0
3950 1 4.323677263748919 45.658439140569456 15.248124454080994 1 -1 1
2088 1 9.670902649761656 43.67515057118052 9.388817321043996 0 -1 1
471 1 15.377638676530879 23.492348740802008 18.644770499254026 0 1 0
4066 1 13.907108395016374 8.190087849469405 23.482570478921478 0 1 -1
4143 1 1.6450451071308447 45.15176020175333 14.232486434591427 1 -1 1
2351 1 6.881456111515511 46.07744683328632 13.259474429599058 0 0 0
2228 1 9.380254212470055 45.24855544653777 14.01564965815065 0 0 0
1292 1 10.567979137617415 47.72081894002258 12.93059988535117 -1 0 0
1854 1 0.17081214699801833 17.426580466126925 11.413779125975909 1 -1 0
3338 1 5.508090109914207 50.85548913137576 11.904304291228277 0 -2 1
1954 1 14.35371578558682 46.94480876886667 0.27347474967059043 0 0 1
1809 1 5.037460382416892 48.76660494629954 13.772636502431034 0 -1 0
1185 1 8.006802122702323 0.40463686571100643 11.19728284104501 0 0 1
2413 1 10.18289367377141 48.11544907349847 16.460944448986748 0 0 2
2984 1 15.298039424214702 47.4316107589845 15.080022717114655 0 1 -1
3884 1 16.370485564743856 49.45539600118939 9.292013386595686 1 0 1
2926 1 6.945360077884526 -0.07653055956128477 19.002111189490385 1 1 0
2093 1 15.036127338366185 27.570226108871758 13.440060967492983 0 0 -1
2356 1 3.566087116311507 49.06627023626806 16.278072430862576 0 1 1
2129 1 7.710250825227715 0.22737588964679906 15.930569354420193 0 1 0
1756 1 10.05620603374119 0.27589621985505913 14.543396655012701 0 2 -1
1873 1 14.700079790451628 2.5116628217093906 19.285931453525162 0 0 0
1564 1 16.817883839079066 50.47514853436112 13.336938360902916 0 1 0
3296 1 0.6513990326969694 42.082434554431394 1.4605249280106491 1 0 1
2436 1 2.682472578733945 0.5089202699734335 16.711862066427727 0 1 -1
4116 1 6.8540342551195765 5.199045391627756 14.606377789975825 1 1 0
4591 1 13.22034870001994 0.05746181523739788 18.06355186079232 2 0 0
4126 1 9.5319350820085 4.454162547760947 14.844602350585053 1 0 1
4410 1 13.188668804941386 3.196144695612867 14.845341597027353 0 -1 1
1608 1 15.85440534601771 3.295349684194038 15.300356238610869 1 1 0
39 1 0.2374041150989965 5.356283321985079 14.142244080540209 0 -1 0
657 1 5.143049336125365 7.102934777212872 17.173555297761112 0 0 0
738 1 5.732278676525165 4.390441861079105 12.314892702376426 -1 0 0
1080 1 10.658265004288847 8.901044466739014 13.012106769570462 1 -1 0
3597 1 15.719577849493746 9.13035334300464 14.773138400348506 1 1 -1
2488 1 5.205624804444074 19.47750054981835 0.8490926352279836 0 1 0
4039 1 5.805380721803368 11.398516874812326 11.89910833662325 1 0 0
3614 1 6.178362060095819 7.9516070141680295 13.99350601597973 1 0 0
3791 1 12.915073442493124 9.622849136982381 16.803082847766724 0 0 -1
1038 1 14.910980895228867 7.54877692256724 12.443247004200513 0 0 1
1598 1 13.076649488120394 17.043216299347378 24.798556838601886 0 0 0
4005 1 15.879299367047045 8.046051014061836 17.301532414566896 1 0 1
2859 1 6.52687663362759 13.7621447612689 17.04167772231115 1 -1 -1
3669 1 6.987432594213997 12.38982405802336 14.582551352286014 1 1 0
1291 1 14.135234018667335 12.961590701380262 13.107351752136358 -1 1 0
194 1 0.7300408339315994 20.366323232182012 18.87676947383797 0 0 0
4229 1 2.769565972206061 0.7480048547524726 20.7798716549601 1 0 1
2674 1 10.688004742451954 17.0001044264042 15.57870274958804 0 0 1
1532 1 14.906603477257384 15.500215465688058 12.600031932445843 0 0 0
952 1 13.114219279694677 18.241549815694643 17.532867219012207 0 1 1
2392 1 12.862196287732056 39.952456921697404 24.94120091971006 0 -1 0
2648 1 4.062690431313121 18.058771428279137 12.274224817473145 0 0 0
2525 1 2.4950292990850227 15.923542944832825 11.783468170061607 1 0 0
3920 1 6.4090775356505905 17.74493325368648 13.899356709854631 1 1 0
3239 1 10.324502124133902 19.04795305151123 17.88071005562394 0 1 -1
2500 1 11.997834199667285 21.442034000223057 18.844153752049653 1 -1 2
512 1 16.892608261505192 22.10255019056825 3.8464525176369184 0 -1 -1
2566 1 16.41040225955421 19.62281103017543 14.683021200485225 1 1 0
4464 1 4.618964667428835 21.46289926701276 12.95248612052505 0 1 1
1496 1 3.466691538923381 24.314460390573384 13.48308740645312 1 0 1
1898 1 7.154757805466145 20.16078295138975 13.151735390295789 0 0 -1
3997 1 10.744845593889298 21.803290881455677 15.882826418693016 1 1 0
3647 1 9.45925470211035 24.59742697765836 15.194454894073324 1 -1 0
4017 1 13.773896175733883 21.50970727620015 14.228652959206938 1 0 -1
727 1 13.170122038748275 23.046118896807446 16.677119416610154 -1 1 0