
# Set production fixes - Nose/Hoover
#
fix                 2 all nph iso ${PRES} ${PRES} ${PCOUPL}
fix                 2 all nph iso -500 ${PRES} ${PCOUPL}
fix                 2 all nph iso -500 -500 ${PCOUPL}
fix                 2 all nph iso -500 -500 10000.0
fix                 3 all temp/csvr ${TEMP} ${TEMP} ${TCOUPL} 837492
fix                 3 all temp/csvr 294 ${TEMP} ${TCOUPL} 837492
fix                 3 all temp/csvr 294 294 ${TCOUPL} 837492
fix                 3 all temp/csvr 294 294 5000.0 837492

# Define Order parameter
#
compute             2 all orientorder/atom nnn NULL cutoff 3.5
thermo              200
thermo_style        custom step temp press vol etotal ke pe c_1[4]

# Run 1ns simulation
dump		    1 all custom 400 prod.${NAME}.dump id type x y z vx vy vz c_2[*]
dump		    1 all custom 400 prod.ice_294K_-500atm_ML.dump id type x y z vx vy vz c_2[*]
run                 200000
Neighbor list info ...
  update every 1 steps, delay 0 steps, check yes
  max neighbors/atom: 2000, page size: 100000
  master list distance cutoff = 6.0032907
  ghost atom cutoff = 6.0032907
  binsize = 3.0016454, bins = 20 17 17
  2 neighbor lists, perpetual/occasional/extra = 1 1 0
  (1) pair sw, perpetual
      attributes: full, newton on
      pair build: full/bin/atomonly
      stencil: full/bin/3d
      bin: standard
  (2) compute orientorder/atom, occasional, copy from (1)
      attributes: full, newton on
      pair build: copy
      stencil: none
      bin: none
Per MPI rank memory allocation (min/avg/max) = 5.821 | 5.821 | 5.821 Mbytes
Step Temp Press Volume TotEng KinEng PotEng c_1[4] 
       0    296.02719    -480.4387    149246.13   -47465.049    4065.2206    -51530.27    0.1443607 
     200     290.9439   -479.91672    149248.61   -47453.378    3995.4138   -51448.792   0.14878628 
     400    291.24526   -508.58229    149250.38    -47448.18    3999.5523   -51447.733   0.15181128 
     600     291.0152   -538.95062    149257.66   -47485.973     3996.393   -51482.366   0.15136518 
     800    291.04791   -515.13781    149191.39   -47501.725    3996.8422   -51498.567    0.1515691 
    1000    288.36485   -423.99373     149150.9   -47514.321    3959.9968   -51474.318   0.14769863 
    1200    289.94379   -492.47203    149240.04   -47539.113    3981.6798   -51520.793   0.14905832 
    1400    293.42701   -525.45516    149279.02   -47530.374    4029.5133   -51559.887   0.15150682 
    1600    288.54199   -496.35011    149172.47   -47535.173    3962.4293   -51497.603   0.15023393 
    1800    288.43446   -454.73868    149133.47   -47541.351    3960.9527   -51502.304   0.14718626 
    2000    294.32817   -528.50714    149268.44   -47494.849    4041.8887   -51536.738   0.14554959 
    2200    295.71532    -530.3322    149338.36   -47462.477    4060.9378   -51523.415   0.14293935 
    2400    298.11188   -467.69046    149235.64   -47483.271    4093.8488    -51577.12   0.14434522 
    2600    296.49005   -441.54482    149205.39   -47528.435    4071.5769   -51600.012   0.14086622 
    2800    288.54312   -545.61656    149312.46   -47544.587     3962.445   -51507.032    0.1491395 
    3000    288.74471   -574.85015    149333.76   -47556.724    3965.2132   -51521.937   0.14830895 
    3200    293.49297    -458.0446     149162.9   -47503.376    4030.4192   -51533.795   0.14597372 
    3400    292.92841   -430.94821    149147.46   -47544.073    4022.6662   -51566.739   0.14468014 
    3600    288.47246   -608.28884    149349.91    -47572.15    3961.4745   -51533.625   0.15034501 
    3800    291.73028   -506.44102    149354.75   -47496.163    4006.2128   -51502.376   0.14313977 
    4000     294.4708   -456.41571    149175.89   -47492.825    4043.8473   -51536.672   0.14726512 
    4200    292.45565   -423.50665    149194.94    -47509.82    4016.1741   -51525.994   0.14249633 
    4400     293.7532   -586.39563    149377.21   -47496.286    4033.9929   -51530.279   0.14809482 
    4600    294.03289   -534.40484    149307.61   -47475.583    4037.8336   -51513.416   0.15150551 
    4800    293.99646   -397.93643     149105.7   -47466.987    4037.3334   -51504.321   0.14645186 
    5000    298.95977   -443.93535    149206.16   -47445.856    4105.4925   -51551.349   0.14453963 
    5200     294.2439    -613.0057    149396.99   -47445.246    4040.7314   -51485.977   0.15071062 
    5400    295.60662   -468.59563    149266.11   -47405.349     4059.445   -51464.794   0.14712092 
    5600    295.80404   -388.80419    149112.22   -47391.374    4062.1562    -51453.53    0.1506003 
    5800    296.80785   -529.47833    149302.85   -47379.386    4075.9411   -51455.328   0.15297782 
    6000    302.44284   -632.74004    149412.92   -47364.217     4153.324   -51517.541   0.15162891 
    6200    298.06683   -450.98819    149159.54   -47358.554    4093.2301   -51451.784   0.14761749 
    6400    294.96969   -373.02056    149113.29   -47325.904    4050.6984   -51376.602   0.14957803 
    6600    298.33934   -651.33412    149447.86   -47363.943    4096.9723   -51460.915   0.15475015 
    6800    292.21565   -639.58221    149424.97   -47403.692    4012.8782    -51416.57   0.14933145 
    7000    296.39646   -319.18979     149015.8   -47409.914    4070.2917   -51480.205   0.14652551 
    7200     297.8663   -393.25055    149096.97   -47357.812    4090.4764   -51448.289     0.151403 
    7400    295.95263   -694.49868    149538.13   -47338.412    4064.1967   -51402.609    0.1529414 
    7600    301.14433   -601.84752    149395.63   -47374.126    4135.4922   -51509.618   0.14980181 
    7800    298.06189   -231.75899    148945.72   -47405.626    4093.1623   -51498.788   0.15000066 
    8000     298.2133   -435.48931    149195.64   -47370.844    4095.2415   -51466.085    0.1499972 
    8200    290.83382   -796.10172    149642.96   -47402.804    3993.9021   -51396.706   0.15333198 
    8400    293.57682    -509.3911    149279.73   -47432.126    4031.5706   -51463.696   0.14551678 
    8600     292.7272    -169.4585    148831.84   -47392.052    4019.9032   -51411.955   0.14839156 
    8800    298.14276   -553.42096    149304.65   -47320.352    4094.2728   -51414.625   0.15286367 
    9000    296.77516   -882.52702    149752.35   -47293.807    4075.4922   -51369.299   0.15898794 
    9200    308.00128   -410.00667    149190.25    -47284.73    4229.6558   -51514.386   0.15137254 
    9400    299.21456   -171.92747    148796.74   -47337.204    4108.9915   -51446.196   0.15184467 
    9600    299.08353   -595.44554    149414.78   -47323.806    4107.1921   -51430.998    0.1532613 
    9800    300.37313   -835.21015    149718.91   -47335.815    4124.9016   -51460.717   0.15662569 
   10000    300.96074    -341.5672    149063.22   -47338.379     4132.971    -51471.35   0.15364251 
   10200    303.07312   -211.52228    148874.92   -47332.059    4161.9795   -51494.039   0.15336834 
   10400    299.58243   -667.38525    149537.38   -47313.713    4114.0432   -51427.756   0.15126335 
   10600    300.09285   -740.89942    149645.86   -47293.673    4121.0527   -51414.726   0.14954582 
   10800    297.20595   -307.99591    149017.11   -47332.124    4081.4081   -51413.533   0.14771831 
   11000    297.10792   -280.93911    148993.14   -47375.722    4080.0618   -51455.784    0.1471964 
   11200    297.16423   -765.24451    149594.91   -47389.022     4080.835   -51469.857    0.1552468 
   11400    299.10818   -679.89692    149536.68    -47415.64    4107.5306   -51523.171   0.14954054 
   11600    298.22844   -268.03365    148990.33   -47390.773    4095.4494   -51486.223   0.14199655 
   11800    291.76828   -346.33836    149087.62   -47464.313    4006.7347   -51471.048   0.14220409 
   12000    292.54489   -688.64414    149519.19   -47461.742    4017.3996   -51479.142     0.151091 
   12200    298.08495   -577.33345    149390.75   -47440.302     4093.479   -51533.781   0.14854188 
   12400    293.67853   -339.55105    149085.09   -47409.484    4032.9674   -51442.452   0.14419403 
   12600    297.78155   -487.05842    149244.23   -47421.421    4089.3124   -51510.734   0.14422757 
   12800    298.93257   -623.98721    149472.69   -47430.763    4105.1189   -51535.882   0.14000893 
   13000    293.11619   -521.83598     149323.8   -47411.904     4025.245   -51437.149   0.14852097 
   13200     294.3263   -359.18609    149163.69   -47384.691    4041.8629   -51426.554   0.14990617 
   13400    293.36276   -470.47842    149330.39   -47404.126    4028.6311   -51432.758   0.15027208 
   13600    297.13881   -597.21892    149468.77   -47394.082    4080.4861   -51474.568   0.15013748 
   13800    295.66607   -487.05124     149292.5   -47389.856    4060.2614   -51450.117   0.14791025 
   14000    293.71205    -390.2685    149196.23   -47410.803    4033.4277    -51444.23   0.14728559 
   14200    293.51672   -540.76937    149360.86   -47437.464    4030.7454   -51468.209   0.14545387 
   14400    295.83794   -575.77877    149409.58   -47462.126    4062.6217   -51524.747   0.14618042 
   14600    292.60775   -457.66218    149235.49   -47459.328    4018.2628   -51477.591   0.14589226 
   14800    296.36027   -449.01594    149231.18   -47443.191    4069.7947   -51512.986   0.14117665 
   15000    290.99693   -550.20425    149379.48    -47493.96    3996.1421   -51490.102   0.14178081 
   15200    290.37698   -544.76015    149330.01   -47548.955    3987.6285   -51536.583   0.14389152 
   15400    292.25102   -434.28395     149183.1   -47566.849     4013.364   -51580.213   0.14219916 
   15600    294.46606    -478.9513    149202.73   -47604.382    4043.7822   -51648.164   0.14366787 
   15800    289.46713   -561.17461    149306.98   -47554.171    3975.1339   -51529.305   0.14735388 
   16000    294.18761   -544.40591    149271.49   -47540.398    4039.9584   -51580.356   0.14412777 
   16200    292.63185   -399.57202    149167.66   -47487.451    4018.5937   -51506.045   0.14093235 
   16400    288.94349   -488.98587    149252.19   -47483.403     3967.943   -51451.346    0.1419187 
   16600    294.10647   -600.50656    149411.87   -47500.124    4038.8441   -51538.968   0.14712481 
   16800    298.21291   -548.04715    149313.78    -47455.15    4095.2362   -51550.386   0.14996906 
   17000    293.94445   -391.42774    149173.62   -47479.634    4036.6192   -51516.253   0.14082345 
   17200    298.31756   -486.35041    149304.28   -47461.417    4096.6733    -51558.09   0.13996618 
   17400    291.33913   -607.47259    149411.86   -47505.925    4000.8414   -51506.767   0.14684049 
   17600    290.40381   -443.05942    149232.74   -47544.839     3987.997   -51532.836   0.14637291 
   17800    289.55811   -432.27903    149151.99   -47564.823    3976.3834   -51541.206   0.14905321 
   18000    292.14764   -541.18556    149322.94   -47598.472    4011.9444   -51610.416   0.14527364 
   18200    284.96089   -592.91508    149360.16   -47623.152    3913.2517   -51536.404   0.14250759 
   18400    291.66402   -404.80255    149146.33   -47646.303     4005.303   -51651.605    0.1349289 
   18600    287.19792   -384.63397    149150.77   -47601.348    3943.9718    -51545.32   0.14061725 
   18800    293.60547   -599.13125     149433.4   -47534.658     4031.964   -51566.622   0.14630117 
   19000    290.87769    -631.1045    149445.79   -47562.278    3994.5045   -51556.782   0.14227167 
   19200    290.74991    -331.2437    149099.24   -47538.288    3992.7499   -51531.038   0.13758341 
   19400    290.58515    -430.4884    149146.37   -47529.231    3990.4873   -51519.718   0.14136121 
   19600    296.46044   -719.07524     149567.1   -47555.271    4071.1703   -51626.441   0.14279766 
   19800    289.72951   -607.82048    149449.79   -47552.025    3978.7371   -51530.762   0.14357932 
   20000    293.46546   -204.14474    148938.49   -47545.825    4030.0415   -51575.866   0.14188637 
   20200    285.78873   -387.79723    149148.11   -47571.196    3924.6201   -51495.816   0.14239819 
   20400    289.11193   -819.76171     149718.4   -47544.434    3970.2561    -51514.69   0.14138163 
   20600    290.60454   -575.76592    149367.76   -47543.456    3990.7535   -51534.209   0.14163465 
   20800    291.77075   -121.81794    148727.39   -47549.644    4006.7687   -51556.413    0.1446709 
   21000    289.35059   -492.30526    149222.85   -47542.651    3973.5335   -51516.185   0.14547443 
   21200    289.43806   -940.76684    149835.71   -47525.292    3974.7348   -51500.027    0.1457311 
   21400     293.5032    -464.9985    149225.02    -47526.07    4030.5597    -51556.63   0.14280583 
   21600    294.76382   -67.646275    148702.49   -47483.975    4047.8712   -51531.846   0.14087445 
   21800    293.38154   -558.54217    149405.85   -47431.687    4028.8889   -51460.576   0.14435342 
   22000    291.61162   -914.63212    149844.04   -47431.608    4004.5833   -51436.192   0.15731208 
   22200    294.62044    -354.5335    149110.87   -47396.316    4045.9023   -51442.219   0.15116957 
   22400    297.86326    -164.2277    148839.15   -47376.005    4090.4346    -51466.44   0.14791597 
   22600    295.27396   -682.99739    149564.11     -47377.6    4054.8767   -51432.477   0.14941219 
   22800    294.84212    -772.1729    149685.15    -47411.98    4048.9465   -51460.926   0.15262257 
   23000    295.24296    -307.4958    148974.94   -47435.495     4054.451   -51489.946   0.15110077 
   23200    295.12587   -272.98439    148929.14   -47430.241    4052.8431   -51483.084    0.1478929 
   23400    293.88701   -706.77315    149567.24   -47433.274    4035.8304   -51469.105   0.15356311 
   23600    291.67726   -717.71412    149513.91   -47450.195    4005.4848   -51455.679     0.153076 
   23800    297.03188   -312.70726    148938.93   -47392.097    4079.0176   -51471.114   0.15063104 
   24000    290.33118   -369.08716     149053.6    -47429.41    3986.9996   -51416.409   0.15088873 
   24200    293.09735   -749.10784    149566.71   -47408.528    4024.9863   -51433.515   0.15729562 
   24400    295.00382   -593.65103     149388.1   -47415.128     4051.167   -51466.295   0.15569954 
   24600    288.61965   -302.34445    148944.21   -47417.141    3963.4959   -51380.637   0.15604289 
   24800    294.54152   -442.85689    149172.39   -47339.133    4044.8185   -51383.951   0.15194713 
   25000    298.08064   -726.48367     149570.7   -47334.486    4093.4198   -51427.906   0.15182755 
   25200    291.39989   -565.39565    149344.91   -47359.911    4001.6758   -51361.587   0.15408648 
   25400    296.31371   -328.45852    149002.84     -47425.8    4069.1552   -51494.955   0.15556714 
   25600    296.15753   -460.09266    149193.74   -47447.265    4067.0105   -51514.275   0.15189247 
   25800    294.49572   -656.97879    149447.02   -47421.904    4044.1895   -51466.093   0.15397894 
   26000    296.01806   -518.70532    149227.05   -47401.299    4065.0952   -51466.394   0.15593809 
   26200     294.4268   -332.09026    149009.34   -47450.153    4043.2431   -51493.396   0.15249914 
   26400    294.75525   -476.30694    149215.32   -47471.772    4047.7535   -51519.526   0.15357092 
   26600    297.52075   -661.03239    149424.35    -47478.61    4085.7311   -51564.341    0.1559628 
   26800     293.5579   -478.16405    149222.61   -47484.827    4031.3109   -51516.138   0.15116569 
   27000    294.29503   -391.77796    149093.89    -47487.35    4041.4335   -51528.784   0.14300256 
   27200    290.43523   -567.75011    149331.16   -47479.015    3988.4285   -51467.444   0.14695081 
   27400    291.48522   -605.69317    149404.03   -47443.917    4002.8476   -51446.764   0.15833821 
   27600    294.13076   -450.78657    149171.99   -47451.116    4039.1777   -51490.293   0.15442655 
   27800    293.68577   -423.98107     149156.2   -47447.337    4033.0668   -51480.404   0.14748918 
   28000    292.87051   -586.66744    149410.49   -47433.346    4021.8712   -51455.218    0.1516254 
   28200    292.76763   -558.62961    149371.14   -47452.338    4020.4583   -51472.797    0.1530482 
   28400     293.2782   -380.14344    149079.57   -47450.421    4027.4698   -51477.891   0.15229964 
   28600    294.91981   -454.34003    149155.15   -47471.522    4050.0134   -51521.535   0.15251886 
   28800    294.84002   -586.09738    149402.37   -47480.913    4048.9176   -51529.831   0.15371607 
   29000    292.81599   -537.85419    149305.69   -47518.004    4021.1225   -51539.127   0.14707523 
   29200    288.78442   -363.17073    149043.62   -47555.284    3965.7586   -51521.043   0.14432928 
   29400    285.58185   -453.01488    149150.82   -47555.445     3921.779   -51477.224   0.15176453 
   29600    293.37761   -645.20033     149408.4   -47512.892     4028.835   -51541.727   0.15548621 
   29800    298.34242   -567.65579    149295.98   -47434.572    4097.0146   -51531.587   0.15492052 
   30000    292.20607   -374.19022    149069.62   -47424.799    4012.7467   -51437.546    0.1530276 
   30200    294.20821    -509.2532    149271.77   -47433.421    4040.2413   -51473.662   0.15594021 
   30400    293.05331   -662.64639    149490.56   -47483.653    4024.3816   -51508.034   0.15365813 
   30600    294.72126   -476.09021    149230.05   -47431.005    4047.2868   -51478.292   0.15156261 
   30800    299.10919   -316.44376    149062.69    -47398.98    4107.5445   -51506.525   0.15471504 
   31000    296.48234   -600.26831    149425.85   -47383.215     4071.471   -51454.686   0.15415086 
   31200    294.00386   -709.83559    149586.18   -47383.119    4037.4351   -51420.554    0.1552201 
   31400    294.38526   -357.52403    149111.24   -47383.773    4042.6726   -51426.445   0.14819717 
   31600    291.07816   -325.23013    148964.75   -47448.323    3997.2576    -51445.58   0.15303912 
   31800     295.0398   -655.84947    149495.74   -47417.217    4051.6612   -51468.878   0.15433274 
   32000    300.06438     -758.745    149609.58   -47386.008    4120.6617    -51506.67   0.15320448 
   32200    300.66845   -261.50384    148956.75   -47426.371    4128.9571   -51555.328   0.14965039 
   32400    297.60897   -203.65351    148906.81   -47422.244    4086.9425   -51509.186   0.14866927 
   32600    292.50171   -766.49895    149669.04   -47401.536    4016.8066   -51418.343   0.15052361 
   32800    296.56168   -754.23651    149625.97   -47399.765    4072.5605   -51472.326   0.15290488 
   33000    300.84689   -134.06367    148838.11   -47394.953    4131.4076    -51526.36   0.14601252 
   33200    295.42475   -278.25261    149049.72   -47388.465    4056.9475   -51445.412   0.15074801 
   33400    300.70306   -893.52057    149840.88   -47343.096    4129.4325   -51472.528   0.15605737 
   33600    299.76194    -626.6415    149521.63   -47278.414    4116.5084   -51394.922   0.15420844 
   33800    298.13399   -130.48544    148795.69   -47319.747    4094.1524   -51413.899   0.15443044 
   34000    294.43202   -419.36782     149188.3   -47339.837    4043.3148   -51383.151   0.15629533 
   34200    293.79072   -884.42609    149810.62   -47365.376     4034.508   -51399.884   0.16561684 
   34400    294.29325   -507.48503    149302.34   -47436.306    4041.4091   -51477.715   0.15097479 
   34600    293.18203   -107.18956    148760.69   -47412.524    4026.1492   -51438.673     0.151988 
   34800    293.17329   -531.49542    149342.83   -47452.727    4026.0292   -51478.756   0.15350716 
   35000    293.25308   -807.09001    149745.51   -47472.942    4027.1248   -51500.067    0.1498703 
   35200    291.43343   -441.09403    149140.26   -47465.433    4002.1363   -51467.569   0.15387044 
   35400    294.05435   -173.01998     148843.9   -47428.467    4038.1284   -51466.596   0.15420244 
   35600    294.75186   -637.72313    149425.07   -47419.542     4047.707   -51467.249   0.15611246 
   35800    294.77176    -724.1762    149592.59   -47417.442    4047.9804   -51465.423   0.14909818 
   36000    295.88738   -318.78907    149081.51   -47422.616    4063.3006   -51485.917   0.14795105 
   36200    297.82305    -287.7094    149038.93   -47440.433    4089.8824   -51530.316   0.15061952 
   36400     286.9372   -639.60705    149492.24   -47462.597    3940.3914   -51402.988   0.15236516 
   36600    295.65765   -614.15113    149445.86   -47437.194    4060.1459    -51497.34   0.14811439 
   36800    292.55991   -342.16656    148997.85   -47485.609    4017.6059   -51503.215   0.15507812 
   37000    294.21887   -357.76947    149105.09   -47475.192    4040.3877   -51515.579   0.14990433 
   37200     297.8269   -704.13382    149543.97   -47432.564    4089.9353   -51522.499   0.15273647 
   37400    293.36847   -576.85726    149411.44   -47425.276    4028.7094   -51453.985   0.15308535 
   37600    295.14641   -318.22483    149008.45   -47455.787    4053.1251   -51508.912    0.1513117 
   37800    296.30656   -448.52661    149156.77   -47420.891    4069.0571   -51489.948   0.15341552 
   38000    293.85189    -705.3706     149489.1   -47471.889     4035.348   -51507.237   0.15031137 
   38200    295.42623    -549.7204    149282.17   -47467.266    4056.9678   -51524.233   0.15590023 
   38400    294.92276   -321.22274    148976.39   -47434.384    4050.0539   -51484.438   0.15643229 
   38600    298.14355   -466.34972    149216.37   -47429.872    4094.2838   -51524.156   0.15426736 
   38800    291.63332   -699.56232    149512.51   -47478.681    4004.8813   -51483.562   0.15445988 
   39000    293.07584   -491.88043    149244.88    -47508.96    4024.6909   -51533.651   0.15296007 
   39200    288.09883   -312.20659    148990.57   -47530.417    3956.3437   -51486.761   0.14857087 
   39400     294.5826   -528.42054    149276.11   -47520.352    4045.3826   -51565.734   0.14796925 
   39600    284.82253   -688.29879    149451.47   -47588.726    3911.3516   -51500.078   0.15398943 
   39800     291.5277   -414.30823    149102.22   -47580.157    4003.4309   -51583.588   0.14479076 
   40000    288.50595   -317.12182     148942.2   -47593.595    3961.9345   -51555.529   0.14808667 
   40200     291.7966   -546.18803    149311.45   -47564.952    4007.1237   -51572.076   0.14655538 
   40400    287.25087   -669.08514    149432.18   -47557.718     3944.699   -51502.417   0.15568569 
   40600    292.19621   -388.86875    149076.38   -47589.744    4012.6113   -51602.355   0.15054262 
   40800    288.65196   -340.73613    149024.93   -47608.897    3963.9396   -51572.837   0.15078769 
   41000    290.08417   -631.51462    149402.02    -47561.69    3983.6076   -51545.297   0.15121742 
   41200    291.52236   -636.95595    149379.53   -47595.066    4003.3576   -51598.424   0.14403469 
   41400    286.46451   -350.23699    148978.81   -47560.934    3933.9002   -51494.834    0.1471824 
   41600    286.11709   -402.52957    149094.58   -47555.373    3929.1292   -51484.502   0.15008952 
   41800    290.90966   -738.21263    149538.07   -47551.255    3994.9437   -51546.199    0.1531951 
   42000    289.35202   -553.61807    149323.44   -47524.623    3973.5532   -51498.177   0.14865723 
   42200    288.57065   -247.24463    148913.85   -47554.855     3962.823   -51517.678   0.14613051 
   42400    285.62475   -513.84139    149229.29   -47605.556    3922.3681   -51527.924   0.15124662 
   42600    284.53999   -819.97567    149558.98   -47628.123    3907.4715   -51535.595    0.1573235 
   42800    284.62293   -461.72872    149129.87    -47632.09    3908.6105   -51540.701    0.1562519 
   43000    291.61594   -223.29691    148863.73    -47588.92    4004.6427   -51593.563   0.15180844 
   43200    287.31965   -567.20287    149353.82   -47589.043    3945.6435   -51534.687   0.14909509 
   43400    288.11362   -743.59234     149555.7   -47577.096    3956.5468   -51533.642   0.14620584 
   43600    289.53725   -346.18797    149010.35   -47577.025    3976.0969   -51553.122   0.14672602 
   43800     292.1433    -260.4909    148898.91   -47550.685    4011.8847    -51562.57   0.14437217 
   44000    292.04272   -718.45266    149479.14   -47565.564    4010.5035   -51576.067    0.1487036 
   44200    291.41707   -705.44986    149478.28   -47608.072    4001.9118   -51609.983   0.14947513 
   44400    290.61907   -235.34447    148878.76   -47586.065    3990.9531   -51577.018   0.14449361 
   44600    294.84959   -318.15635    148989.15   -47523.547    4049.0492   -51572.596   0.14703109 
   44800    295.77611   -792.69061    149618.31   -47483.135    4061.7726   -51544.908   0.15484468 
   45000    297.67392   -667.02839    149405.68   -47520.749    4087.8345   -51608.584    0.1557096 
   45200     294.6771   -178.17383    148786.17   -47545.713    4046.6803   -51592.393   0.14673167 
   45400    291.22338   -400.39997    149072.85   -47594.938    3999.2518    -51594.19    0.1454033 
   45600    283.30145   -791.62577    149628.44   -47575.798    3890.4632   -51466.261   0.15196953 
   45800    293.57258   -545.45775    149280.57   -47553.066    4031.5124   -51584.578   0.14403861 
   46000    290.88087   -154.61021     148803.2   -47552.923    3994.5482   -51547.472   0.14652178 
   46200    286.22609   -529.79016     149179.6   -47584.326    3930.6261   -51514.953    0.1567483 
   46400    289.93336   -729.59656    149539.93   -47563.359    3981.5365   -51544.896   0.15278734 
   46600    292.46785   -482.49477    149184.95   -47564.257    4016.3417   -51580.599   0.14060678 
   46800    292.11536   -263.19149    148906.93   -47529.145     4011.501   -51540.646   0.14671135 
   47000    285.94513   -534.41672    149245.31    -47505.95    3926.7678   -51432.718   0.15845583 
   47200    290.21947   -693.64857    149482.42   -47472.792    3985.4655   -51458.258   0.15254555 
   47400    295.57669   -472.67697    149182.29   -47406.006    4059.0341    -51465.04   0.15451039 
   47600    294.39893   -366.06264    149042.27   -47379.752    4042.8603   -51422.612   0.15627235 
   47800      297.621   -520.27846    149321.94   -47346.755    4087.1077   -51433.863   0.15105474 
   48000    294.56805   -639.03079    149439.07   -47349.199    4045.1828   -51394.382    0.1548783 
   48200    297.30673   -444.88494     149183.1   -47351.686    4082.7921   -51434.478   0.15454715 
   48400    298.68275    -363.8939    149089.77   -47332.535    4101.6883   -51434.223   0.15403184 
   48600    295.51687   -565.46238    149349.34   -47396.708    4058.2126   -51454.921    0.1509486 
   48800    294.49046   -619.75237    149391.18    -47337.07    4044.1173   -51381.188   0.15829981 
   49000    296.28825   -394.57949    149171.22   -47316.838    4068.8057   -51385.644   0.15235455 
   49200    296.27597   -419.63227    149188.62   -47351.257     4068.637   -51419.894   0.14970354 
   49400    292.27897   -554.03253    149407.85   -47360.272    4013.7478    -51374.02   0.15523478 
   49600    299.10559   -614.74607    149381.68   -47379.394     4107.495   -51486.889   0.15453262 
   49800    299.45554   -395.42804    149144.93   -47360.004    4112.3007   -51472.305   0.14852485 
   50000    295.73899   -452.72989    149183.64   -47362.213    4061.2629   -51423.476   0.15040481 
   50200    296.00922   -612.02826    149403.52   -47398.112    4064.9739   -51463.085   0.15466913 
   50400    295.54778   -530.92119    149313.49   -47402.695    4058.6371   -51461.332   0.15469659 
   50600    294.69683   -380.80187    149111.71   -47425.422    4046.9513   -51472.373   0.15364779 
   50800    293.03122   -472.40303    149240.52   -47434.598    4024.0782   -51458.676   0.15084262 
   51000    300.18283   -606.84337    149424.26   -47369.354    4122.2883   -51491.643   0.15374739 
   51200    298.73405   -495.84673    149301.85   -47401.201    4102.3927   -51503.594   0.14884622 
   51400    293.04621   -378.81505    149127.44   -47364.136     4024.284    -51388.42   0.15393875 
   51600    292.78141   -512.62413     149274.3   -47364.902    4020.6476    -51385.55   0.15587907 
   51800    298.22097    -605.6936    149398.89   -47360.905    4095.3469   -51456.252   0.15550224 
   52000    297.41372   -460.66281    149220.92   -47322.691    4084.2613   -51406.952   0.15355029 
   52200     301.7839   -416.75635    149155.35   -47295.835    4144.2751    -51440.11   0.15562234 
   52400    299.91455   -526.81086    149338.39   -47274.695    4118.6041   -51393.299   0.15613074 
   52600    297.47271   -583.75359    149349.45    -47312.48    4085.0713   -51397.551    0.1555098 
   52800    297.07581   -393.05149    149149.76   -47333.306    4079.6209   -51412.927   0.15278924 
   53000    297.57788   -454.09296    149213.69   -47339.135    4086.5156   -51425.651     0.155563 
   53200    302.01387   -587.99113    149445.67   -47346.378    4147.4333   -51493.812   0.14829409 
   53400    297.89798   -552.54916    149365.87   -47376.547    4090.9114   -51467.459   0.14845371 
   53600    299.51471   -350.87295    149111.22   -47405.229    4113.1133   -51518.342    0.1436124 
   53800    294.72648   -450.48256    149264.82   -47381.307    4047.3585   -51428.665   0.14798933 
   54000    297.12594   -716.96587    149603.58    -47369.55    4080.3093   -51449.859   0.15109222 
   54200    296.64161    -563.5463    149351.37   -47379.976    4073.6581   -51453.634   0.15102093 
   54400    292.40727   -266.38492    148953.72   -47410.284    4015.5097   -51425.793   0.15035418 
   54600    293.67755    -509.6584    149301.79   -47403.153    4032.9539   -51436.107   0.14770116 
   54800    297.76511   -798.05938    149710.71   -47341.922    4089.0867   -51431.009   0.15231225 
   55000    301.21615   -472.36795    149231.14   -47349.278    4136.4784   -51485.756    0.1520504 
   55200    297.63754   -110.33597    148831.72   -47379.748    4087.3349   -51467.083   0.14680685 
   55400    296.03304    -593.6205     149418.9   -47401.371    4065.3009   -51466.672   0.14793361 
   55600    292.30411   -847.67703    149761.11   -47433.907    4014.0931       -51448   0.15109085 
   55800    293.95338   -384.86411    149080.62   -47411.681    4036.7418   -51448.423   0.15146519 
   56000    295.22078   -142.73202    148814.37   -47398.395    4054.1464   -51452.542    0.1497391 
   56200    294.46277   -694.88726     149559.8   -47428.589     4043.737   -51472.326   0.15268559 
   56400    295.42424   -804.60946    149721.12   -47428.365    4056.9406   -51485.306   0.15330186 
   56600    296.48468     -270.978    148961.55   -47438.607    4071.5031    -51510.11    0.1476752 
   56800    292.93832   -235.74017    148923.67   -47389.483    4022.8024   -51412.285   0.15192747 
   57000    300.55134   -759.36876    149662.98   -47391.938    4127.3489   -51519.287   0.15034888 
   57200      290.723   -683.57812    149569.46   -47420.689    3992.3804   -51413.069   0.15179753 
   57400    294.26545   -192.57494     148913.7   -47446.039    4041.0273   -51487.066   0.14651994 
   57600    296.56622   -376.33267    149119.95   -47435.414    4072.6229   -51508.037    0.1443598 
   57800    290.61236   -872.80393    149708.02   -47443.623    3990.8609   -51434.484   0.15475385 
   58000    291.46947   -578.59322    149422.79   -47458.685    4002.6313   -51461.316   0.14968178 
   58200    290.18693   -230.74879    148949.17   -47502.873    3985.0187   -51487.892   0.14877765 
   58400    294.32572   -463.68071    149283.08   -47494.779     4041.855   -51536.634   0.14996125 
   58600    293.40134   -751.54892    149650.58   -47469.442    4029.1608   -51498.603   0.14681428 
   58800    291.33709   -502.71698    149279.98   -47505.665    4000.8133   -51506.478   0.14705216 
   59000    290.04445   -238.71531     148984.2   -47531.603    3983.0621   -51514.665   0.14676209 
   59200    290.83095   -509.97849    149341.25   -47529.693    3993.8627   -51523.556   0.14416104 
   59400    293.32454   -644.13655    149555.41   -47469.466    4028.1062   -51497.573   0.14387914 
   59600    298.34535   -487.75049    149222.11    -47468.68     4097.055   -51565.735   0.14757626 
   59800    293.61218   -324.39126    149041.84   -47454.472    4032.0562   -51486.528   0.15096149 
   60000    294.80754    -601.6833    149409.09   -47439.987    4048.4717   -51488.459   0.15149972 
   60200    296.92644   -658.02043    149567.04   -47410.289    4077.5696   -51487.859   0.14423749 
   60400    299.87671   -422.80569    149227.69   -47381.309    4118.0845   -51499.393   0.15081989 
   60600    292.34538   -394.22341    149132.41   -47423.408    4014.6598   -51438.068   0.14898746 
   60800    296.17038   -607.62903    149444.74   -47359.522    4067.1869   -51426.709   0.15186096 
   61000    298.50991   -640.55664    149480.61   -47400.451    4099.3148   -51499.766   0.15414936 
   61200    295.42418   -385.45677    149163.99   -47405.151    4056.9397   -51462.091    0.1488501 
   61400     297.3924   -369.25712     149165.7   -47404.274    4083.9685   -51488.243   0.14531732 
   61600    292.79352   -654.30316    149450.83   -47392.371    4020.8139   -51413.185   0.15170789 
   61800    299.00148    -551.1872    149403.82   -47393.003    4106.0653   -51499.068   0.15345091 
   62000    292.87081   -372.71434     149139.1   -47419.328    4021.8753   -51441.203   0.14986707 
   62200    300.38169   -409.66288    149193.76   -47431.609    4125.0191   -51556.628   0.14309788 
   62400    295.68841   -583.57032    149467.89   -47388.799    4060.5682   -51449.367   0.15471857 
   62600    295.03088   -569.70132    149395.52    -47409.42    4051.5387   -51460.958   0.14817849 
   62800    293.36006   -404.69461    149110.19   -47388.475     4028.594   -51417.069   0.15571082 
   63000    295.04224    -435.5307    149240.56   -47354.754    4051.6947   -51406.448   0.15526966 
   63200    296.22708   -715.90551    149543.58   -47357.292    4067.9656   -51425.258   0.15723771 
   63400    300.61721   -477.93268    149353.34   -47314.428    4128.2534   -51442.682    0.1492273 
   63600    302.95645    -328.0894    149119.55   -47296.887    4160.3772   -51457.265   0.14961638 
   63800    299.93093   -544.40101    149348.86   -47324.605    4118.8291   -51443.435    0.1546889 
   64000    303.19972   -635.54513    149516.63   -47315.897     4163.718   -51479.615   0.14467201 
   64200    298.22493   -423.10988    149230.56   -47319.179    4095.4013   -51414.581   0.14883712 
   64400     298.1063   -362.27234    149112.81   -47307.985    4093.7722   -51401.757   0.15699805 
   64600    294.85129   -585.11067    149416.01   -47361.411    4049.0725   -51410.483   0.15034856 
   64800    291.58505    -627.1322     149489.1   -47370.375    4004.2185   -51374.593   0.15212456 
   65000    302.49462   -412.58082    149184.92   -47363.842    4154.0352   -51517.877   0.15201654 
   65200    301.44026   -353.62908    149140.61   -47391.309    4139.5561   -51530.865   0.14585082 
   65400    293.07651    -645.2419    149460.44   -47414.659    4024.7002   -51439.359   0.15024414 
   65600    291.59032    -601.8372    149415.06   -47438.987    4004.2909   -51443.278   0.14974602 
   65800    298.42859    -339.5068    149055.66   -47416.077    4098.1981   -51514.275   0.15148096 
   66000    296.09262    -412.6977    149154.54   -47414.917    4066.1191   -51481.036    0.1445216 
   66200    303.17502   -719.77148       149560   -47438.289    4163.3788   -51601.668   0.14450282 
   66400    294.10987    -566.3914    149361.34   -47433.021    4038.8908   -51471.912      0.15862 
   66600    291.41784   -237.32174    148900.81   -47448.669    4001.9222   -51450.591   0.15201372 
   66800    292.25095   -471.20519    149175.14   -47429.192     4013.363   -51442.555   0.15717426 
   67000    292.37428    -776.9038    149658.05   -47454.243    4015.0567     -51469.3   0.15486651 
   67200    294.49637   -463.28371    149290.95   -47478.386    4044.1985   -51522.585   0.14620279 
   67400    288.75347   -167.58771    148791.16   -47513.809    3965.3335   -51479.142   0.14944693 
   67600    294.32128    -478.6709    149246.07   -47467.028     4041.794   -51508.822   0.14797448 
   67800    290.99026   -853.62567    149745.84   -47407.052    3996.0505   -51403.102   0.15913588 
   68000    292.73689   -465.73027    149173.43   -47407.616    4020.0363   -51427.652    0.1483706 
   68200    291.65484   -100.34141    148726.77   -47483.401    4005.1769   -51488.578   0.14551087 
   68400    294.42293   -592.71017    149397.09   -47423.488    4043.1899   -51466.678   0.15522154 
   68600     297.4742   -838.93368    149788.39   -47403.194    4085.0918   -51488.285    0.1486623 
   68800    292.13437   -356.23193    149076.04   -47376.162    4011.7621   -51387.924   0.15139599 
   69000    299.62045   -125.42961    148798.92   -47424.644    4114.5654    -51539.21    0.1465839 
   69200    295.04998   -721.67536    149545.48   -47425.517     4051.801   -51477.318   0.15607097 
   69400    292.79673   -810.28427    149677.09    -47462.34    4020.8579   -51483.198    0.1461903 
   69600    294.52341   -256.19317    148932.57   -47480.909    4044.5698   -51525.479   0.14060705 
   69800    292.36816   -243.57797    148905.18   -47448.206    4014.9727   -51463.178   0.14555249 
   70000    290.06595   -768.74637    149615.78   -47403.059    3983.3573   -51386.416   0.15210637 
   70200    296.74146   -675.22803    149557.93   -47384.997    4075.0293   -51460.026   0.15053474 
   70400    294.34148    -288.9004    148942.95   -47404.746    4042.0714   -51446.817    0.1554238 
   70600    295.87417   -343.58856    149070.09   -47376.438    4063.1192   -51439.557   0.15012136 
   70800    300.67893   -734.07429    149626.17   -47397.276    4129.1011   -51526.377   0.15071112 
   71000    290.77447   -637.69129    149459.61   -47444.012    3993.0871   -51437.099    0.1508727 
   71200    292.51889   -233.42185    148958.37   -47456.608    4017.0425    -51473.65   0.15076997 
   71400    291.78002   -381.15438    149151.98   -47423.601     4006.896   -51430.497   0.15318604 
   71600    296.26246   -700.11025    149567.76   -47397.836    4068.4514   -51466.288    0.1479255 
   71800    298.35276   -548.90115    149348.07   -47420.085    4097.1567   -51517.242   0.14605958 
   72000    294.71985   -270.74338    149007.42   -47447.811    4047.2674   -51495.078   0.14140389 
   72200     295.3171   -476.73704    149231.46    -47482.17    4055.4692    -51537.64   0.14784459 
   72400    292.04756   -659.54608    149467.88   -47461.108    4010.5699   -51471.678   0.15482118 
   72600    298.79732   -487.83184    149280.49   -47428.797    4103.2617   -51532.059   0.14857489 
   72800    290.02236   -398.36533    149087.73   -47507.414    3982.7587   -51490.172   0.15322015 
   73000    298.34125   -461.85851    149261.39   -47504.922    4096.9987    -51601.92   0.14322857 
   73200    295.32432   -620.38152    149415.14   -47516.609    4055.5684   -51572.177   0.14905774 
   73400    286.40521   -455.36671    149166.03   -47512.459    3933.0859   -51445.545   0.14926607 
   73600    292.69394   -387.76553    149029.76   -47496.699    4019.4464   -51516.146   0.15035396 
   73800    289.17431   -601.21884    149281.78   -47488.733    3971.1127   -51459.846   0.15809478 
   74000    293.09591   -610.09939     149399.6   -47535.442    4024.9665   -51560.409   0.14454434 
   74200    294.21962   -415.28878     149141.4   -47533.842     4040.398    -51574.24   0.14502439 
   74400    290.76777   -413.04273    149061.56   -47495.991    3992.9951   -51488.986   0.15222538 
   74600     293.7693    -568.4596    149347.08   -47517.849    4034.2139   -51552.063   0.15160833 
   74800     292.8415    -678.6009    149419.21   -47526.829    4021.4728   -51548.302   0.15202672 
   75000    294.93989   -422.99623    149110.15   -47491.619    4050.2891   -51541.908   0.14970851 
   75200    290.16493   -412.52324    149082.47   -47478.449    3984.7165   -51463.166   0.15247142 
   75400    295.08002   -578.44919     149402.5   -47464.514    4052.2135   -51516.727   0.14177478 
   75600    296.74936    -581.8059    149403.56   -47442.774    4075.1378   -51517.912    0.1449205 
   75800    291.16424   -383.50618     149103.7   -47421.715    3998.4397   -51420.155    0.1544928 
   76000    296.61533   -424.14763    149149.98   -47408.316    4073.2973   -51481.613   0.14955039 
   76200    294.36509   -623.65573    149429.22   -47431.797    4042.3956   -51474.193   0.15016523 
   76400    296.03774   -578.46097    149308.79   -47402.066    4065.3655   -51467.431   0.15059924 
   76600    293.71945   -357.67416    149027.26    -47389.54    4033.5294    -51423.07   0.15283386 
   76800    301.75042   -412.74531     149211.6   -47389.625    4143.8154    -51533.44   0.14408284 
   77000    296.71317   -697.49464       149535   -47388.904    4074.6408   -51463.545   0.14962497 
   77200    296.88446   -549.68399    149301.39   -47437.524    4076.9932   -51514.517   0.15541775 
   77400    294.95058   -234.67295    148962.16   -47429.169     4050.436   -51479.605    0.1413075 
   77600    293.06805   -484.42112    149253.39   -47443.986     4024.584    -51468.57    0.1437614 
   77800    294.49664   -731.19531    149573.91   -47453.551    4044.2022   -51497.754   0.15312407 
   78000    292.15405    -467.1873    149206.05   -47456.172    4012.0323   -51468.204   0.15095253 
   78200    294.78582   -246.21945    148942.44   -47452.195    4048.1733   -51500.368   0.14835709 
   78400    293.33336   -586.54375    149389.58   -47470.246    4028.2273   -51498.473   0.14632431 
   78600    291.00974   -769.29626    149602.78   -47486.467     3996.318   -51482.785   0.15642397 
   78800    297.04746   -384.68127     149124.8   -47476.648    4079.2315    -51555.88   0.14759305 
   79000    297.20872   -215.16863    148968.06   -47460.315    4081.4461   -51541.761   0.14043559 
   79200    292.00003   -677.01867    149475.71   -47468.103    4009.9173    -51478.02   0.15117618 
   79400    291.11081   -740.62452    149564.57   -47418.093     3997.706   -51415.799   0.15409564 
   79600    295.18087   -320.88727    149000.42   -47412.698    4053.5985   -51466.296    0.1487826 
   79800    291.58696   -286.56516    148966.42   -47439.798    4004.2447   -51444.043   0.14943064 
   80000    294.75515   -690.46708    149500.66   -47407.508    4047.7521    -51455.26   0.14887074 
   80200    290.47677   -684.72754    149439.09   -47370.453     3988.999   -51359.452    0.1549916 
   80400    300.81823   -246.79463    148891.87   -47344.627     4131.014   -51475.641   0.15284617 
   80600    295.70932   -385.04563    149066.12   -47363.916    4060.8554   -51424.771   0.15546656 
   80800    294.08626   -760.22638    149650.16   -47300.501    4038.5665   -51339.068   0.15357971 
   81000    293.26602   -639.31156    149419.62   -47356.045    4027.3026   -51383.347   0.15069133 
   81200    296.77266   -195.68577    148859.89   -47339.821    4075.4578   -51415.279   0.14929268 
   81400    298.30403   -393.35067    149184.03   -47314.802    4096.4876    -51411.29   0.14787119 
   81600    299.57736   -809.74036    149686.74   -47331.192    4113.9736   -51445.166   0.15531917 
   81800    296.58001   -552.42819    149320.27   -47338.546    4072.8123   -51411.358   0.15900412 
   82000    295.70767   -205.20572    148877.62   -47306.398    4060.8328    -51367.23   0.15231415 
   82200    300.92917   -492.96242    149273.38   -47351.756    4132.5374   -51484.293   0.14864132 
   82400    301.63241    -791.6047    149647.19   -47348.839    4142.1948   -51491.034   0.15599655 
   82600    300.15867   -453.38017    149184.42   -47397.024    4121.9565    -51518.98   0.15256756 
   82800     294.2334   -231.36124    148873.29   -47438.947    4040.5872   -51479.534   0.15007526 
   83000    293.57763   -593.38021    149339.45   -47419.417    4031.5818   -51450.999   0.14988917 
   83200    294.24504   -769.25066     149563.7   -47436.729     4040.747   -51477.476   0.15799408 
   83400    291.17765   -366.87716    149054.22   -47459.944    3998.6238   -51458.568   0.14669011 
   83600    293.66796   -210.31497     148884.4   -47478.538    4032.8222   -51511.361   0.14528808 
   83800     295.0252   -619.97719    149415.56   -47423.738    4051.4606   -51475.198   0.15306871 
   84000    291.88398   -705.63508    149523.73   -47452.527    4008.3235   -51460.851   0.15450063 
   84200    299.84217    -312.7154     149014.6   -47444.695    4117.6101   -51562.305   0.14585664 
   84400    292.60388   -247.20079    148978.91   -47448.623    4018.2097   -51466.832   0.14421193 
   84600    294.22463   -683.74504    149478.54   -47441.857    4040.4667   -51482.323   0.15342246 
   84800    292.06043   -683.16471    149470.03   -47451.217    4010.7467   -51461.963   0.15116013 
   85000    296.61757   -258.20351    148975.95   -47418.337    4073.3281   -51491.665   0.14765073 
   85200    300.24496   -369.56649    149085.07   -47387.842    4123.1415   -51510.983   0.15339375 
   85400    293.55277   -723.92745    149562.91   -47369.362    4031.2404   -51400.602    0.1565797 
   85600    298.11907   -587.72739     149413.7   -47368.264    4093.9475   -51462.212   0.14657473 
   85800    299.96522   -257.76319    148969.31   -47386.168    4119.2999   -51505.468   0.14700813 
   86000      296.782   -396.75981    149172.02   -47338.786     4075.586   -51414.372   0.15147666 
   86200    295.78441   -744.84501    149625.11   -47346.015    4061.8866   -51407.901   0.15640854 
   86400    298.90921   -583.49834    149400.59   -47341.332    4104.7982    -51446.13   0.15260952 
   86600     300.8738    -190.5339    148983.45   -47343.445    4131.7771   -51475.222   0.14905812 
   86800    296.89729   -497.27364    149263.68   -47373.154    4077.1693   -51450.323   0.14926355 
   87000    297.44822   -695.16495    149560.27    -47392.98     4084.735   -51477.715   0.14666703 
   87200    291.33446   -472.05865    149228.96   -47364.135    4000.7772   -51364.912   0.15506733 
   87400    298.79024    -301.7934    149012.06    -47328.39    4103.1644   -51431.554   0.15387403 
   87600    286.93684    -570.7856    149334.72   -47393.563    3940.3865   -51333.949   0.15611861 
   87800    296.90604   -662.60132    149447.97   -47400.439    4077.2895   -51477.728   0.14933447 
   88000     296.7931   -419.03673    149115.18   -47352.384    4075.7385   -51428.122   0.14920731 
   88200    296.47289   -377.25197     149080.2   -47364.913    4071.3412   -51436.255   0.15157247 
   88400    299.63517   -594.72674    149402.28   -47348.454    4114.7675   -51463.221   0.15448725 
   88600    300.62832   -609.55842    149398.47   -47362.239    4128.4061   -51490.645   0.15321076 
   88800    295.76492   -411.15185    149116.56   -47353.259     4061.619   -51414.878   0.15093359 
   89000    295.92966   -471.07849    149141.06   -47376.218    4063.8813   -51440.099    0.1540556 
   89200    294.44518   -621.77995    149360.89   -47347.301    4043.4955   -51390.797   0.15565876 
   89400    298.38297   -500.21595    149302.31   -47320.045    4097.5715   -51417.617   0.15418266 
   89600    294.63513   -428.48847    149122.48   -47343.228    4046.1041   -51389.332   0.15571907 
   89800    292.90979   -488.24699    149187.62   -47377.632    4022.4106   -51400.043   0.15970491 
   90000    297.53928   -557.07612    149315.51       -47394    4085.9855   -51479.985   0.15234547 
   90200    297.15933   -517.40926    149249.21   -47440.972    4080.7678    -51521.74   0.14789455 
   90400    297.29988   -427.18811    149140.21   -47462.605    4082.6979   -51545.303   0.14860991 
   90600    296.81119   -475.04532    149196.43   -47454.009     4075.987   -51529.996   0.15106429 
   90800    294.35037   -576.93701    149312.85   -47477.334    4042.1935   -51519.527   0.15125587 
   91000    296.18531   -479.03867    149255.13   -47479.504     4067.392   -51546.896   0.14793848 
   91200    293.29077   -471.15899    149154.48   -47493.691    4027.6425   -51521.334   0.15392086 
   91400    292.28119   -485.38645    149203.65   -47483.758    4013.7783   -51497.537   0.15161202 
   91600    296.28291   -547.53385    149275.07    -47488.58    4068.7323   -51557.312   0.14664138 
   91800    298.61083   -463.54527     149224.9   -47464.471    4100.7007   -51565.171   0.14686834 
   92000    289.67464    -449.1252    149190.55   -47477.759    3977.9836   -51455.742    0.1502537 
   92200    290.83273   -536.16688    149221.39   -47499.904    3993.8872   -51493.791   0.15176824 
   92400    295.35422   -511.28302    149252.01   -47479.013     4055.979   -51534.992   0.14540773 
   92600    290.23255   -492.45279    149248.06   -47535.569    3985.6452   -51521.214   0.14836059 
   92800     290.9841   -448.18682    149212.57   -47504.641    3995.9659   -51500.607   0.14576043 
   93000    295.47566   -469.85047     149246.9   -47432.562    4057.6466   -51490.208   0.14984949 
   93200    295.75234   -551.95115    149315.75   -47432.177    4061.4462   -51493.624   0.15534895 
   93400    295.20197   -503.16552    149259.49   -47434.629    4053.8882   -51488.517   0.15508719 
   93600    293.07653   -467.75892    149190.65    -47419.12    4024.7004    -51443.82   0.14893185 
   93800    292.19085   -513.82299    149290.07   -47409.131    4012.5377   -51421.669   0.14790505 
   94000     291.9112   -521.70407    149371.71   -47409.324    4008.6974   -51418.021   0.15641556 
   94200    293.68815   -464.41809    149250.98   -47494.477    4033.0995   -51527.577    0.1456738 
   94400    293.28625   -460.01222    149154.11   -47480.401    4027.5804   -51507.981   0.14638977 
   94600    293.27656   -490.34497     149257.6   -47477.605    4027.4473   -51505.053   0.14775028 
   94800    296.26594   -595.68339    149337.98   -47530.185    4068.4992   -51598.684   0.15205723 
   95000    290.13059   -490.97367    149196.67   -47536.859     3984.245   -51521.104   0.15437762 
   95200    288.46511   -443.01905    149134.17    -47542.25    3961.3736   -51503.624    0.1509223 
   95400    292.65104   -549.77591    149283.36   -47554.291    4018.8573   -51573.148    0.1505558 
   95600    292.48041   -547.06606    149336.89   -47515.561    4016.5141   -51532.075   0.14711542 
   95800    292.25733   -425.54751    149221.44   -47479.986    4013.4507   -51493.436    0.1455247 
   96000    291.62163   -463.10476    149193.08   -47472.119    4004.7208    -51476.84   0.14943465 
   96200    292.12655    -510.4699    149308.83   -47515.053    4011.6547   -51526.708   0.14570215 
   96400    290.33665   -526.30126    149348.72   -47507.721    3987.0748   -51494.796   0.14391726 
   96600    291.61549    -519.4539       149259   -47521.001    4004.6364   -51525.638   0.14772311 
   96800    288.40886   -489.30838    149191.82    -47574.66    3960.6011   -51535.262   0.15001746 
   97000    293.40814     -470.009    149259.62    -47558.15    4029.2543   -51587.404   0.14822777 
   97200     291.0798   -566.09881    149338.05   -47544.687    3997.2801   -51541.967   0.14931756 
   97400    292.96397   -491.51484     149280.6   -47499.806    4023.1547   -51522.961   0.14915597 
   97600     291.1478   -496.23766    149218.65   -47473.351    3998.2139   -51471.564   0.14959379 
   97800    295.30046   -492.08317     149296.4   -47466.244    4055.2408   -51521.485   0.14801568 
   98000    296.61479   -538.52272    149325.34   -47437.288    4073.2899   -51510.578   0.15359654 
   98200    295.51258   -438.76109    149214.41    -47448.97    4058.1537   -51507.124   0.14553479 
   98400    297.62174   -455.65045    149193.21   -47377.882    4087.1179       -51465   0.15639527 
   98600    295.89557   -567.52559    149337.37   -47425.079    4063.4131   -51488.492   0.15404248 
   98800    293.48093   -545.41602    149341.49   -47385.331    4030.2538   -51415.585   0.15611857 
   99000    292.94397   -486.33903    149203.62   -47389.385      4022.88   -51412.265   0.15486699 
   99200    290.22741   -469.65696    149223.05    -47454.78    3985.5745   -51440.355   0.15208878 
   99400    286.70211   -585.80133    149319.25   -47547.911    3937.1631   -51485.074    0.1532276 
   99600    291.57205   -531.34258       149209   -47572.121      4004.04   -51576.161   0.14468528 
   99800    288.91405   -399.17074    149070.72   -47543.982    3967.5387   -51511.521   0.15097187 
  100000    294.23484   -514.99524    149256.37   -47544.197     4040.607   -51584.804   0.14887643 
  100200    292.81025   -631.34078    149443.13   -47499.513    4021.0437   -51520.557   0.14520559 
  100400    296.31051   -464.46226    149225.33   -47498.541    4069.1113   -51567.652   0.14714935 
  100600    292.66236   -317.44516    149047.88   -47448.587    4019.0128     -51467.6   0.15157992 
  100800    292.92841   -546.00329    149360.19   -47476.988    4022.6664   -51499.655   0.15379948 
  101000     292.7778   -666.16219    149532.77   -47456.651    4020.5981   -51477.249   0.14835538 
  101200    293.52612   -435.92147    149159.78   -47438.606    4030.8744   -51469.481   0.15005834 
  101400    296.27247   -275.97173    149020.66   -47447.714    4068.5889   -51516.303   0.14897812 
  101600    294.33266   -659.78421    149453.52   -47461.005    4041.9503   -51502.955   0.14950815 
  101800    290.38628   -710.36077    149479.11   -47425.702    3987.7563   -51413.458   0.15694846 
  102000    290.97967   -334.91867    149032.69   -47430.573    3995.9051   -51426.478   0.15137858 
  102200     293.1372    -383.7416    149082.48   -47422.023    4025.5335   -51447.556    0.1485639 
  102400    295.74866   -672.15149    149540.84   -47360.118    4061.3956   -51421.514   0.14959092 
  102600    294.45457   -616.35345    149456.94   -47372.556    4043.6244    -51416.18   0.15879812 
  102800    302.99713   -294.37474    149024.36   -47389.009    4160.9359   -51549.945   0.15104752 
  103000    295.97593   -439.46213    149161.23    -47382.68    4064.5167   -51447.197   0.15194942 
  103200    296.51702   -661.73805    149572.58   -47358.272    4071.9472   -51430.219   0.14974041 
  103400    296.67127   -590.71601    149368.15   -47389.181    4074.0655   -51463.247   0.15627569 
  103600    296.38452   -250.15935    148933.45   -47395.289    4070.1277   -51465.417   0.15317852 
  103800      296.689   -463.08349    149212.71   -47399.212     4074.309   -51473.521   0.15359643 
  104000    295.49911   -820.09734    149631.17   -47403.752    4057.9687   -51461.721   0.15884327 
  104200    292.17559   -468.52603    149266.72   -47420.004    4012.3281   -51432.332   0.14934326 
  104400    302.35923   -225.49066    148940.22   -47440.216     4152.176   -51592.392   0.14717888 
  104600     292.1878   -550.39182    149375.68   -47431.887    4012.4958   -51444.383   0.15486726 
  104800    291.60468   -787.05412    149632.36   -47420.748     4004.488   -51425.236   0.16086703 
  105000    297.99048     -377.889    149144.86   -47454.301    4092.1817   -51546.483    0.1469711 
  105200    295.22255    -243.1595    148946.07   -47457.342    4054.1708   -51511.513   0.14375356 
  105400    295.77474   -594.44623    149475.17   -47445.751    4061.7538   -51507.505   0.15072169 
  105600    297.58299   -748.99403    149639.24   -47442.182    4086.5857   -51528.768   0.15496305 
  105800    288.30145   -365.11103    149049.82    -47462.67    3959.1262   -51421.797   0.15703905 
  106000    296.44272   -261.13014     148943.3   -47445.463    4070.9269    -51516.39    0.1537267 
  106200    295.93929   -684.84393    149535.26   -47416.964    4064.0135   -51480.977   0.15235918 
  106400    296.00747   -732.34287     149561.2   -47427.263    4064.9498   -51492.213   0.15327464 
  106600    292.27941   -305.09472    148964.06   -47433.702    4013.7538   -51447.456   0.14931651 
  106800    297.87171   -253.36121    149045.51   -47427.827    4090.5507   -51518.378   0.14479302 
  107000    293.51048   -756.21698    149667.08   -47378.996    4030.6597   -51409.656   0.15455687 
  107200     291.2673   -679.91508    149544.69   -47367.629     3999.855   -51367.484   0.15671736 
  107400    296.88665   -210.88862    148951.89   -47379.775    4077.0232   -51456.798   0.15356312 
  107600    298.31727    -384.5609    149142.38   -47357.058    4096.6693   -51453.727   0.15263367 
  107800    297.07709   -798.96143    149655.62   -47373.288    4079.6384   -51452.927   0.15810405 
  108000    301.00747   -570.35279    149375.45   -47351.831    4133.6128   -51485.444   0.15810024 
  108200     297.2472   -257.56055    148938.58   -47389.415    4081.9745    -51471.39   0.15571074 
  108400    292.76186    -472.1829    149257.83   -47383.731    4020.3791    -51404.11   0.15489119 
  108600    298.43589   -739.64123    149602.95   -47351.092    4098.2982   -51449.391   0.15298841 
  108800    294.93634   -475.99067    149244.91   -47376.276    4050.2404   -51426.517   0.15369663 
  109000    293.56522   -279.34451    148979.76   -47417.124    4031.4113   -51448.536   0.15247222 
  109200    296.98059   -557.78429    149313.35   -47418.069    4078.3132   -51496.382   0.15692355 
  109400    294.48007   -668.14472    149476.32   -47399.308    4043.9747   -51443.283   0.16507534 
  109600    292.56041   -434.61182    149154.12   -47361.095    4017.6128   -51378.708   0.15788398 
  109800    295.07376   -360.84699       149051   -47415.593    4052.1275    -51467.72   0.15358147 
  110000    299.17614   -613.55412    149348.74   -47350.894    4108.4638   -51459.358   0.16054391 
  110200     301.4867   -590.76373    149423.81   -47337.038    4140.1938   -51477.232   0.16003797 
  110400    294.19723   -450.43486    149208.28   -47390.225    4040.0905   -51430.315   0.15761128 
  110600    294.64171   -402.42365    149153.76   -47464.918    4046.1943   -51511.113   0.14886901 
  110800    293.90563   -553.49061     149323.4   -47459.231    4036.0861   -51495.317   0.15037513 
  111000    292.86457   -586.45716    149343.29    -47461.04    4021.7896    -51482.83   0.15347165 
  111200    298.20602   -445.39703    149168.86   -47451.359    4095.1416     -51546.5   0.15450945 
  111400    287.65524   -466.85152    149150.63   -47504.459     3950.252   -51454.711    0.1636471 
  111600    292.74152    -544.4547    149311.52   -47557.866    4020.0998   -51577.966   0.15530379 
  111800    289.47384   -559.12492    149281.25   -47590.668    3975.2261   -51565.894   0.14847363 
  112000    292.69306   -393.18036    149109.99   -47583.502    4019.4343   -51602.936    0.1477187 
  112200    288.67694   -464.00853    149179.58   -47540.447    3964.2827    -51504.73   0.15824855 
  112400    295.95415   -600.52421    149350.28   -47508.044    4064.2175   -51572.262   0.15589825 
  112600    296.40541   -528.68243    149309.37   -47482.872    4070.4145   -51553.287   0.14826934 
  112800    291.23456   -439.73262    149186.19   -47499.576    3999.4053   -51498.981   0.14822267 
  113000    289.83194   -475.59685    149221.91   -47477.506    3980.1438   -51457.649   0.15334088 
  113200    290.09128   -559.02707    149339.11   -47512.767    3983.7052   -51496.472   0.14988478 
  113400    291.26511   -536.25037    149295.05   -47492.927    3999.8249   -51492.752   0.15209546 
  113600    291.63513   -448.03693    149176.71   -47498.336    4004.9062   -51503.242   0.16086596 
  113800    292.12192   -438.79767     149240.2   -47480.707    4011.5911   -51492.298   0.15442798 
  114000    293.33205   -588.62737    149387.51   -47464.402    4028.2093   -51492.611    0.1547339 
  114200     293.3799   -530.48455    149289.62   -47478.311    4028.8665   -51507.178   0.15267482 
  114400     291.8257    -390.1691    149143.11   -47420.023    4007.5233   -51427.547   0.15061159 
  114600    291.18201   -499.38898    149272.35   -47391.679    3998.6837   -51390.363   0.15642895 
  114800    294.29363    -602.9063    149409.79    -47376.21    4041.4143   -51417.625   0.15570351 
  115000     294.7031   -496.45325     149231.9   -47407.808    4047.0375   -51454.845   0.15715839 
  115200    298.67132   -403.23801    149098.24   -47424.073    4101.5314   -51525.604   0.15458324 
  115400    296.43811   -523.28588    149303.85   -47434.408    4070.8636   -51505.272   0.14958531 
  115600    293.16083   -602.99743    149429.89   -47415.271     4025.858   -51441.129   0.15643481 
  115800    295.71756   -492.24773    149224.66   -47432.926    4060.9686   -51493.895    0.1562109 
  116000    291.39297   -390.33137    149124.45   -47417.769    4001.5807    -51419.35   0.15963331 
  116200    295.61174    -517.3475    149309.73     -47434.9    4059.5154   -51494.416   0.15034722 
  116400    287.82808   -604.69476    149384.64   -47475.231    3952.6255   -51427.857   0.14929504 
  116600    288.20482   -449.31316    149164.83   -47488.915    3957.7992   -51446.715   0.15038151 
  116800    293.54766   -400.94108    149116.25   -47445.744    4031.1702   -51476.915   0.15101383 
  117000    292.99949    -579.5431    149370.51   -47450.901    4023.6425   -51474.544   0.15714124 
  117200    294.20049   -632.52162    149390.03   -47439.938    4040.1353   -51480.073   0.15802155 
  117400    297.04747   -404.02749    149118.43   -47468.116    4079.2317   -51547.348   0.15210964 
  117600    293.59648   -414.33047    149134.61   -47447.788    4031.8406   -51479.628   0.15040379 
  117800    294.25469   -599.89103     149420.1    -47405.33    4040.8796    -51446.21   0.15344045 
  118000     296.5292   -556.98335    149390.36   -47396.618    4072.1145   -51468.732   0.15852421 
  118200     291.8973   -429.71944    149122.23   -47432.328    4008.5065   -51440.834   0.16390596 
  118400    296.74974   -419.65757    149157.61   -47484.845    4075.1431   -51559.988   0.15150178 
  118600    295.17617   -611.40554    149417.42   -47510.792    4053.5339   -51564.326   0.14742647 
  118800    291.93148    -541.5542     149325.3   -47560.488    4008.9759   -51569.464   0.14945203 
  119000    294.53801   -327.99652    149052.25   -47561.541    4044.7703   -51606.312   0.14697409 
  119200    291.39937   -427.06891     149177.2   -47562.387    4001.6686   -51564.055   0.15420183 
  119400    289.47894    -674.0582    149453.94   -47586.714    3975.2961    -51562.01   0.15586977 
  119600    291.31833   -508.14663    149293.01   -47527.094    4000.5558    -51527.65   0.15301693 
  119800    292.23285   -349.79017    149055.61   -47525.165    4013.1145   -51538.279   0.14762406 
  120000    291.83157   -486.73649    149273.92   -47543.251    4007.6039   -51550.855   0.15041293 
  120200    291.44316   -703.70059     149528.2   -47513.949      4002.27   -51516.219   0.15954649 
  120400    292.22892   -488.31018    149238.09    -47563.31    4013.0604    -51576.37   0.15355911 
  120600    291.17698   -294.92542    148939.05   -47558.206    3998.6147   -51556.821    0.1504481 
  120800    289.13243   -530.70629    149283.36   -47547.291    3970.5377   -51517.829   0.15131834 
  121000     289.6055   -745.93715    149577.19   -47528.334    3977.0342   -51505.368   0.15070547 
  121200    293.17127   -390.49628    149148.27   -47530.007    4026.0014   -51556.009   0.14416093 
  121400    292.21685    -232.6687    148877.46   -47531.059    4012.8948   -51543.954   0.15204545 
  121600    289.38484   -658.56916    149397.11   -47518.651    3974.0039   -51492.655   0.16351761 
  121800    293.62706     -796.914    149641.12   -47514.041    4032.2606   -51546.301   0.15835053 
  122000    293.58808   -323.42809     149048.3   -47496.233    4031.7253   -51527.959   0.14899768 
  122200     296.9858   -224.22034     148929.6   -47466.246    4078.3847   -51544.631   0.15034257 
  122400    292.80653   -757.12995    149645.08   -47414.122    4020.9925   -51435.114   0.16103229 
  122600    295.11086    -769.2847    149693.09   -47333.207     4052.637   -51385.844   0.16496087 
  122800    301.88008   -226.02383     148954.5   -47339.945    4145.5959   -51485.541    0.1553421 
  123000    294.37421   -279.79344     148987.7   -47388.332     4042.521   -51430.852   0.15603064 
  123200    294.74266   -804.04054    149704.14   -47406.465    4047.5807   -51454.045   0.15657175 
  123400    294.17997   -671.45749    149522.25   -47490.704    4039.8535   -51530.558   0.15201159 
  123600    295.22435   -125.46451    148778.78   -47442.612    4054.1955   -51496.807   0.15948052 
  123800    295.69524   -343.62643    149061.28   -47465.255    4060.6621   -51525.917   0.16149974 
  124000    293.61838   -883.16536    149755.67   -47441.561    4032.1414   -51473.703   0.16202919 
  124200    294.90841   -577.61649    149394.98   -47427.804    4049.8568   -51477.661   0.15708098 
  124400    296.81024    -139.1585    148819.64    -47445.35    4075.9738   -51521.324   0.14922079 
  124600    291.39888   -495.36902    149238.94   -47463.189    4001.6619   -51464.851   0.16234867 
  124800     295.0579   -802.08206    149699.01   -47462.409    4051.9097   -51514.318   0.16004773 
  125000    289.86066   -474.99087    149201.55   -47473.974    3980.5382   -51454.513   0.15283111 
  125200    293.86232    -198.9379    148822.09   -47467.819    4035.4913    -51503.31   0.15231896 
  125400    291.96116   -546.89455    149330.76   -47533.326    4009.3834    -51542.71   0.14982203 
  125600    291.34326   -750.74725    149590.48   -47524.185    4000.8981   -51525.083   0.15818061 
  125800    294.06733   -411.90471    149118.03   -47519.355    4038.3066   -51557.662   0.15631096 
  126000    293.29371   -273.81217    148954.83   -47487.327    4027.6828    -51515.01   0.15501095 
  126200     290.6623   -616.66912    149407.16   -47464.271    3991.5468   -51455.818   0.15900475 
  126400    291.57746   -677.09209    149512.25    -47491.95    4004.1143   -51496.064   0.15753679 
  126600     292.5647   -384.08642    149095.68   -47520.901    4017.6716   -51538.573   0.15584468 
  126800    290.02259    -318.0398    149069.47   -47492.699    3982.7619   -51475.461   0.15220715 
  127000    294.18362   -643.59085    149463.23   -47507.079    4039.9036   -51546.983   0.15323754 
  127200    291.17948   -609.16817    149404.65   -47542.237     3998.649   -51540.886   0.15228653 
  127400     293.3227   -335.18994    149049.37   -47545.137     4028.081   -51573.218   0.14995584 
  127600    289.15553    -473.9007    149176.03    -47538.05    3970.8549   -51508.905   0.15413316 
  127800     291.2693   -649.74041    149485.59   -47524.005    3999.8824   -51523.888   0.15814667 
  128000    292.36199   -545.42642     149319.2    -47522.78    4014.8879   -51537.668   0.15869013 
  128200    291.64879   -312.55546    149015.83    -47489.74    4005.0939   -51494.834   0.16074477 
  128400    287.86479   -462.86019     149237.5   -47515.064    3953.1297   -51468.193    0.1590887 
  128600    288.05597    -684.0806    149521.56   -47544.213     3955.755   -51499.968   0.15547957 
  128800    297.15163   -466.63258    149239.52   -47584.236    4080.6621   -51664.898   0.14984338 
  129000    287.57331   -315.18132    148978.22   -47618.918    3949.1269   -51568.045    0.1472417 
  129200     289.9227     -497.193       149264   -47574.698    3981.3902   -51556.088   0.14926388 
  129400    286.02388   -699.68775    149502.19   -47571.525    3927.8492   -51499.374   0.15593288 
  129600    287.58829   -476.44433    149174.89   -47574.314    3949.3327   -51523.646   0.15663595 
  129800    290.21195   -290.13968    148931.88   -47587.574    3985.3622   -51572.936    0.1544171 
  130000    293.14393   -533.27773    149296.19   -47595.534    4025.6259    -51621.16   0.14961769 
  130200    283.80248   -737.86592    149497.33   -47610.323    3897.3437   -51507.667   0.15849732 
  130400    287.84524   -395.39912    149091.11   -47597.618    3952.8612   -51550.479    0.1576069 
  130600    289.52091   -327.42359     148990.6   -47555.035    3975.8726   -51530.907   0.15414894 
  130800    292.31704   -610.75724    149434.38   -47574.141    4014.2706   -51588.411   0.15005678 
  131000    290.45721   -660.83274    149448.13   -47592.618    3988.7303   -51581.349   0.15179054 
  131200    285.82026   -309.90686    148987.88   -47566.919     3925.053   -51491.972   0.15146839 
  131400    291.74854    -355.4296    149035.77    -47569.88    4006.4636   -51576.344   0.15310872 
  131600    290.61879   -690.16159    149498.43   -47558.582    3990.9492   -51549.532   0.15623682 
  131800    291.00337    -615.2154    149387.83   -47530.634    3996.2305   -51526.865   0.15574966 
  132000    296.57726   -277.14363    148944.33    -47478.14    4072.7745   -51550.914    0.1548482 
  132200    294.15935   -408.10424    149152.35   -47484.855    4039.5703   -51524.425   0.15502358 
  132400    291.66111   -798.04194    149593.16     -47483.8     4005.263   -51489.063   0.16576561 
  132600    291.74859   -564.92831    149269.84   -47461.797    4006.4643   -51468.261   0.15748067 
  132800    295.84289   -198.45838    148866.14   -47434.824    4062.6897   -51497.514   0.15667885 
  133000    296.01832    -520.0307    149273.75   -47427.811    4065.0988    -51492.91   0.15777887 
  133200    299.05668   -815.70868    149673.97   -47369.863    4106.8233   -51476.686   0.15899032 
  133400    301.72244   -425.80374    149199.65   -47360.179    4143.4311    -51503.61   0.15329521 
  133600    301.31611   -182.23892     148866.7   -47376.101    4137.8512   -51513.952   0.15142359 
  133800    298.07784   -585.20073    149401.16   -47393.457    4093.3813   -51486.839   0.15809405 
  134000    294.33649   -775.82092    149659.31    -47339.26    4042.0029   -51381.263   0.16006845 
  134200    293.77089   -373.39689    149143.12   -47357.094    4034.2357   -51391.329   0.16109541 
  134400    297.20746   -221.78401    148975.65    -47357.99    4081.4288   -51439.419   0.15832914 
  134600    294.75432   -661.40241    149485.84   -47371.323    4047.7408   -51419.064   0.15670825 
  134800    295.52106   -708.61069    149558.06   -47413.206    4058.2701   -51471.476   0.15955776 
  135000    295.97298   -326.71511    149024.46   -47473.608    4064.4761   -51538.084   0.15555277 
  135200     296.6909   -306.99409    148999.41   -47485.021     4074.335   -51559.356   0.15545764 
  135400    288.26899   -647.31487    149491.52   -47500.486    3958.6804   -51459.167   0.15770734 
  135600    290.52106    -647.0458    149390.29   -47464.043    3989.6072    -51453.65   0.16140934 
  135800    283.94011   -295.34169    148910.02   -47539.206    3899.2336   -51438.439   0.15890441 
  136000    292.63732    -371.3478     149069.2    -47572.04    4018.6689   -51590.709   0.15131997 
  136200    288.02163   -736.94504    149511.83   -47579.374    3955.2835   -51534.657   0.16262695 
  136400    287.26682   -575.67322    149301.82    -47533.02     3944.918   -51477.938     0.161974 
  136600    294.32134   -306.50724    148953.95   -47478.116    4041.7948   -51519.911    0.1559669 
  136800    293.57616   -492.54134    149225.73   -47487.264    4031.5617   -51518.825   0.15926358 
  137000    292.77163   -755.37964    149524.34   -47489.223    4020.5133   -51509.736   0.16539986 
  137200     290.7809   -509.53267    149169.06   -47523.844    3993.1755    -51517.02   0.15509101 
  137400    291.76567   -274.42524    148896.39    -47481.64    4006.6989   -51488.338   0.15429005 
  137600    293.93255   -544.22843    149325.59   -47471.114    4036.4558    -51507.57   0.15558288 
  137800    294.29322   -744.99437    149574.19   -47441.842    4041.4087    -51483.25    0.1583906 
  138000    295.64831   -397.31563    149126.26   -47443.136    4060.0176   -51503.154   0.15518221 
  138200     296.9313   -213.08077     148941.7   -47495.406    4077.6364   -51573.043   0.15152057 
  138400     291.9354   -668.63179    149412.63   -47478.521    4009.0297   -51487.551   0.16462301 
  138600    291.73309   -709.23474    149528.51   -47489.729    4006.2515    -51495.98   0.15896787 
  138800    295.11789   -322.73264    149041.83   -47441.714    4052.7336   -51494.448   0.15964372 
  139000    292.89082   -330.12337    149017.72   -47429.906      4022.15   -51452.056   0.16044231 
  139200    293.87851   -678.41783    149465.97   -47428.112    4035.7136   -51463.826   0.15855239 
  139400    290.34626   -648.14287    149426.64   -47454.161    3987.2068   -51441.367   0.15916482 
  139600    294.50829   -276.60153    149017.29   -47438.388    4044.3622   -51482.751   0.15596718 
  139800    296.65638   -406.85375    149134.38   -47398.306     4073.861   -51472.167   0.15641873 
  140000    295.80109   -700.12964    149520.72   -47361.273    4062.1156   -51423.389   0.16051717 
  140200    295.84201   -574.40921    149358.32    -47403.17    4062.6776   -51465.848   0.16046711 
  140400    297.31182   -310.49736    148972.93   -47431.402    4082.8619   -51514.264    0.1583267 
  140600    292.21046   -419.59304    149145.47   -47428.429     4012.807   -51441.236   0.15775478 
  140800     288.8988   -616.13403    149461.98   -47418.159    3967.3293   -51385.489    0.1626573 
  141000    295.97442   -513.29368    149254.11   -47458.592    4064.4959   -51523.088   0.15775155 
  141200     295.2929   -324.00668    149001.75   -47411.668    4055.1369   -51466.805   0.15313204 
  141400    295.47283   -492.94339    149261.61   -47417.067    4057.6077   -51474.675    0.1521156 
  141600      293.254   -701.86959    149474.68    -47397.81    4027.1374   -51424.948   0.15788156 
  141800    297.58485   -436.88973    149196.74   -47454.841    4086.6113   -51541.452   0.15124519 
  142000    292.55436   -372.16872    149043.63   -47472.359    4017.5296   -51489.889   0.15398294 
  142200    295.20745   -570.48264    149333.56     -47467.6    4053.9635   -51521.564   0.15328041 
  142400    291.16159   -607.95435    149440.71    -47469.15    3998.4033   -51467.553   0.15723878 
  142600    291.55979   -385.60109    149117.33   -47462.614    4003.8715   -51466.486   0.15608811 
  142800    294.05142   -346.48343    149058.57   -47468.297    4038.0882   -51506.385   0.15478615 
  143000    287.64461   -602.38266     149373.5   -47528.188    3950.1061   -51478.294   0.15794241 
  143200    290.63484   -620.93715    149369.96   -47495.722    3991.1696   -51486.891   0.15963972 
  143400    297.97724   -384.80055    149079.46    -47462.34    4091.9998   -51554.339    0.1516466 
  143600    295.33777   -414.52449    149143.74    -47451.58    4055.7531   -51507.333   0.15033486 
  143800    290.64992   -649.32565    149447.36   -47462.037    3991.3768   -51453.414   0.15501398 
  144000    292.48391   -515.71443    149329.68   -47450.786    4016.5621   -51467.348   0.15338357 
  144200     290.3564   -333.70195    149060.24   -47426.013    3987.3459   -51413.359   0.15521785 
  144400    293.57216   -458.30062    149228.64   -47427.819    4031.5067   -51459.325   0.15390012 
  144600    297.77903   -693.00081     149489.2   -47400.399    4089.2779   -51489.677   0.15552581 
  144800    297.36786    -557.2885    149273.33    -47371.05    4083.6314   -51454.681   0.16128756 
  145000    297.33555   -370.57666    149012.83   -47417.949    4083.1877   -51501.136   0.15783674 
  145200    295.75557   -515.98393    149264.17   -47447.314    4061.4905   -51508.805   0.15349717 
  145400     297.6658   -686.81832    149508.23   -47449.396    4087.7229   -51537.119   0.15167285 
  145600    291.84599   -467.83228    149224.11   -47469.622    4007.8018   -51477.424   0.15102521 
  145800    292.17128   -311.15585    149008.18   -47486.805    4012.2689   -51499.074   0.15073494 
  146000    293.87202   -563.85084    149353.34   -47473.072    4035.6246   -51508.696   0.15141076 
  146200    291.14869   -720.85925    149562.22   -47501.909    3998.2262   -51500.135   0.15157459 
  146400    290.08727   -412.33346    149126.05   -47456.264    3983.6501   -51439.914   0.15754775 
  146600     289.4518   -295.17875    148955.36   -47421.606    3974.9234   -51396.529   0.15905273 
  146800    297.03193   -642.79498    149476.63   -47374.365    4079.0183   -51453.384   0.15824289 
  147000    294.62804   -737.96843    149613.11   -47386.677    4046.0066   -51432.683   0.16136234 
  147200    294.82246   -291.29976    148991.14   -47358.439    4048.6765   -51407.115   0.15613096 
  147400    300.02614   -213.46314    148907.44   -47427.407    4120.1365   -51547.544   0.15106581 
  147600    291.18757   -786.81851     149593.5   -47433.747      3998.76   -51432.507   0.15625804 
  147800    289.14748   -753.59628    149570.67    -47474.87    3970.7444   -51445.614   0.15885906 
  148000     297.3414   -132.62404    148817.44   -47445.134    4083.2682   -51528.402    0.1506163 
  148200    291.53925   -284.29589    148975.58   -47488.248    4003.5896   -51491.837    0.1525957 
  148400    288.59886   -915.22892     149738.2   -47531.476    3963.2103   -51494.686    0.1589981 
  148600     291.7361   -644.63106    149391.01   -47502.255    4006.2928   -51508.547   0.15515318 
  148800    292.85938   -79.726727     148650.4   -47509.108    4021.7183   -51530.826   0.15488883 
  149000    290.27511   -416.86303    149087.19   -47514.616    3986.2297   -51500.846   0.15684798 
  149200    292.53171   -882.91523    149740.81   -47514.214    4017.2186   -51531.433   0.15509664 
  149400    288.84628   -528.75604    149231.81   -47540.538    3966.6081   -51507.146   0.15043828 
  149600     289.2376   -120.64617    148702.01    -47542.35    3971.9819   -51514.332   0.15202648 
  149800    292.51742   -543.31622    149271.99   -47525.624    4017.0223   -51542.647   0.15268829 
  150000    289.68214   -833.76094    149676.25   -47478.356    3978.0866   -51456.443   0.16170574 
  150200    294.45327   -428.68589    149135.49    -47427.04    4043.6066   -51470.646   0.15597352 
  150400     297.8742   -231.29168    148876.71    -47399.34    4090.5848   -51489.925   0.15657664 
  150600    295.96054   -599.34728    149382.67   -47448.179    4064.3053   -51512.485   0.15567178 
  150800    292.58969   -726.81908    149542.44   -47407.499    4018.0148   -51425.514   0.16043715 
  151000    296.66119   -383.10711    149107.75   -47451.353     4073.927    -51525.28   0.15504107 
  151200     295.6481   -340.72863       149041   -47439.073    4060.0148   -51499.088   0.15327494 
  151400     297.3983   -598.66189    149403.19   -47348.852    4084.0495   -51432.901   0.15586847 
  151600    294.57281   -642.54768    149433.28   -47335.096    4045.2482   -51380.344   0.15775598 
  151800    297.49098   -402.43802    149145.76   -47350.178    4085.3222     -51435.5   0.15734092 
  152000     297.6841   -426.77272    149163.98   -47352.253    4087.9743   -51440.228   0.15366188 
  152200    298.33715    -577.3914     149403.9   -47371.788    4096.9424   -51468.731   0.15611396 
  152400    293.77263   -548.81333    149381.12   -47420.587    4034.2596   -51454.846     0.153725 
  152600    298.83253   -380.74101    149153.11   -47392.144    4103.7452   -51495.889   0.15104945 
  152800    298.86625   -429.59366    149229.12   -47323.375    4104.2083   -51427.584   0.15406317 
  153000    295.86017   -604.09014    149436.01    -47392.25     4062.927   -51455.177   0.15718876 
  153200    291.73143   -534.91766    149329.63   -47332.104    4006.2287   -51338.332   0.15891282 
  153400    298.93118   -407.44273    149153.22   -47389.929    4105.0999   -51495.029   0.14922765 
  153600    292.01687   -516.87782    149237.99   -47416.657    4010.1485   -51426.805   0.15712301 
  153800    299.01325   -597.32261    149344.57    -47445.71    4106.2269   -51551.937   0.15562575 
  154000    292.81446   -489.60804     149230.1   -47460.352    4021.1014   -51481.454   0.15245192 
  154200    296.77031   -400.45509    149125.44   -47406.594    4075.4255    -51482.02   0.15479889 
  154400    296.30197    -480.4555    149284.33   -47400.628     4068.994   -51469.622   0.15487294 
  154600    301.36319   -612.68412     149406.4   -47421.926    4138.4977   -51560.423   0.15315352 
  154800    295.00344    -460.2863    149171.75   -47438.773    4051.1619   -51489.934   0.15532251 
  155000    293.18752   -379.45791    149044.35   -47427.384    4026.2245   -51453.609   0.15777567 
[...]
  163200    284.61669   -564.31383     149258.6    -47497.17    3908.5249   -51405.695   0.15841304 
  163400    293.86451   -77.766765    148696.91   -47536.057    4035.5214   -51571.579   0.14730218 
  163600    292.67388   -499.43371    149281.02   -47481.995    4019.1709   -51501.165   0.15226353 
  163800    296.31878   -814.52241    149634.84   -47539.484    4069.2248   -51608.709   0.15319027 
  164000    292.61741   -454.61023    149143.72   -47558.844    4018.3954   -51577.239   0.15229461 
  164200    290.62685   -286.15684    148946.17   -47556.189    3991.0599   -51547.249   0.14649754 
  164400    293.67834   -565.07483    149325.05   -47495.251    4032.9649   -51528.216   0.15231297 
  164600    293.90499     -618.518    149452.01   -47472.828    4036.0773   -51508.905   0.15173629 
  164800     290.6677    -480.9977    149163.41     -47513.9    3991.6208   -51505.521   0.15496867 
  165000    294.34574   -355.37765    149062.95   -47489.438    4042.1299   -51531.568   0.15299464 
  165200     291.4652   -579.40439    149345.71   -47484.266    4002.5727   -51486.839   0.15134191 
  165400    289.02937   -653.09149    149400.35   -47512.346    3969.1224   -51481.468   0.15850345 
  165600    290.88113   -394.63413    149117.74   -47452.294    3994.5518   -51446.846   0.15253722 
  165800    295.47484   -378.55157    149131.64   -47478.287    4057.6354   -51535.923   0.15135248 
  166000    297.20002   -604.49978    149400.95   -47435.391    4081.3266   -51516.717   0.15498217 
  166200    291.58287   -606.32834    149355.99    -47466.41    4004.1886   -51470.599   0.15954864 
  166400    292.72627   -372.96885    149104.09   -47463.463    4019.8904   -51483.354   0.15196165 
  166600    291.43756   -417.71547    149171.13   -47458.895    4002.1931   -51461.088   0.14813372 
  166800    293.79617   -626.39814    149404.47   -47518.245    4034.5829   -51552.828   0.15171537 
  167000    296.80127   -458.72527    149277.18   -47520.269    4075.8507    -51596.12   0.14742468 
  167200    293.99973    -401.4269    149106.71   -47469.583    4037.3784   -51506.962   0.15669983 
  167400      289.528   -540.63735    149265.83   -47515.362    3975.9699   -51491.332   0.15328709 
  167600     289.4135   -639.25007     149403.6   -47495.834    3974.3974   -51470.231   0.15070429 
  167800    290.63076    -476.6762    149195.07    -47566.56    3991.1136   -51557.674   0.14643837 
  168000    292.20579   -367.18386     149037.8   -47556.346    4012.7429   -51569.089   0.15043263 
  168200    293.88882   -568.93733    149294.74   -47551.991    4035.8553   -51587.846   0.15491795 
  168400     293.2426   -639.79556     149429.3    -47505.93    4026.9809   -51532.911   0.15210439 
  168600    296.38027   -450.13416    149165.14   -47520.082    4070.0692   -51590.151   0.14814867 
  168800    290.02615   -388.92194    149063.95   -47560.959    3982.8108    -51543.77    0.1461191 
  169000    291.63739   -566.69534    149353.65   -47544.597    4004.9372   -51549.534   0.15194879 
  169200    289.42256   -654.76235    149432.92   -47512.417    3974.5219   -51486.939    0.1564413 
  169400    291.94807   -417.02316       149116   -47540.723    4009.2037   -51549.926   0.14987989 
  169600    286.60494   -377.77907    149050.44   -47552.625    3935.8287   -51488.454   0.14973515 
  169800    290.57772     -624.288    149392.35   -47555.235    3990.3852    -51545.62   0.15182985 
  170000    290.95181   -614.58525    149384.12   -47594.316    3995.5225   -51589.839   0.14891965 
  170200    287.36206    -338.3679    148973.48   -47606.623    3946.2259   -51552.849    0.1472159 
  170400    287.19283   -356.49723    149028.45   -47575.535     3943.902   -51519.437   0.14910703 
  170600    284.53526    -760.8171    149499.35   -47552.696    3907.4066   -51460.103   0.15695274 
  170800    290.12189   -599.30527    149357.95   -47577.768    3984.1255   -51561.893    0.1462567 
  171000    285.94867   -215.80986    148842.91   -47579.638    3926.8164   -51506.454   0.14243029 
  171200     285.5132   -412.61044     149094.6   -47606.842    3920.8363   -51527.678   0.14984335 
  171400     284.6816   -832.04593    149621.02   -47596.413    3909.4162    -51505.83   0.15341109 
  171600    290.16115   -518.88476    149262.89   -47562.918    3984.6647   -51547.583   0.14938134 
  171800    290.80592   -193.80798    148765.68   -47544.375     3993.519   -51537.894   0.14991838 
  172000    294.52342   -489.11339    149212.43   -47548.255    4044.5699   -51592.825   0.14133602 
  172200    291.16352    -799.7708    149658.87   -47549.113    3998.4299   -51547.543   0.14514127 
  172400    293.72942   -407.80732    149139.65   -47521.308    4033.6662   -51554.974    0.1424706 
  172600    292.96656   -174.24776    148768.73   -47507.962    4023.1902   -51531.152   0.14759208 
  172800    301.29194   -564.80217    149366.21   -47513.868    4137.5192   -51651.388   0.14391052 
  173000    293.48591   -827.10627    149701.58   -47528.038    4030.3223    -51558.36   0.14799922 
  173200    288.53974   -382.26141    149079.24   -47570.734    3962.3984   -51533.132   0.14563934 
  173400    293.01724   -196.13757     148800.5   -47560.124    4023.8861   -51584.011   0.14858021 
  173600    294.87706    -651.7056    149443.88   -47506.317    4049.4263   -51555.743   0.15044133 
  173800    291.53989   -829.97515    149675.37   -47504.108    4003.5984   -51507.707   0.15685921 
  174000    294.13288   -319.51449    149030.71   -47472.833    4039.2068    -51512.04   0.14941217 
  174200    296.62127   -221.76013    148899.05   -47468.467    4073.3788   -51541.846   0.14414639 
  174400    293.00002   -713.01298    149538.46   -47447.146    4023.6497   -51470.796   0.15003976 
  174600    293.81337   -748.34027    149588.53   -47457.974    4034.8192   -51492.793   0.15021367 
  174800    297.36707   -284.80925    148977.03   -47426.968    4083.6206   -51510.588   0.15492953 
  175000     291.8276   -310.74744    149018.86   -47475.055    4007.5494   -51482.604   0.15192298 
  175200    294.84648   -702.25534    149561.88   -47468.466    4049.0064   -51517.473   0.14598562 
  175400    292.82452   -625.09537    149448.27    -47477.92    4021.2397    -51499.16   0.14631269 
  175600    291.98989   -305.42997    148997.51   -47493.226     4009.778   -51503.004   0.14977944 
  175800    291.85013   -455.22807    149174.86   -47476.059    4007.8587   -51483.918   0.15236662 
  176000    291.00147   -673.59478    149548.39   -47460.428    3996.2044   -51456.633   0.15052506 
  176200    300.30711   -517.31835    149377.21   -47410.737     4123.995   -51534.732   0.14333409 
  176400    297.88799   -355.11693    149108.66    -47452.82    4090.7742   -51543.594   0.14171236 
  176600    296.71564   -492.36193    149266.63    -47431.58    4074.6748   -51506.255   0.14608879 
  176800    292.88511   -591.98129    149449.07   -47436.019    4022.0717   -51458.091   0.14965011 
  177000    292.48537   -539.61831    149293.69   -47454.217    4016.5822     -51470.8   0.15332053 
  177200    296.05688    -422.3221    149143.88   -47470.712    4065.6283   -51536.341   0.14901706 
  177400    293.45419   -496.46492    149244.55   -47559.459    4029.8866   -51589.346   0.14100665 
  177600    293.02303   -570.83032    149329.61   -47523.155    4023.9657   -51547.121   0.15061228 
  177800    292.04857   -432.74535     149244.3   -47501.367    4010.5838   -51511.951     0.145843 
  178000    291.59693   -419.36416    149206.13   -47458.973    4004.3817   -51463.355   0.14853384 
  178200    284.93751   -561.77392     149290.6    -47494.75    3912.9306    -51407.68   0.15167607 
  178400    291.34216   -545.37207    149297.34   -47469.876    4000.8829   -51470.759    0.1509615 
  178600    289.37174   -487.98884    149217.75   -47485.694    3973.8239   -51459.518   0.15085162 
  178800    296.65651   -423.50668    149210.89   -47455.317    4073.8628    -51529.18   0.14458137 
  179000    294.20171    -548.7647    149316.82   -47428.567    4040.1521   -51468.719   0.15120776 
  179200    294.78591   -563.93414    149313.52   -47453.106    4048.1747   -51501.281   0.15251893 
  179400    296.59373   -449.35928    149185.67   -47426.471    4073.0006   -51499.471   0.15193344 
  179600    296.10975   -475.44291    149210.77   -47433.789    4066.3543   -51500.143   0.14794402 
  179800    292.51554    -565.0449     149357.4   -47460.629    4016.9965   -51477.625   0.14595089 
  180000    299.08769   -520.44804    149285.16   -47427.595    4107.2492   -51534.844   0.14516372 
  180200    301.10004   -418.19651    149141.51   -47390.466     4134.884    -51525.35   0.15088678 
  180400    296.09642   -481.91605    149240.67   -47343.832    4066.1714   -51410.003   0.15287168 
  180600    292.50137   -590.54389    149361.33   -47431.966     4016.802   -51448.768   0.15217558 
  180800    296.32295   -500.21913    149243.26   -47396.335    4069.2821   -51465.618   0.15045776 
  181000    292.02111   -387.62309    149136.76   -47438.661    4010.2068   -51448.868   0.14640221 
  181200    295.80125   -459.31015    149310.07   -47420.713    4062.1178   -51482.831   0.14880972 
  181400    297.24375   -608.16381    149424.66   -47459.951    4081.9271   -51541.879   0.15162233 
  181600    291.78807   -445.23025     149173.2   -47482.836    4007.0065   -51489.842   0.15008838 
  181800    296.08793   -359.28104    149062.34   -47454.114    4066.0547   -51520.168   0.14412016 
  182000    298.94726   -555.63288    149348.61   -47460.976    4105.3207   -51566.297   0.14160768 
  182200    288.95806   -657.60949    149447.31   -47475.006     3968.143   -51443.149    0.1525004 
  182400    292.73726   -418.06863    149128.81   -47478.575    4020.0413   -51498.616   0.15116115 
  182600    294.29124   -359.40533    149067.55   -47442.419    4041.3815     -51483.8   0.14831566 
  182800     293.8836   -658.86963     149465.1   -47404.206    4035.7835    -51439.99   0.15129467 
  183000    298.87672   -663.00065    149527.31    -47405.57    4104.3521   -51509.922   0.14642234 
  183200     296.7459   -360.28489    149067.46    -47390.88    4075.0904   -51465.971   0.15017915 
  183400    296.22601   -290.18859    149050.32   -47398.746    4067.9509   -51466.696   0.14802358 
  183600    290.25024   -752.32854    149566.58   -47424.564    3985.8881   -51410.452   0.15498528 
  183800    292.53499   -669.24671    149486.32   -47458.127    4017.2636    -51475.39   0.14664995 
  184000    290.56405   -235.78717    148912.19   -47474.391    3990.1975   -51464.588   0.14447616 
  184200    293.61988   -335.15873    149064.93   -47517.713     4032.162   -51549.875   0.14025097 
  184400    294.01035   -816.52722    149607.95    -47522.18    4037.5242   -51559.704   0.15060375 
  184600    286.81897   -618.44283    149331.36   -47532.228    3938.7678   -51470.996   0.15089012 
  184800    289.10398   -206.10668    148812.48   -47523.398    3970.1469   -51493.545   0.14986756 
  185000    292.42207   -468.25775    149201.26   -47513.954    4015.7129   -51529.667   0.14726838 
  185200    287.48076   -830.52533    149726.54   -47565.969    3947.8559   -51513.825   0.14889797 
  185400    292.86979   -474.75976    149277.26   -47548.069    4021.8613    -51569.93   0.14553649 
  185600    291.82519   -165.31203    148798.56   -47554.226    4007.5163   -51561.742   0.14557923 
  185800    291.79467   -532.80023    149294.01   -47497.977    4007.0971   -51505.074   0.14585796 
  186000    295.00656   -839.76147     149711.4   -47479.899    4051.2048   -51531.104   0.15080915 
  186200    295.54592   -450.87797    149176.79   -47474.931    4058.6115   -51533.543   0.14661502 
  186400     295.0328   -211.54484    148843.99   -47425.835    4051.5651     -51477.4   0.14749758 
  186600     289.4603   -648.57408    149446.33   -47457.458    3975.0402   -51432.499   0.14785853 
  186800    288.49574   -806.10888    149680.15    -47480.33    3961.7943   -51442.124   0.15183812 
  187000      294.728    -346.1779    149035.73    -47456.51    4047.3794   -51503.889   0.14963441 
  187200    295.38232   -233.20879    148907.07   -47477.745    4056.3648    -51534.11   0.14858633 
  187400    290.25356   -711.58833    149545.99   -47459.261    3985.9336   -51445.195   0.15000999 
  187600     293.2321   -727.36583     149599.1    -47498.69    4026.8368   -51525.526   0.14648168 
  187800    297.34197   -266.56605    148990.46    -47492.69     4083.276   -51575.966    0.1434033 
  188000    294.37301   -340.89163    149034.32   -47465.943    4042.5044   -51508.448   0.14883912 
  188200    291.41038     -729.254    149597.29    -47451.74    4001.8199    -51453.56   0.15274936 
  188400    299.25897   -582.77696    149466.59   -47440.914    4109.6013   -51550.516     0.144031 
  188600    295.90575   -261.52623    148974.96   -47449.418    4063.5529    -51512.97   0.14269842 
  188800    294.25316   -402.09658    149165.81   -47462.903    4040.8586   -51503.761   0.14654177 
  189000    297.40892   -718.24169     149568.8   -47451.661    4084.1953   -51535.856   0.14900483 
  189200    291.79705   -581.34913    149299.64   -47456.735    4007.1298   -51463.864   0.15448148 
  189400    293.01752   -234.54398    148945.13   -47419.907      4023.89   -51443.797   0.14464316 
  189600    296.30769   -468.63134    149253.58   -47433.225    4069.0726   -51502.298   0.14536451 
  189800    289.86338   -725.31189    149532.62   -47468.724    3980.5755   -51449.299   0.15070287 
  190000    294.60282   -434.27475    149148.23   -47504.072    4045.6603   -51549.733   0.14500042 
  190200    294.70168   -277.88442     148928.9   -47479.055    4047.0178   -51526.073   0.15008629 
  190400    296.56906    -574.3472    149355.78   -47475.071    4072.6619   -51547.733   0.14530502 
  190600    290.98656   -728.69476    149527.41   -47415.089    3995.9997   -51411.089   0.15097685 
  190800    294.43589   -363.36292    149111.12   -47452.296    4043.3679   -51495.664   0.14616856 
  191000    296.64866    -297.8861    148989.99   -47466.574    4073.7549   -51540.329   0.14486124 
  191200    298.64385   -634.67027    149437.56   -47458.065    4101.1541   -51559.219   0.15088539 
  191400    293.83878   -726.85201    149497.06   -47481.441     4035.168   -51516.609   0.14875869 
  191600     295.5257   -322.58288    148992.79   -47439.302    4058.3339   -51497.636   0.15069859 
  191800     292.0805   -370.70917    149009.25   -47474.211    4011.0223   -51485.233   0.15030799 
  192000    294.83592   -685.92926    149472.68   -47470.499    4048.8613   -51519.361   0.14721473 
  192200    291.66185   -656.37014    149399.35   -47439.396    4005.2732   -51444.669   0.15441409 
  192400    296.98652   -245.41516    148973.35   -47449.668    4078.3947   -51528.063   0.14171982 
  192600    294.07316   -416.13559    149142.56   -47480.704    4038.3867   -51519.091   0.14614367 
  192800    296.37886    -675.3346    149513.98   -47452.868    4070.0499   -51522.918   0.14861448 
  193000    300.92996   -548.19243    149314.01   -47444.517    4132.5483   -51577.066   0.14573146 
  193200    294.16298   -258.79444    149010.18   -47398.811    4039.6201   -51438.431   0.14836984 
  193400    288.22479   -517.21957    149292.92   -47400.168    3958.0734   -51358.241   0.14993931 
  193600    298.30412   -743.80322    149595.87    -47410.81    4096.4887   -51507.299   0.15329164 
  193800    297.47624   -445.41438     149260.4    -47462.51    4085.1198   -51547.629   0.14579802 
  194000    292.55846   -274.18405    148973.68   -47490.089    4017.5859   -51507.675   0.14446026 
  194200      290.882   -555.83658    149338.51   -47474.823    3994.5638   -51469.387   0.14678073 
  194400    295.65089   -727.20671     149595.3   -47453.736     4060.053   -51513.789   0.14768296 
  194600     294.3497   -425.70976    149192.13   -47481.456    4042.1843    -51523.64   0.14731869 
  194800     294.8281   -244.90375    148942.65   -47469.472     4048.754   -51518.226   0.14724419 
  195000    289.32509   -637.54917    149386.46   -47449.004    3973.1834   -51422.188   0.15354224 
  195200    294.27793   -731.91428    149568.93   -47431.632    4041.1987   -51472.831   0.15098142 
  195400    292.62969   -363.58429    149086.76   -47437.574    4018.5641   -51456.138   0.14867493 
  195600    292.41315   -299.02009    148965.55   -47443.988    4015.5904   -51459.579   0.15314018 
  195800    286.71515   -704.81101    149483.06   -47485.271    3937.3421   -51422.613   0.15942413 
  196000     291.4596   -695.78959    149502.89   -47454.307    4002.4957   -51456.802   0.15065178 
  196200    295.53158   -322.67069    148968.16   -47446.202    4058.4145   -51504.616   0.14616879 
  196400    295.02097   -343.56486    149041.41    -47446.32    4051.4025   -51497.723   0.14529668 
  196600    291.17387   -765.75908    149603.99   -47507.122    3998.5719   -51505.694   0.15375001 
  196800    295.99001    -616.7194    149411.68    -47499.06      4064.71    -51563.77   0.15217757 
  197000    295.60063   -157.81317    148812.75   -47513.838    4059.3628   -51573.201     0.145928 
  197200    288.80353   -413.20758    149138.68   -47570.546    3966.0211   -51536.567   0.14473887 
  197400    288.68665    -897.2959    149747.93   -47520.805     3964.416   -51485.221   0.14931001 
  197600     291.7646   -510.90758    149293.77   -47437.601    4006.6841   -51444.286   0.15196036 
  197800    289.74126   -109.08331    148743.03   -47426.866    3978.8984   -51405.764   0.15194026 
  198000    292.86254   -554.62915    149345.34    -47455.29    4021.7617   -51477.051   0.15308164 
  198200    293.94624   -911.95018    149831.74    -47475.42    4036.6437   -51512.064   0.15045417 
  198400    292.33705    -397.0351    149139.89   -47407.262    4014.5454   -51421.808   0.14613103 
  198600    295.22815   -106.42899    148743.67   -47399.094    4054.2477   -51453.342   0.14974936 
  198800    296.08685    -660.3582    149466.34   -47428.784    4066.0398   -51494.824   0.15250907 
  199000    292.87723   -831.40752     149721.7   -47431.471    4021.9635   -51453.435   0.15662336 
  199200    293.70867   -280.98998    148986.03   -47431.299    4033.3812    -51464.68    0.1506246 
  199400     296.2749   -205.40927    148857.01   -47444.761    4068.6223   -51513.383   0.14786994 
  199600    292.69311   -743.55011    149566.93   -47462.382    4019.4351   -51481.817   0.15461205 
  199800     292.2537   -763.66998    149558.36   -47439.995    4013.4008   -51453.396   0.15616826 
  200000    297.30445   -179.16349    148902.05   -47463.549    4082.7607    -51546.31   0.14465041 
Loop time of 108.513 on 6 procs for 200000 steps with 4608 atoms

Performance: 796.219 ns/day, 0.030 hours/ns, 1843.099 timesteps/s
98.0% CPU use with 6 MPI tasks x no OpenMP threads

MPI task timing breakdown:
Section |  min time  |  avg time  |  max time  |%varavg| %total
---------------------------------------------------------------
Pair    | 76.541     | 76.933     | 77.308     |   3.2 | 70.90
Neigh   | 12.292     | 12.479     | 12.797     |   6.1 | 11.50
Comm    | 8.3275     | 9.122      | 9.7519     |  14.3 |  8.41
Output  | 3.0268     | 3.0278     | 3.0315     |   0.1 |  2.79
Modify  | 5.6195     | 5.7159     | 5.7776     |   2.6 |  5.27
Other   |            | 1.235      |            |       |  1.14

Nlocal:        768.000 ave         771 max         766 min
Histogram: 2 0 1 0 1 0 0 0 1 1
Nghost:        1393.50 ave        1395 max        1391 min
Histogram: 1 0 0 0 0 2 0 1 0 2
Neighs:        0.00000 ave           0 max           0 min
Histogram: 6 0 0 0 0 0 0 0 0 0
FullNghs:      21886.7 ave       21988 max       21843 min
Histogram: 1 3 0 1 0 0 0 0 0 1

Total # of neighbors = 131320
Ave neighs/atom = 28.498264
Neighbor list builds = 12734
Dangerous builds = 0
write_data		data.${NAME}
write_data		data.ice_294K_-500atm_ML
System init for write_data ...
Total wall time: 0:02:40
