
# Create simulation box of size 50 x 50 x 50 Angstrom
#
lattice	            sc 1
Lattice spacing in x,y,z = 1.0000000 1.0000000 1.0000000
region 	            all block 0 ${X} ${YZ_LO} ${YZ_HI} ${YZ_LO} ${YZ_HI} units box
region 	            all block 0 53.4 ${YZ_LO} ${YZ_HI} ${YZ_LO} ${YZ_HI} units box
region 	            all block 0 53.4 -0.027611615032117953.0 ${YZ_HI} ${YZ_LO} ${YZ_HI} units box
region 	            all block 0 53.4 -0.027611615032117953.0 50.9347316150334.0 ${YZ_LO} ${YZ_HI} units box
region 	            all block 0 53.4 -0.027611615032117953.0 50.9347316150334.0 -0.027611615032117953.0 ${YZ_HI} units box
region 	            all block 0 53.4 -0.027611615032117953.0 50.9347316150334.0 -0.027611615032117953.0 50.9347316150334.0 units box
create_box          1 all
Created orthogonal box = (0.0000000 -0.027611615 -0.027611615) to (53.400000 50.934732 50.934732)
  3 by 1 by 2 MPI processor grid

# fill box with 4175 randomly distributed atoms
#
create_atoms        1 random 4608 63782 all
Created 4608 atoms
  create_atoms CPU = 0.001 seconds
mass                1 18.015

# Define potential
#
pair_style          sw
pair_coeff          * * /data/emrosky-sim/Freezing_Simulations/Melting/MLmW_fancy/ML_mW.sw mW
Reading sw potential file /data/emrosky-sim/Freezing_Simulations/Melting/MLmW_fancy/ML_mW.sw with DATE: 2019-02-27

# Run minimization
#
minimize            1.0e-8 1.0e-8 10000 1000
WARNING: Using 'neigh_modify every 1 delay 0 check yes' setting during minimization (../min.cpp:187)
Neighbor list info ...
  update every 1 steps, delay 0 steps, check yes
  max neighbors/atom: 2000, page size: 100000
  master list distance cutoff = 6.0032907
  ghost atom cutoff = 6.0032907
  binsize = 3.0016454, bins = 18 17 17
  1 neighbor lists, perpetual/occasional/extra = 1 0 0
  (1) pair sw, perpetual
      attributes: full, newton on
      pair build: full/bin/atomonly
      stencil: full/bin/3d
      bin: standard
Per MPI rank memory allocation (min/avg/max) = 4.234 | 4.248 | 4.253 Mbytes
Step Temp E_pair E_mol TotEng Press 
       0            0    7242965.7            0    7242965.7    4963815.2 
     665            0   -49869.494            0   -49869.494   -263.19744 
Loop time of 1.23387 on 6 procs for 665 steps with 4608 atoms

98.0% CPU use with 6 MPI tasks x no OpenMP threads

Minimization stats:
  Stopping criterion = max force evaluations
  Energy initial, next-to-last, final = 
      7242965.72884816  -49869.1273083572  -49869.4941981741
  Force two-norm initial, final = 1.6646563e+08 4.9464241
  Force max component initial, final = 88534711.0 1.3561256
  Final line search alpha, max atom move = 0.035935764 0.048733411
  Iterations, force evaluations = 665 1000

MPI task timing breakdown:
Section |  min time  |  avg time  |  max time  |%varavg| %total
---------------------------------------------------------------
Pair    | 1.0008     | 1.065      | 1.1305     |   5.0 | 86.32
Neigh   | 0.0293     | 0.030186   | 0.030777   |   0.3 |  2.45
Comm    | 0.051534   | 0.11759    | 0.18191    |  15.0 |  9.53
Output  | 0          | 0          | 0          |   0.0 |  0.00
Modify  | 0          | 0          | 0          |   0.0 |  0.00
Other   |            | 0.02106    |            |       |  1.71

Nlocal:        768.000 ave         783 max         754 min
Histogram: 1 1 0 1 0 1 0 0 1 1
Nghost:        1567.83 ave        1585 max        1549 min
Histogram: 1 0 0 1 0 1 2 0 0 1
Neighs:        0.00000 ave           0 max           0 min
Histogram: 6 0 0 0 0 0 0 0 0 0
FullNghs:      21900.3 ave       22619 max       21304 min
Histogram: 2 0 0 0 2 0 0 0 1 1

Total # of neighbors = 131402
Ave neighs/atom = 28.516059
Neighbor list builds = 29
Dangerous builds = 0

# Add velocity/set timestep
#
velocity            all create ${TEMP} 120598 rot yes dist gaussian
velocity            all create 294 120598 rot yes dist gaussian
timestep            5.0

# Define output
#
compute	            1 all msd
thermo	            100
thermo_style        custom step temp press vol etotal ke pe c_1[4] density

# Neighbor lists
#
neigh_modify        delay 0 every 1 check yes

# Set fixes
#
fix                 1 all momentum 10 linear 1 1 1 rescale
fix                 2 all nve
fix                 3 all temp/csvr ${TEMP} ${TEMP} 500.0 928347
fix                 3 all temp/csvr 294 ${TEMP} 500.0 928347
fix                 3 all temp/csvr 294 294 500.0 928347
fix                 4 all press/berendsen iso ${PRES} ${PRES} 1000.0 modulus 20000
fix                 4 all press/berendsen iso -500 ${PRES} 1000.0 modulus 20000
fix                 4 all press/berendsen iso -500 -500 1000.0 modulus 20000

# Run 0.5 ns equilibration
#
dump                1 all custom 1000 eq.${NAME}.dump id type x y z vx vy vz
dump                1 all custom 1000 eq.liq_294K_-500atm_ML.dump id type x y z vx vy vz
run                 100000
Per MPI rank memory allocation (min/avg/max) = 3.484 | 3.499 | 3.503 Mbytes
Step Temp Press Volume TotEng KinEng PotEng c_1[4] Density 
     665          294    1067.5409    138688.37   -45832.112     4037.382   -49869.494 4.175569e-33   0.99392992 
     700    150.37841   -462.49684    139743.22    -45160.05    2065.0854   -47225.135    0.2120126   0.98642726 
     800    216.26986   -282.20786    140215.01   -43775.601    2969.9457   -46745.547   0.75982481   0.98310812 
     900    241.65179   -384.75656    140403.47   -42970.564    3318.5054   -46289.069    1.3668276   0.98178853 
    1000    259.47901   -391.14087    140653.96   -42379.731    3563.3193    -45943.05    2.1140747   0.98004004 
    1100    272.78455    -554.0714    140662.14   -41913.663    3746.0389   -45659.702    2.9723906   0.97998308 
    1200    281.76316   -359.58623    140774.65   -41606.955    3869.3385   -45476.294    3.8118368   0.97919987 
    1300    289.71681   -519.27381    141094.96   -41333.579    3978.5627   -45312.142    4.8321885   0.97697688 
    1400    284.49851   -617.04708    140696.49   -41254.759    3906.9019   -45161.661    5.8580134   0.97974384 
    1500    289.65921   -654.19053    140680.46    -41114.64    3977.7717   -45092.411     6.899954   0.97985546 
    1600    292.30073   -442.58306     140455.3   -41106.495    4014.0467   -45120.542    7.9594698   0.98142625 
    1700    289.09777   -604.13624    140204.69   -41114.366    3970.0617   -45084.428    9.1578821   0.98318051 
    1800    293.06959   -845.18593    140154.94   -41057.638     4024.605   -45082.243    10.471487   0.98352946 
    1900    290.54636    -347.1932    140305.06   -41022.284    3989.9546   -45012.239    11.644742   0.98247718 
    2000    295.95483   -907.80956    140429.87   -40937.702    4064.2269   -45001.929    12.686376   0.98160394 
    2100    289.31706   -282.76173     140558.2   -41031.071    3973.0731   -45004.144    13.747097   0.98070773 
    2200     289.6276   -212.07014    140716.65   -40991.052    3977.3376   -44968.389    15.204773   0.97960342 
    2300    292.59946   -636.53396    140572.29   -40916.283     4018.149   -44934.432    16.534289   0.98060943 
    2400    295.50645   -319.85276    140673.82    -40943.63    4058.0695     -45001.7    17.760527   0.97990168 
    2500    296.48381   -618.77497    140664.66   -40948.732    4071.4912   -45020.223     18.97038   0.97996555 
    2600    301.51755   -496.40754    140578.46   -40850.513    4140.6174    -44991.13    20.251405   0.98056642 
    2700    294.09732    -477.8872    140795.74   -40903.167    4038.7185   -44941.886    21.643561   0.97905317 
    2800    297.04352   -527.18589    140529.25   -40950.288    4079.1774   -45029.466    22.817048   0.98090976 
    2900    289.85162   -484.24551    140358.18   -40914.029    3980.4141   -44894.443    23.644827   0.98210532 
    3000    296.73643   -632.43374    140648.71   -40879.896    4074.9603   -44954.856    24.560921   0.98007664 
    3100    298.78304   -524.96637    140556.63   -40906.117    4103.0656   -45009.183    25.688632   0.98071874 
    3200    290.78617    -476.6698    140588.85   -40880.308    3993.2478   -44873.556    26.940447   0.98049392 
    3300    300.69209     -506.094    140167.34    -40897.05    4129.2817   -45026.331    28.250762   0.98344251 
    3400    296.53951   -537.40917    140165.25   -40926.213     4072.256   -44998.469    29.392574   0.98345718 
    3500     298.0023   -528.70816    140438.49    -40850.73     4092.344   -44943.074    30.516627   0.98154372 
    3600    292.40751   -405.18143    140626.06   -40916.295    4015.5131   -44931.808    31.814766   0.98023452 
    3700    294.39732   -401.75008    140518.25   -40884.835    4042.8383   -44927.673    33.031673   0.98098659 
    3800    293.03341   -415.28527    140476.81   -40839.476    4024.1083   -44863.585    33.900667   0.98127599 
    3900    290.63691    -501.5384     140286.5   -40993.689     3991.198   -44984.887    35.164891   0.98260711 
    4000    291.21214   -632.74479    140145.36   -41003.504    3999.0974   -45002.601    36.660609   0.98359671 
    4100    287.47536   -375.63292    139842.79   -40937.751    3947.7818   -44885.532    37.960906   0.98572487 
    4200    292.07854   -525.66112    140119.34   -40958.916    4010.9954   -44969.912    39.388963   0.98377939 
    4300    293.05759   -461.87292     139991.9   -40918.048    4024.4403   -44942.488    40.672388   0.98467493 
    4400    297.47955   -561.19228    139610.74   -40925.889    4085.1652   -45011.054    41.558866   0.98736327 
    4500    295.03425   -543.90576    139767.08   -40926.022     4051.585   -44977.607    42.757405   0.98625885 
    4600    292.25755   -555.20253    139869.91   -40950.413    4013.4536   -44963.867    43.884724   0.98553372 
    4700    294.29995   -477.30159    139813.67   -41006.454    4041.5011   -45047.955    44.842245   0.98593015 
    4800    293.99094   -434.14546    139656.31    -40932.79    4037.2576   -44970.048    45.866675   0.98704107 
    4900     297.3359   -336.25128    139604.96    -40938.27    4083.1926   -45021.462    47.219817   0.98740417 
    5000     292.7575   -507.57214    139675.03   -40959.821    4020.3192    -44980.14    48.382375   0.98690877 
    5100     295.1604   -260.58279    140108.33   -40984.072    4053.3174    -45037.39    49.751332   0.98385669 
    5200    287.69427   -500.73157    140633.13     -41042.8     3950.788   -44993.588    51.135349   0.98018522 
    5300    291.89095   -451.11757    140738.73   -41021.433    4008.4193   -45029.852    52.500238   0.97944975 
    5400     296.0605   -432.95303    140818.77   -40919.167     4065.678   -44984.845    53.484843   0.97889308 
    5500    295.43068    -526.4054    140587.77   -40924.476    4057.0289   -44981.505    54.583918   0.98050146 
    5600    292.80059   -549.82233    140366.58   -40873.354     4020.911   -44894.265    55.932499   0.98204656 
    5700    299.18416   -859.96638    140407.53   -40906.292    4108.5739   -45014.866    57.052646   0.98176016 
    5800     299.5081   -546.48157    140802.51   -40854.522    4113.0225   -44967.545    58.364157   0.97900612 
    5900    294.13196   -820.76636    140510.64   -41067.529    4039.1941   -45106.723    59.213728   0.98103968 
    6000    287.54322   -612.85655    140537.59   -41108.118    3948.7137   -45056.832    60.365977   0.98085154 
    6100    291.20584   -513.25014    140569.58   -41027.478     3999.011   -45026.489    61.742469   0.98062834 
    6200    289.50559   -612.43268     140340.7   -41048.212    3975.6621   -45023.874    62.560726   0.98222766 
    6300    293.88116    -230.8477    140494.06   -41017.615      4035.75   -45053.365    63.975064    0.9811555 
    6400    290.02349   -683.29906    140546.32   -41026.671    3982.7742   -45009.445    65.227084   0.98079066 
    6500    289.52555   -384.01254    140510.99   -41004.484    3975.9362    -44980.42    66.864212   0.98103728 
    6600    289.10529   -480.17787    140540.49   -41084.555    3970.1649    -45054.72     68.04746   0.98083131 
    6700    292.64101   -506.05869    140662.18   -41061.545    4018.7195   -45080.265    69.099569   0.97998282 
    6800    291.06688    -745.0578    140746.95   -41153.651    3997.1026   -45150.753    70.374074   0.97939256 
    6900    290.91052   -479.05308    140550.28   -41079.056    3994.9555   -45074.012    71.778122   0.98076301 
    7000    294.00877   -454.89985    140494.62   -40947.311    4037.5025   -44984.813    72.720879   0.98115158 
    7100     288.2059   -307.50495    140453.61   -41075.289    3957.8141   -45033.103    73.695752   0.98143806 
    7200    291.88585   -453.57623    140483.24    -41100.48    4008.3493   -45108.829    74.817506   0.98123103 
    7300    287.44207   -638.80723    140118.41   -41061.434    3947.3247   -45008.758    75.691807   0.98378593 
    7400    291.79796   -626.61615    140380.32   -41110.489    4007.1423   -45117.631     77.37433   0.98195043 
    7500    299.06769   -523.79112    140436.13   -40985.694    4106.9745   -45092.668    78.649886   0.98156018 
    7600    289.91068   -500.52524    140351.22   -41005.564     3981.225   -44986.789     79.75696   0.98215402 
    7700    292.70308   -502.17152    140322.48   -40931.431    4019.5719   -44951.003     80.80546    0.9823552 
    7800    290.16117   -698.66134    140283.72   -40954.529    3984.6649   -44939.194    81.968183    0.9826266 
    7900    285.58405   -503.37609    140008.84   -41076.125    3921.8092   -44997.934    83.602841   0.98455578 
    8000    291.70291   -263.01623     139756.4   -41074.106     4005.837   -45079.943    84.373375   0.98633423 
    8100    290.07355   -324.80078    139784.87   -40996.143    3983.4617   -44979.604    85.678172    0.9861333 
    8200    290.56523   -579.52341    139833.96   -41033.493    3990.2137   -45023.707    86.669177   0.98578713 
    8300    293.85816   -501.83922    139745.91   -40950.019    4035.4342   -44985.453    87.858752   0.98640826 
    8400    292.74911   -667.13415    139568.75    -41035.62    4020.2041   -45055.824    89.058401   0.98766035 
    8500    292.29054   -641.14154     139512.9   -41033.038    4013.9067   -45046.945    90.212035   0.98805572 
    8600    289.57397   -599.73432    139919.16   -40963.816    3976.6011   -44940.417    91.102045   0.98518687 
    8700    294.06614   -550.26697    139849.71   -40898.383    4038.2903   -44936.673    91.789452   0.98567612 
    8800    294.16912   -301.00588    140017.62   -40896.979    4039.7044   -44936.683    92.969946   0.98449409 
    8900    293.27438   -578.73182    140197.14   -40922.672    4027.4173   -44950.089    94.074574   0.98323343 
    9000    300.16256   -496.47776    140330.98     -40796.3    4122.0099   -44918.309    95.597774   0.98229571 
    9100     292.5195   -421.59824    140049.14   -40880.697     4017.051   -44897.748    96.829431   0.98427251 
    9200    295.70104   -306.25387    139904.08   -40892.702    4060.7417   -44953.444    97.783302   0.98529305 
    9300    293.92726   -447.58648    140086.98   -40889.903    4036.3832   -44926.286    99.146819    0.9840066 
    9400     289.2014   -392.06771    140016.61   -40903.514    3971.4847   -44874.999    100.33454   0.98450115 
    9500    293.92452   -436.83341     139961.3   -40954.927    4036.3455   -44991.273    101.50278   0.98489023 
    9600    297.62579   -333.44671    140433.17    -40951.16    4087.1735   -45038.334    103.20347   0.98158092 
    9700    295.41684   -466.35132    140460.54    -40916.49    4056.8389   -44973.329    104.54764   0.98138966 
    9800     292.9165   -317.49892    140510.01   -40922.988    4022.5027   -44945.491    105.87854   0.98104413 
    9900    294.87897   -675.30223    140691.65   -40874.168    4049.4525    -44923.62    107.29255   0.97977751 
   10000    289.73806   -462.55967    140549.44   -40989.479    3978.8546   -44968.334     108.1269   0.98076889 
   10100    293.80889   -520.30215    140758.39   -40920.634    4034.7576   -44955.391    109.28142   0.97931295 
   10200    294.93478   -485.00808    140576.63   -40974.556    4050.2189   -45024.775    109.99234   0.98057915 
   10300     298.9745   -362.10559    140506.12   -40928.372    4105.6948   -45034.067    111.02696   0.98107127 
   10400    292.89126   -420.81963    140447.51   -40848.321    4022.1561   -44870.477    112.61212   0.98148068 
   10500    288.59435   -571.88286     140240.6   -40874.521    3963.1484    -44837.67    113.66758   0.98292874 
   10600    300.71701   -497.24879    140258.06   -40855.099     4129.624   -44984.723    114.92765   0.98280638 
   10700    299.32358   -418.16423    140647.68   -40856.759    4110.4885   -44967.248    115.93437   0.98008382 
   10800     296.5728   -555.69196     140254.8    -40841.48    4072.7133   -44914.193    116.93113   0.98282923 
   10900    295.83048   -620.11077    140789.85   -40761.462    4062.5192   -44823.981     118.5445   0.97909416 
   11000    293.47781   -674.33622    140733.47   -40793.146     4030.211   -44823.357    119.61941   0.97948641 
   11100    299.32701    -579.7203    140808.73     -40837.1    4110.5357   -44947.636    120.46958   0.97896288 
   11200     293.8557    -745.9178    140677.92   -40877.835    4035.4004   -44913.235    121.65848   0.97987316 
   11300      285.355   -537.92524    140205.53   -40945.818    3918.6637   -44864.481    122.50401   0.98317462 
   11400    288.83679   -498.05654    140168.93   -40966.587    3966.4778   -44933.065    123.29248   0.98343134 
   11500    291.82595   -617.83399     139958.9   -41054.639    4007.5266   -45062.166    124.77047   0.98490712 
   11600    284.54597   -670.34461    139661.56   -41107.159    3907.5537   -45014.713    125.54825   0.98700399 
   11700    290.39486   -531.56996     139818.5   -40927.684    3987.8741   -44915.558    126.44175   0.98589615 
   11800    290.85453   -340.65706     140162.6   -40950.189    3994.1866   -44944.376    127.87286   0.98347573 
   11900    289.06406   -552.70384    139998.83   -41020.235    3969.5987   -44989.833    129.01931   0.98462619 
   12000    287.62229   -660.95333    139856.49   -41018.031    3949.7996    -44967.83    130.29914   0.98562829 
   12100    284.96856   -481.66111     139445.6   -40996.267    3913.3569   -44909.624    131.62608   0.98853257 
   12200     301.1439   -657.16112    139915.82   -40827.335    4135.4863   -44962.821    133.34081    0.9852104 
   12300    303.47907   -631.22547    140074.21   -40812.821    4167.5543   -44980.375     134.1294   0.98409636 
   12400    297.15308   -303.41522    140479.51   -40781.886    4080.6819   -44862.568    135.75275    0.9812571 
   12500    298.95371   -617.76632    140169.09   -40851.847    4105.4093   -44957.256    136.34728    0.9834302 
   12600    297.50245   -322.46026    140220.02   -40907.037    4085.4798   -44992.517    137.23923   0.98307298 
   12700    297.74893   -543.90433     140333.5   -40887.566    4088.8645   -44976.431    138.78356   0.98227803 
   12800    288.66075   -294.81058    140339.75   -40933.792    3964.0602   -44897.853    140.22591   0.98223433 
   12900    295.30872   -591.35706    140603.13   -40934.201    4055.3541   -44989.555    142.30546   0.98039435 
   13000    292.83973   -376.34621    140531.38   -41024.285    4021.4484   -45045.734    143.59104   0.98089493 
   13100    292.72266    -429.1274    140381.12   -40972.768    4019.8408   -44992.609    145.12056   0.98194481 
   13200    298.19114   -555.20638    140631.69   -40854.224    4094.9372   -44949.161    146.23543   0.98019525 
   13300    300.73438   -478.61785    140498.62   -40888.254    4129.8625   -45018.116    147.39294   0.98112362 
   13400    297.73092   -577.70895    140294.55   -40963.137    4088.6173   -45051.754     148.7575   0.98255074 
   13500    290.34665   -622.86549    140100.33   -40976.027     3987.212   -44963.239    149.68868   0.98391285 
   13600    290.66582   -462.29125    140125.03   -40966.825    3991.5951    -44958.42    150.93917   0.98373946 
   13700    291.38745   -551.72066    140104.74   -41006.852    4001.5049   -45008.357    152.17078    0.9838819 
   13800    287.13027    -585.4029    140333.82   -41043.674    3943.0429   -44986.717    154.09233    0.9822758 
   13900    293.13537   -481.96609    140525.58   -41037.029    4025.5085   -45062.537    155.30146   0.98093538 
   14000    288.30959   -534.06396    140564.08   -41106.911    3959.2379   -45066.149    156.58834   0.98066673 
   14100    292.74647   -603.11619    140422.34   -41070.273    4020.1677   -45090.441    157.62181   0.98165661 
   14200    294.83796   -359.25077    140113.72   -41009.004    4048.8894   -45057.893    158.55238    0.9838188 
   14300    291.71199   -565.39172    140390.39   -41064.339    4005.9617   -45070.301    159.60939      0.98188 
   14400    298.07808   -697.29749    140122.04   -41025.404    4093.3847   -45118.788    159.97526   0.98376039 
   14500    291.19844   -755.02152    139920.26   -41056.343    3998.9093   -45055.252    161.06844   0.98517913 
   14600    293.42577   -370.07001    140109.26   -40939.997    4029.4964   -44969.494    161.73682   0.98385014 
   14700    296.44757   -681.57784    139980.76   -40904.733    4070.9935   -44975.727     162.5882   0.98475332 
   14800    292.67449   -268.08051    140187.05   -40924.993    4019.1793   -44944.172    163.78147   0.98330424 
   14900    297.33449   -904.77879    140275.92   -40901.246    4083.1732   -44984.419    164.38368   0.98268122 
   15000    291.89519   -195.34067    140017.83   -40982.236    4008.4775   -44990.714    165.02933   0.98449259 
   15100    294.59779   -530.34991    140356.72   -40952.368    4045.5913    -44997.96     166.5119   0.98211555 
   15200    288.10087   -517.88297    140291.77   -40998.378    3956.3716   -44954.749    167.84886    0.9825702 
   15300    294.29183   -297.22597    140339.13   -40948.836    4041.3895   -44990.225    168.87127   0.98223867 
   15400    295.98153   -361.63823    140523.02   -40860.996    4064.5936   -44925.589    170.62064   0.98095327 
   15500    291.80602   -347.76638    140536.25    -40866.54     4007.253   -44873.792    172.03658   0.98086094 
   15600    296.94501    -496.8917    140593.79   -40954.843    4077.8246   -45032.667    173.18527   0.98045949 
   15700    290.39282    -684.9551    140292.69   -41018.484    3987.8461    -45006.33    174.21913    0.9825638 
   15800    287.61995   -449.83452    140266.48   -41023.468    3949.7674   -44973.236    175.40076    0.9827474 
   15900    290.16228   -394.43639    140289.16    -40981.18    3984.6802    -44965.86    176.26199   0.98258853 
   16000     289.0969   -622.59734    140264.22   -41016.194    3970.0498   -44986.243     177.3991   0.98276324 
   16100    289.52915   -589.68842    140092.35   -41032.646    3975.9856   -45008.632    178.56256   0.98396891 
   16200    295.56843   -511.41991    140118.62   -40868.579    4058.9206     -44927.5    179.58031   0.98378446 
   16300    298.02215   -593.05794    140204.77   -40833.244    4092.6166   -44925.861    181.03972   0.98317994 
   16400    301.79871   -815.36909    140060.93   -40824.925    4144.4785   -44969.403    182.18592   0.98418962 
   16500    299.31143   -241.40083    140126.66   -40843.666    4110.3218   -44953.988    183.39038   0.98372801 
   16600    299.01505   -316.61905    140127.22   -40872.258    4106.2516    -44978.51    184.49844   0.98372404 
   16700    297.36123   -626.15332    140239.91    -40965.84    4083.5404    -45049.38    186.08594   0.98293357 
   16800    292.21187   -501.16547    140158.12   -40935.619    4012.8264   -44948.445    187.34847   0.98350714 
   16900    291.40951   -434.68362    140373.23   -40897.356    4001.8079   -44899.164    189.28254   0.98200007 
   17000    295.54171    -404.5846    140343.47   -40929.044    4058.5537   -44987.597    189.81923    0.9822083 
   17100    295.79128   -646.20063    140337.27   -40930.144     4061.981   -44992.125    190.79761   0.98225166 
   17200    298.04625   -398.83337    140466.63    -40846.29    4092.9475   -44939.237    191.95921   0.98134705 
   17300    297.88421   -422.04594    140792.53    -40855.75    4090.7223   -44946.472    193.24989    0.9790755 
   17400    296.41782   -752.45431    140631.42   -40881.181     4070.585   -44951.766    194.51338   0.98019717 
   17500    289.94626   -416.18733    140679.16   -40879.679    3981.7136   -44861.393    195.55885   0.97986449 
   17600    292.34598   -922.87562     140591.8   -40956.639    4014.6681   -44971.307    196.82055   0.98047339 
   17700    293.52305   -456.61502    140792.04   -40857.707    4030.8322   -44888.539    198.47385   0.97907892 
   17800    295.30891   -810.72797    140820.25     -40904.3    4055.3567   -44959.656    199.82695   0.97888279 
   17900    289.79095   -610.00725    140669.96    -40962.42    3979.5808   -44942.001    200.83791   0.97992862 
   18000    289.35183   -507.90373    140110.36    -41070.93    3973.5506   -45044.481    201.59847   0.98384241 
   18100    290.03843   -734.53585    140152.49   -41042.395    3982.9794   -45025.375    203.15828   0.98354665 
   18200    296.43656   -48.982062    140372.33   -40965.877    4070.8423    -45036.72    204.51399   0.98200635 
   18300    294.93176    -646.3705     140415.6   -41018.245    4050.1775   -45068.423    205.28138   0.98170371 
   18400    292.61939   -191.70202    140580.95   -41102.702    4018.4226   -45121.125    206.38266   0.98054907 
   18500    295.97665   -625.24928    140771.24   -41001.236    4064.5266   -45065.762    207.54398   0.97922358 
   18600    294.07393   -325.64718    140972.35   -41010.495    4038.3973   -45048.892    209.45161   0.97782665 
   18700    299.15918     -297.031    140865.36   -40905.958     4108.231   -45014.189    210.42711   0.97856927 
   18800    296.40604   -671.85358     140832.3   -40983.992    4070.4232   -45054.415    211.78147     0.978799 
   18900    295.20722   -572.53838    140934.74   -41019.846    4053.9603   -45073.806    212.84103    0.9780876 
   19000    293.45853   -677.89986    140852.81   -41019.176    4029.9463   -45049.123    213.84633   0.97865648 
   19100    289.80212   -531.13935    140690.69   -41070.936    3979.7342    -45050.67    214.80065   0.97978422 
   19200    289.51893   -514.02014    141099.71   -41008.949    3975.8454   -44984.794    216.02459   0.97694399 
   19300    291.55835   -399.17933    140872.97    -40967.95    4003.8519   -44971.802    216.00949   0.97851642 
   19400    295.08153   -540.37681    140574.64   -40985.736    4052.2342    -45037.97    216.21367   0.98059308 
   19500    293.09334   -560.55921    140083.36   -40962.324    4024.9312   -44987.255    216.62318   0.98403209 
   19600    292.75729   -596.86565    140054.56   -40897.968    4020.3164   -44918.284     217.9381   0.98423443 
   19700    290.17236   -513.33309    140163.33   -40904.507    3984.8186   -44889.325    219.57559   0.98347059 
   19800    295.92161   -416.29924    140106.03   -40916.449    4063.7706    -44980.22    220.90065   0.98387286 
   19900    296.55243   -529.07164    140277.99   -40847.069    4072.4334   -44919.502    222.55484   0.98266674 
   20000    296.63982   -629.78378    140231.28   -40830.259    4073.6336   -44903.892    224.10836   0.98299408 
   20100     298.7226    -371.6519    139918.13   -40841.135    4102.2355   -44943.371    225.05649   0.98519411 
   20200    297.61407   -620.41077    140045.74   -40819.231    4087.0125   -44906.244    226.84595   0.98429636 
   20300    302.34767   -264.37679    140300.78   -40761.899    4152.0172   -44913.916    227.99091   0.98250713 
   20400      304.684   -400.40649     140357.3   -40815.681    4184.1011   -44999.782    228.77129   0.98211152 
   20500    298.76403   -412.02936    140488.79   -40753.693    4102.8045   -44856.498    230.15008    0.9811923 
   20600    295.96057   -507.46858    140428.92    -40888.98    4064.3058   -44953.286    231.08259   0.98161062 
   20700    294.07646    -341.2203    140503.15   -40955.005     4038.432   -44993.437    232.42623     0.981092 
   20800     294.4882   -914.45742     140485.1   -40976.933    4044.0863    -45021.02    233.41813   0.98121802 
   20900    291.07072   -417.39094    140380.78   -40998.408    3997.1554   -44995.563    234.00237   0.98194723 
   21000    292.61814   -433.88009    140346.05    -40880.14    4018.4054   -44898.545    235.53723   0.98219018 
   21100    297.26294   -677.86818    140291.64   -40945.444    4082.1906   -45027.635    236.40038   0.98257111 
   21200    289.76971   -473.59382    140394.17   -41030.343    3979.2892   -45009.632    237.74818    0.9818536 
   21300    296.20727   -647.96391    140334.55    -41051.02    4067.6936   -45118.714    239.13729   0.98227069 
   21400    292.60707   -95.073759    140623.95   -40969.559    4018.2534   -44987.812    240.87539   0.98024919 
   21500      294.492   -378.40856    140854.88   -40912.579    4044.1384   -44956.717    242.55774   0.97864211 
   21600    289.97445   -110.76834    141044.61   -40969.093    3982.1007   -44951.194    244.37551   0.97732566 
   21700    295.35819   -493.04799    141190.98   -40903.801    4056.0335   -44959.834    245.94851   0.97631247 
   21800    297.54428   -452.91076    140977.44   -40929.951    4086.0542   -45016.005    247.25488    0.9777913 
   21900    294.87956   -280.21603     140804.4   -40855.223    4049.4607   -44904.684       247.73   0.97899293 
   22000     298.7926   -591.19651    140807.54   -40949.118    4103.1969   -45052.314     248.9053   0.97897115 
   22100     295.8086   -401.31584    140518.53   -40878.912    4062.2188   -44941.131    249.83343   0.98098464 
   22200    298.14609   -638.98439    140372.34   -40861.949    4094.3185   -44956.267       250.88   0.98200628 
   22300    296.45469   -556.76721    140314.15   -40902.297    4071.0912   -44973.388     252.2056   0.98241348 
   22400    296.30585   -443.31273    140289.83   -40946.598    4069.0474   -45015.645    253.32826    0.9825838 
   22500    295.92464   -261.40838    140502.43   -40929.143    4063.8124   -44992.955    255.45451   0.98109704 
   22600    290.79134   -598.04717    140389.74   -40978.849    3993.3188   -44972.168    256.32717   0.98188458 
   22700    290.62087   -541.77653    140012.36   -40998.442    3990.9779    -44989.42    257.36343   0.98453103 
   22800     289.7864   -329.71426    140047.87    -41096.04    3979.5184   -45075.558    258.09884   0.98428142 
   22900    293.35154   -290.18274    140571.55   -41101.296     4028.477   -45129.773    259.65226   0.98061463 
   23000    292.79252   -364.39353    140816.03    -40972.61    4020.8002    -44993.41    261.08066   0.97891209 
   23100    292.96744   -696.76079    140501.08   -40981.875    4023.2023   -45005.078    261.55966   0.98110643 
   23200    293.31574   -615.35134    140545.73   -40997.467    4027.9854   -45025.453    262.65444   0.98079475 
   23300    287.94989   -536.42634    140659.75   -41059.968    3954.2984   -45014.267    264.02943   0.97999974 
   23400    286.12473   -622.93162    140561.31    -41015.62    3929.2341   -44944.854    265.49768   0.98068604 
   23500    293.88421   -673.21118    140666.83   -40995.988     4035.792    -45031.78    266.62414   0.97995041 
   23600     291.8657    -277.8962    140526.87   -41070.283    4008.0726   -45078.355    267.47874   0.98092641 
   23700    294.55425   -769.75534    140290.59   -41109.612    4044.9934   -45154.606    268.03805   0.98257848 
   23800    293.70032   -349.89265    140477.56   -41055.082    4033.2667   -45088.348    269.70616   0.98127072 
   23900    290.72268   -398.23045    140556.42   -40953.026    3992.3759   -44945.402    271.21716   0.98072016 
   24000    296.21811   -438.65135    140615.62   -40937.828    4067.8424   -45005.671    272.27747   0.98030727 
   24100    290.81387   -693.95251    140610.46   -40934.989    3993.6281   -44928.617    274.09117   0.98034328 
   24200    298.03561   -579.10817    140377.42   -40859.631    4092.8014   -44952.433    274.90367   0.98197071 
   24300    294.83686   -376.54901    140665.49   -40898.229    4048.8743   -44947.103    276.22278   0.97995975 
   24400    297.11833   -530.95436    140400.48   -40864.537    4080.2047   -44944.741     276.7266   0.98180943 
   24500    299.17668   -518.97969    140131.64   -40905.481    4108.4713   -45013.953    277.15583   0.98369305 
   24600    295.38947   -531.29631    140135.86   -40922.022    4056.4631   -44978.485    277.81271   0.98366341 
   24700    296.29435    -420.3249    140453.16    -40883.93    4068.8894   -44952.819    279.51044   0.98144122 
   24800    297.26986   -704.51818    140240.06   -40869.289    4082.2857   -44951.574    280.20375   0.98293256 
   24900    291.48047   -638.86011    140403.23   -40947.919    4002.7824   -44950.701    281.54551   0.98179021 
   25000    296.01479   -636.14264    140454.94   -40992.499    4065.0503    -45057.55    283.49816   0.98142875 
   25100    293.67712   -361.00592    140159.04   -40995.837     4032.948   -45028.785    284.05818   0.98350073 
   25200    292.31207   -679.68247    140188.28   -41027.591    4014.2023   -45041.794    285.22356   0.98329559 
   25300    297.44582   -423.02752    140696.31    -41053.42    4084.7021   -45138.122    286.85053   0.97974509 
   25400    295.97831   -524.49915    140547.42   -41013.228    4064.5493   -45077.778    288.56301   0.98078298 
   25500    294.00832   -687.89981    140069.37   -41032.603    4037.4962     -45070.1    289.69534   0.98413037 
   25600    290.80446   -364.26261    139921.48   -41093.072     3993.499   -45086.571      291.157   0.98517055 
   25700    292.74128   -410.22457     140348.3   -41073.041    4020.0965   -45093.137    293.25864   0.98217445 
   25800    296.63216   -778.91901     140591.4   -41105.379    4073.5285   -45178.908    295.00809   0.98047614 
   25900    290.43747   -361.75331    140774.72   -41170.819    3988.4592   -45159.278    295.94879   0.97919938 
   26000    292.19399   -271.06044    140877.79   -41037.212    4012.5808   -45049.793    297.14484   0.97848296 
   26100    289.74627   -593.13678    140816.28   -41073.016    3978.9673   -45051.983     297.6174   0.97891036 
   26200    297.72347   -519.66937    140796.93   -40973.914     4088.515   -45062.429    298.93974   0.97904489 
   26300    293.57506   -733.04465    140866.42   -40984.086    4031.5464   -45015.632    300.00527   0.97856193 
   26400    292.78659    -391.9949    140683.49   -41023.316    4020.7187   -45044.034    300.62575   0.97983438 
   26500      298.474   -767.73557       140798   -40811.342    4098.8216   -44910.164    302.03613   0.97903744 
   26600    295.43338   -659.11176    140544.73   -40922.013    4057.0661   -44979.079    303.00947   0.98080174 
   26700    296.29601   -797.99077    140848.17   -40889.255    4068.9122   -44958.167    305.00527   0.97868874 
   26800    297.65828   -755.37975    140333.23   -40943.504    4087.6197   -45031.124    305.89079   0.98227994 
   26900    288.20965   -588.53714    140091.92   -41023.389    3957.8655   -44981.254    307.13662   0.98397195 
   27000    286.18295   -418.17487    140147.83   -41017.874    3930.0337   -44947.907    308.97487   0.98357936 
   27100    295.41033   -673.31635    140114.89   -40965.699    4056.7495   -45022.448    309.94031   0.98381065 
   27200    299.42124   -581.38837    140138.91   -40930.849    4111.8297   -45042.679    311.13507   0.98364202 
   27300     293.0201   -218.67191    139969.79   -40885.378    4023.9254   -44909.303    312.79311   0.98483052 
   27400    294.91719   -447.68103    140169.81   -40842.638    4049.9775   -44892.616    313.90794   0.98342513 
   27500    293.58355   -616.15618    140397.68   -40940.953     4031.663   -44972.616    315.86425   0.98182903 
   27600    296.82187   -696.71162    140508.86   -40872.868    4076.1336   -44949.002     317.1113   0.98105213 
   27700    289.56133   -419.29342    140428.49   -40896.443    3976.4276    -44872.87    317.97179   0.98161362 
   27800    299.99218   -379.52403    140414.68   -40880.012    4119.6702   -44999.682     319.4099   0.98171016 
   27900     291.5429   -473.23935    140436.35   -40860.517    4003.6397   -44864.157    321.56322   0.98155869 
   28000    293.57123   -524.43353    140657.83   -40758.243    4031.4939   -44789.737    322.74236   0.98001309 
   28100    300.24389   -411.46473    140262.78   -40810.338    4123.1268   -44933.465    323.27206   0.98277329 
   28200    297.90921   -700.57499    140425.92   -40963.865    4091.0657   -45054.931     324.2271   0.98163158 
   28300    290.43157   -432.33529    140464.78   -40966.251    3988.3783   -44954.629    325.92173   0.98135998 
   28400    298.90128   -445.31577    140715.28   -40836.783    4104.6892   -44941.472    326.89079   0.97961297 
   28500    287.37191   -425.03113    140256.51   -40901.397    3946.3611   -44847.758    328.08275   0.98281723 
   28600    291.42258   -169.66774    139885.85   -40928.477    4001.9874   -44930.464    328.05249   0.98542148 
   28700    295.91834   -581.80627    139831.77   -41007.275    4063.7258       -45071    329.23816   0.98580254 
   28800    288.28841   -231.27795    140121.95   -40935.078     3958.947   -44894.025    330.51687   0.98376106 
   28900    291.06311   -268.87925    140559.58   -40924.738     3997.051   -44921.789    332.29156    0.9806981 
   29000    289.91089   -401.04099    140686.12   -40925.014     3981.228   -44906.242    333.55665   0.97981607 
   29100    293.78804   -723.37799    140588.14   -40923.609    4034.4713    -44958.08    334.24373   0.98049887 
   29200    299.49269   -486.15055    140490.95   -40978.918    4112.8109   -45091.729     334.9034    0.9811772 
   29300    295.70152   -239.07447    140556.09   -40981.381    4060.7483   -45042.129    336.86384   0.98072248 
   29400     289.3675   -571.89141    140647.48   -40995.248    3973.7658   -44969.014    338.13992   0.98008525 
   29500    296.09278   -541.84823    140424.25   -40966.166    4066.1213   -45032.287    339.46976   0.98164327 
   29600    289.14346   -366.74839    140344.53   -40961.845    3970.6891   -44932.534    340.79881   0.98220088 
   29700    293.28205   -722.96552    140679.27   -40914.415    4027.5228   -44941.938    342.53957   0.97986373 
   29800    298.84293   -556.62329    140478.88   -40858.752    4103.8879    -44962.64    343.00321   0.98126152 
   29900    293.02601   -417.87101    140514.63    -40839.88    4024.0066   -44863.886    344.78226   0.98101182 
   30000    293.24841   -812.88453    140625.12   -40822.392    4027.0607   -44849.453    346.18545   0.98024109 
   30100    296.56235   -720.15401    140610.98   -40793.673    4072.5697   -44866.243    348.06267   0.98033965 
   30200    301.67926   -309.75885    140716.61   -40838.702    4142.8381    -44981.54      349.777   0.97960371 
   30300    294.28078   -518.93279    140725.67   -40818.869    4041.2379   -44860.107    351.15483   0.97954067 
   30400    291.93087   -464.20077    140379.56   -40996.272    4008.9676    -45005.24     352.1588   0.98195576 
   30500    295.90328   -568.13197     140152.4   -41011.444    4063.5191   -45074.963    352.98831   0.98354734 
   30600    293.00941    -516.3447    140001.66   -41023.224    4023.7786   -45047.003    354.09183   0.98460629 
   30700     293.6019   -156.58869    140412.83   -40991.351     4031.915   -45023.266    356.13214   0.98172309 
   30800    292.69939   -463.05635    140317.49    -40926.53    4019.5213   -44946.052    356.88073   0.98239009 
   30900    293.62363   -762.75853     140109.3   -40981.589    4032.2135   -45013.803    357.62394    0.9838499 
   31000    297.14719   -194.70723    140157.68   -40933.451    4080.6011   -45014.052    358.88937   0.98351026 
   31100    289.95697   -559.79593    140096.12   -41110.197    3981.8607   -45092.058     359.1481   0.98394243 
   31200    285.11664   -319.24775    140079.83   -41093.604    3915.3905   -45008.994    359.90031   0.98405682 
   31300    287.82961   -541.69762    139750.67    -41042.81    3952.6466   -44995.457    360.24275   0.98637465 
   31400    296.09687   -414.61024    139791.45   -41035.535    4066.1775   -45101.712    362.16934   0.98608692 
   31500    292.97143   -344.79066    140023.06   -40924.912    4023.2571   -44948.169    363.54799   0.98445583 
   31600    296.10253   -271.06484    140067.49   -40930.216    4066.2552   -44996.471    364.18993   0.98414353 
   31700    291.99012   -171.94709    140408.65   -40950.993    4009.7812   -44960.774    365.71175   0.98175229 
   31800    294.80894   -555.00893    140911.75   -40931.146    4048.4909   -44979.637    368.16183   0.97824711 
   31900    295.40052   -370.88924    141067.05   -40927.709    4056.6148   -44984.324    370.08698    0.9771702 
   32000    295.77437   -125.62069     141108.8   -40863.077    4061.7487   -44924.826    371.07138   0.97688108 
   32100    292.95898   -722.69534    141002.57    -40960.93    4023.0861   -44984.016    372.11479   0.97761708 
   32200    294.49345   -508.59519    141164.34   -40954.726    4044.1584   -44998.884    373.49363   0.97649675 
   32300    293.88615   -448.44468    140990.41   -40951.136    4035.8186   -44986.955    374.26678   0.97770136 
   32400    299.12632   -561.31807    141049.69   -40860.896    4107.7797   -44968.676     375.9185   0.97729047 
   32500    289.43292   -593.18113    140704.26   -40970.635    3974.6641   -44945.299    376.37692    0.9796897 
   32600    292.60447   -429.32558    140486.56   -40958.908    4018.2178   -44977.126    376.14491   0.98120786 
   32700     290.3769   -297.72256    140485.23   -40935.827    3987.6275   -44923.454    377.55352   0.98121717 
   32800    292.42404   -582.30381    140398.25   -40952.952      4015.74   -44968.692    379.27852   0.98182506 
   32900    286.28106   -557.15057    140254.55    -41026.96     3931.381   -44958.341    379.38112   0.98283099 
   33000    290.58518   -751.58363    139949.43   -41049.153    3990.4876    -45039.64    380.38398   0.98497374 
   33100     296.9667   -845.48406    139978.89   -41043.581    4078.1226   -45121.704    381.66673   0.98476648 
   33200    295.29613   -699.19262    139522.25    -41008.32    4055.1812   -45063.502    382.12676    0.9879895 
   33300    294.95951   -334.23515    139550.66   -40968.523    4050.5586   -45019.081    383.18984   0.98778832 
   33400    292.35469   -287.59812     139545.4   -41027.916    4014.7876   -45042.703    384.08668   0.98782561 
   33500    293.02333   -333.75457    139820.98    -40923.64    4023.9698    -44947.61    385.33311    0.9858786 
   33600    296.62825   -710.90458    140287.54   -40948.225    4073.4747     -45021.7    388.10306   0.98259987 
   33700    291.44765   -420.98896    140129.75   -40977.515    4002.3317   -44979.847    388.95074   0.98370632 
   33800    298.52732   -255.09368    140321.47   -40955.774    4099.5538   -45055.327    390.62335   0.98236227 
   33900    294.34109   -429.13529     140125.4   -40981.259     4042.066   -45023.325    391.48867   0.98373682 
   34000    287.93877   -552.84507    140107.97   -40995.525    3954.1456   -44949.671      392.749   0.98385921 
   34100    287.67951   -683.51917    140292.86   -41023.337    3950.5854   -44973.923    394.65088    0.9825626 
   34200    283.92341   -304.14365     140747.5   -40964.886    3899.0043    -44863.89    397.26487   0.97938872 
   34300    291.00867   -769.71617    140657.88   -40925.359    3996.3033   -44921.662    398.74339   0.98001279 
   34400    292.62974   -573.87303    140477.85   -40823.975    4018.5648   -44842.539    399.59994   0.98126867 
   34500    301.68802   -669.08399    140812.96   -40782.033    4142.9585   -44924.992    400.96335   0.97893344 
   34600    296.00837   -607.25041    140839.56    -40848.68    4064.9621   -44913.642    402.69115   0.97874859 
   34700    299.99608   -454.83211    141011.67   -40909.951    4119.7238   -45029.675    403.35987   0.97755398 
   34800    293.56385   -769.80613    140863.11   -40968.591    4031.3926   -44999.983    404.82828   0.97858495 
   34900    291.81769   -383.14759    140542.08   -40939.383    4007.4132   -44946.796    405.25969   0.98082027 
   35000    293.47986   -623.42377    140353.83   -41002.934    4030.2392   -45033.173    406.76238   0.98213575 
   35100     293.6917   -556.06703    140392.51    -40943.75    4033.1482   -44976.898    408.33363   0.98186521 
   35200    301.85708   -319.07682    140342.33   -40731.112    4145.2801   -44876.393    409.58639   0.98221622 
   35300    292.74593    -516.1757    140537.31   -40852.582    4020.1604   -44872.743    411.78073   0.98085351 
   35400    294.19642   -494.72253    140452.64   -40973.035    4040.0794   -45013.114     413.5991   0.98144485 
   35500    295.74247    -353.9756    140372.97   -40937.936    4061.3107   -44999.247    414.63973   0.98200183 
   35600    292.34508   -678.91952    140163.23     -40929.6    4014.6556   -44944.255    415.57268   0.98347134 
   35700    298.14152   -512.61203     140228.3   -40865.955    4094.2558    -44960.21    416.50816   0.98301498 
   35800    290.70607   -550.31148    140295.44   -40902.395    3992.1478   -44894.543    418.01298    0.9825445 
   35900    293.14301   -562.99432    139743.03   -40861.782    4025.6133   -44887.396    418.50658   0.98642853 
   36000    297.16001   -592.85241    139830.37    -40892.79    4080.7771   -44973.568    420.23349   0.98581245 
   36100    296.18145   -527.60151    139759.43   -40916.216     4067.339   -44983.555    420.35999   0.98631281 
   36200    296.92872   -224.90626    139807.06   -40921.043    4077.6009   -44998.644    422.77558   0.98597678 
   36300    295.38754   -368.67497    140079.27   -40922.233    4056.4365    -44978.67    423.49805   0.98406082 
   36400    298.03879   -308.23945       140383   -40837.679    4092.8451   -44930.525    425.33867   0.98193169 
   36500    290.94044   -477.62866    140546.15   -40791.977    3995.3664   -44787.343    427.26635   0.98079186 
   36600    292.50865   -546.36217    140391.66   -40900.283    4016.9019   -44917.185    427.69321    0.9818711 
   36700    295.31449   -355.76633    140410.56   -40934.718    4055.4334   -44990.152    428.95543   0.98173899 
   36800    297.21417   -421.35904    140253.82   -40949.521    4081.5209   -45031.042    430.11062   0.98283611 
   36900    291.35193   -423.60617    140441.21   -41057.499    4001.0172   -45058.517    432.50699   0.98152467 
   37000    287.20568   -559.55928    140306.49   -40972.745    3944.0784   -44916.823    433.51499   0.98246716 
   37100    288.53586   -525.68877    140173.07   -40958.838    3962.3451   -44921.183    435.36719   0.98340229 
   37200    298.18714   -621.34656    140130.67   -40939.977    4094.8822    -45034.86    436.79306   0.98369983 
   37300    290.78365   -441.00989     140373.5   -40909.245    3993.2132   -44902.458    438.63435   0.98199818 
   37400    286.43512   -467.72399     140159.7   -40990.478    3933.4966   -44923.975    438.87331   0.98349609 
   37500    291.69241   -522.13707     139792.4    -40995.95    4005.6929   -45001.642    439.12769   0.98608017 
   37600    294.07798   -479.36217    139866.03   -40956.114    4038.4529   -44994.567    440.54328   0.98556108 
   37700    291.20909    -716.6164    140189.22   -41012.195    3999.0556   -45011.251    441.91374   0.98328901 
   37800    290.36619   -463.15581    139986.66   -40998.597    3987.4803   -44986.077    443.44016   0.98471179 
   37900    291.17598    -362.3441    140143.06   -41073.924    3998.6009   -45072.525    445.15382   0.98361288 
   38000    289.27338   -403.33662    140218.13   -41023.127    3972.4732     -44995.6     446.2831   0.98308628 
   38100    290.78492   -378.70325    140410.55   -41016.892    3993.2307   -45010.122    448.68857   0.98173904 
   38200    292.60564   -545.99749    140445.93   -41004.936    4018.2339    -45023.17    449.85393   0.98149171 
   38300    285.32617   -651.08919     140284.8   -41129.128    3918.2679   -45047.395    451.10046   0.98261903 
   38400    289.00185    -422.0983    140081.77   -41160.289    3968.7444   -45129.034    452.40673   0.98404324 
   38500    290.13353   -706.96449    140039.82   -41171.152    3984.2853   -45155.438    453.91848   0.98433804 
   38600    294.27329   -275.06442    140096.12   -41042.712     4041.135   -45083.847    455.10953   0.98394241 
   38700    294.62702   -434.25109    140032.73   -41039.905    4045.9926   -45085.897    455.96583   0.98438783 
   38800    289.98282   -726.82337    140083.24   -40978.951    3982.2157   -44961.167     456.7525    0.9840329 
   38900    299.52083   -646.85581    140105.05   -40850.733    4113.1973   -44963.931    457.76243   0.98387969 
   39000    295.73612   -464.82191    140231.32   -40914.189    4061.2234   -44975.413    459.23604   0.98299381 
   39100    293.71406   -450.03723    140234.17   -40920.742    4033.4553   -44954.198    460.52231   0.98297384 
   39200    297.07375   -456.67213    140497.53   -40895.821    4079.5925   -44975.414     462.8379   0.98113125 
   39300    297.56704   -596.90018    140167.17    -40894.68    4086.3667   -44981.047    463.63451    0.9834437 
   39400    297.26947   -747.54541    140074.46   -40929.988    4082.2804   -45012.269    464.27124   0.98409458 
   39500    295.64965   -468.92273    140495.22   -40846.381     4060.036   -44906.417    466.63549   0.98114736 
   39600    297.09832   -407.04816    140656.89   -40795.602    4079.9299   -44875.532    468.10175   0.98001962 
   39700    290.69903   -335.83664    140675.75   -40902.638    3992.0511    -44894.69    469.33885   0.97988824 
   39800    292.02999   -333.40358    140152.37   -40859.078    4010.3287   -44869.406    469.09928   0.98354751 
   39900    289.06212   -483.74674    139971.14   -41090.516    3969.5722   -45060.088    469.42579   0.98482097 
   40000    293.50644   -369.02667    140255.97   -40915.173    4030.6041   -44945.777    470.66929     0.982821 
   40100    294.33776   -312.44262    140032.74   -40930.513    4042.0204   -44972.533    470.79245   0.98438777 
   40200    301.33791   -223.26834    140215.72   -40848.766    4138.1506   -44986.916    470.95394   0.98310315 
   40300    292.28188   -469.71309    140482.31    -40888.46    4013.7878   -44902.248    472.47788   0.98123754 
   40400    297.75425   -601.58934    140563.52   -40951.546    4088.9376   -45040.484    473.47812   0.98067066 
   40500    293.33056   -541.17148    140344.34   -40994.786    4028.1889   -45022.975    473.55471   0.98220221 
   40600    292.96341    -445.9535    140143.22   -40934.375     4023.147   -44957.522    475.11296   0.98361176 
   40700    293.21111   -606.84764    140400.84   -40952.275    4026.5485   -44978.824    477.15587   0.98180689 
   40800    295.64711    -521.0612    140171.85   -40953.806    4060.0011   -45013.807     477.5654   0.98341085 
   40900    294.87711   -340.40647    140496.81   -41013.121     4049.427   -45062.548    479.90857   0.98113626 
   41000    289.20315   -310.00678    140411.48   -41010.831    3971.5088    -44982.34    480.59756   0.98173254 
   41100    290.48815   -479.27348    140358.35   -40971.693    3989.1552   -44960.848    480.98972   0.98210411 
   41200    297.83387   -401.46584    140511.39   -40854.447     4090.031   -44944.478    482.35742   0.98103447 
   41300    291.99395   -625.99084    139848.62   -41019.411    4009.8338   -45029.245    482.05905   0.98568378 
   41400    292.23139   -288.09622    139865.91   -40990.896    4013.0945    -45003.99    483.61347   0.98556192 
   41500    294.35653   -398.38622     139877.8   -40990.192    4042.2781    -45032.47    484.31906   0.98547817 
   41600    294.02353   -494.53017       139883   -40894.008    4037.7052   -44931.713    485.97469   0.98544149 
   41700    290.03777    -595.9483    140074.76   -41038.399    3982.9703    -45021.37    487.24277   0.98409249 
   41800    294.17972   -351.02831    139847.77   -40963.136    4039.8501   -45002.986    487.41844   0.98568979 
   41900    294.16431   -621.05168    140303.21   -40923.087    4039.6384   -44962.726    488.54951   0.98249013 
   42000    293.51514   -610.52854    140754.56   -40903.139    4030.7237   -44933.863    490.38877    0.9793396 
   42100    293.10808   -558.23578     140543.2   -40913.442    4025.1337   -44938.576    491.34775   0.98081244 
   42200    298.34893   -610.45802    140494.52   -40877.487     4097.104   -44974.591    493.31174   0.98115225 
   42300    292.88312   -470.21197    140657.58   -40973.484    4022.0444   -44995.528    494.36679   0.98001485 
   42400    297.00294   -349.97771    140999.05   -40952.724    4078.6202   -45031.345    496.87254   0.97764144 
   42500    296.84178   -633.58118    140921.95   -40995.348    4076.4071   -45071.756    497.95717   0.97817634 
   42600    291.70296   -782.05488    141076.54   -41061.228    4005.8377   -45067.066    499.67632   0.97710446 
   42700    290.55253   -559.31634    140911.51   -41112.352    3990.0394   -45102.392    500.15285   0.97824883 
   42800    283.08477   -271.51965    140457.43   -41170.745    3887.4877   -45058.232    500.63789   0.98141136 
   42900    296.37386   -620.84878     140694.4   -41093.993    4069.9813   -45163.974    501.63147   0.97975836 
   43000    291.42853   -432.72649    140732.08   -41038.879    4002.0691   -45040.948    502.58112   0.97949606 
   43100    296.99882   -725.00092    140741.41   -41013.534    4078.5636   -45092.097    503.47578   0.97943113 
   43200    291.14003   -577.45193    140359.83    -41024.49    3998.1072   -45022.597    503.77603   0.98209377 
   43300    292.11998   -535.82507    140343.44   -41063.399    4011.5644   -45074.963    504.98749   0.98220851 
   43400    286.63818   -494.85352    140349.27   -41078.745    3936.2851    -45015.03    506.18266    0.9821677 
   43500     296.5097   -550.27439    140609.26   -40968.436    4071.8467   -45040.283    508.64052   0.98035163 
   43600    291.04683   -836.47374    140297.31   -41025.287    3996.8274   -45022.114    507.70897   0.98253143 
   43700    292.37723    -549.7853    140169.25   -40992.573    4015.0971    -45007.67    507.91941   0.98342908 
   43800    294.44292    -571.0312    140391.88   -40878.501    4043.4644   -44921.966    509.51248   0.98186958 
   43900    290.56291   -553.89378    140543.74   -40992.839    3990.1818   -44983.021    510.95503   0.98080867 
   44000    292.20421   -516.16195    140307.15   -40956.333    4012.7211   -44969.054    512.06885   0.98246252 
   44100    291.98818   -466.52291     140258.6   -40887.329    4009.7545   -44897.084     513.4987   0.98280257 
   44200     294.3577   -650.34592    140223.35    -40922.21    4042.2941   -44964.504    515.24295   0.98304965 
   44300    286.79591   -600.73224    140220.18   -41049.139    3938.4511    -44987.59    516.95031   0.98307186 
   44400    290.89657   -547.35908    140296.46   -41004.088    3994.7639   -44998.852    517.87385   0.98253742 
   44500    291.75623   -513.68783     140132.6   -41010.608    4006.5692   -45017.178    518.34409   0.98368626 
   44600    295.51964   -549.88974    139662.86   -41030.103    4058.2506   -45088.354    519.12858   0.98699483 
   44700    295.40401   -451.20427    139861.51    -41098.97    4056.6628   -45155.633    520.42956   0.98559292 
   44800    295.85566   -298.03695    139960.27   -41042.729    4062.8651   -45105.594    522.09061   0.98489747 
   44900    290.28063   -563.26915    140224.49   -41075.307    3986.3055   -45061.613    523.08764   0.98304168 
   45000    293.61122   -240.23413    140324.92   -41085.625    4032.0431   -45117.669    524.47168   0.98233814 
   45100    294.94921   -590.43775    140629.62    -40996.36    4050.4171   -45046.777    525.99111   0.98020969 
   45200    290.42302   -437.19428    140785.24   -40972.538    3988.2608   -44960.799    528.09635   0.97912621 
   45300    289.79797   -814.07627    140324.98    -41060.72    3979.6773   -45040.398    527.58159    0.9823377 
   45400    287.35188    -646.8586     140149.1   -41075.898    3946.0861   -45021.984    528.15122   0.98357046 
   45500    295.38786   -470.94082    140286.64   -40999.785    4056.4409   -45056.226    529.78654   0.98260617 
   45600    294.76874   -625.96068    140687.51   -41057.878    4047.9388   -45105.817    531.99768   0.97980636 
   45700    298.56985   -497.91447    140597.52    -40952.21    4100.1379   -45052.348    532.63241   0.98043347 
   45800    297.75894   -284.39645    140648.51   -40964.461    4089.0019   -45053.463    533.13925   0.98007803 
   45900    298.21669   -571.47098    140808.38   -40930.945    4095.2882   -45026.233    535.43687   0.97896528 
   46000    295.65242      -542.22    140727.78    -41010.12     4060.074   -45070.194    535.79526   0.97952599 
   46100    294.36251   -660.93428    140308.65   -41017.882    4042.3602   -45060.243    534.90573   0.98245202 
   46200    290.96375   -391.95638    140054.32   -41030.358    3995.6864   -45026.045    534.79528   0.98423606 
   46300     287.7041   -401.56783    139746.45   -41030.949     3950.923   -44981.872    534.71586   0.98640444 
   46400    293.53484    -378.7699    140022.58   -40994.114    4030.9942   -45025.108    536.44853   0.98445916 
   46500     295.0577    -583.3162    139952.19   -40920.213     4051.907    -44972.12    536.69378   0.98495435 
   46600    294.34992   -304.78071    140084.91   -40843.317    4042.1874   -44885.505    538.13651   0.98402117 
   46700    298.41318   -676.00096    140200.65   -40821.473    4097.9865    -44919.46    539.17821   0.98320882 
   46800    296.38021   -385.87539    139996.08   -40794.884    4070.0684   -44864.953     539.7219   0.98464557 
   46900     294.8248   -404.27006    139870.55   -40810.698    4048.7086   -44859.407    540.26956   0.98552927 
   47000    293.55125   -448.34921    139959.52   -40832.582    4031.2196   -44863.802    541.74976   0.98490275 
   47100    299.40444   -581.98172    139510.98    -40837.22     4111.599   -44948.819    541.58063    0.9880693 
   47200    294.47483   -430.92482    139786.94   -40879.801    4043.9027   -44923.703    544.13764   0.98611871 
   47300    296.44752   -510.91073    140045.94   -40855.051    4070.9928   -44926.043    546.36756   0.98429498 
   47400    297.27387   -453.77767    140297.75   -40829.692    4082.3408   -44912.033    548.92159   0.98252836 
   47500    292.42461   -421.31913    140195.72   -40900.485    4015.7478   -44916.233    550.07794   0.98324339 
   47600    299.32143    -379.5021    140329.36    -40830.15     4110.459   -44940.609    552.08878   0.98230706 
   47700    292.20113    -661.0416    140474.04   -40926.541    4012.6789    -44939.22    553.82291   0.98129531 
   47800    292.73119   -707.21909    139959.04   -40984.054     4019.958   -45004.012    552.78179   0.98490613 
   47900    290.07785   -579.06879    140068.51   -40957.954    3983.5208   -44941.474    555.43196   0.98413637 
   48000    291.23441    -572.9526    139610.26   -41006.008    3999.4032   -45005.412    554.63276   0.98736663 
   48100    289.43705    -625.8107    139484.73   -41025.944    3974.7208   -45000.665    555.01641   0.98825524 
   48200    296.28596    -422.2496    139433.26   -40987.779    4068.7741   -45056.553    555.80487   0.98862003 
   48300    296.61614   -492.13367    139756.36   -40975.393    4073.3084   -45048.701    558.41364   0.98633445 
   48400    295.60389   -559.41207     139678.2   -40947.025    4059.4075   -45006.432    558.57344   0.98688638 
   48500    295.09317   -390.83014    139680.89     -41073.4     4052.394   -45125.794     560.2836    0.9868674 
   48600    292.41499   -289.98446     139821.4   -41037.952    4015.6157   -45053.568     561.1065   0.98587564 
   48700    283.44082   -284.26753    140046.53   -41120.045    3892.3771   -45012.422    563.22341   0.98429084 
   48800    295.49036   -557.08286    140360.51   -41064.896    4057.8485   -45122.744    565.19629   0.98208902 
   48900    294.24744   -552.50724     140109.7   -41032.616      4040.78   -45073.396      565.952   0.98384705 
   49000    294.97504   -549.58827    140151.62   -40964.224    4050.7719   -45014.995    567.27568   0.98355282 
   49100    289.17335   -438.93918    140112.71   -41019.685    3971.0996   -44990.784    568.40376    0.9838259 
   49200    294.40554   -663.73342    139631.36   -41106.004    4042.9512   -45148.955    569.74032   0.98721749 
   49300    300.52638   -773.08733    139398.71   -41075.298    4127.0061   -45202.305    570.22265    0.9888651 
   49400    289.79267   -37.253726     139494.3   -41075.867    3979.6045   -45055.472    572.79163   0.98818743 
   49500    290.31231   -539.45168    139810.88   -41042.844    3986.7405   -45029.585    574.84529   0.98594988 
   49600    294.18785   -421.76448    140055.18   -41003.513    4039.9617   -45043.474     576.5416   0.98423002 
   49700    294.36761   -574.77777    140015.32   -40965.485    4042.4302   -45007.915    578.42469   0.98451021 
   49800    295.17998   -495.88403    140121.69   -40919.569    4053.5861   -44973.155     580.0269   0.98376288 
   49900    292.18752   -638.37758    140204.35   -41017.698     4012.492    -45030.19    580.29761   0.98318288 
   50000    288.74101   -184.10759    140279.99   -41055.537    3965.1624     -45020.7     581.8175   0.98265273 
   50100    292.85555   -702.56906    140506.77   -41034.515    4021.6657   -45056.181    584.12457   0.98106674 
   50200    294.29869    -401.9579    140348.14   -40989.269    4041.4838   -45030.752    585.03696   0.98217558 
   50300    292.22706   -380.05406     140239.2   -40956.772     4013.035   -44969.807    584.61498   0.98293855 
   50400    292.57524   -449.79966    140616.79   -41017.819    4017.8164   -45035.636    586.36101   0.98029914 
   50500    288.82256   -494.20109    141020.01    -41025.02    3966.2824   -44991.302    588.24379   0.97749616 
   50600    288.85505   -354.17494    140868.05   -41063.925    3966.7285   -45030.654    589.51465   0.97855064 
   50700    294.96859   -539.19575    140707.13   -40915.914    4050.6833   -44966.597    590.01394   0.97966975 
   50800    294.41967   -513.98056    140531.28   -40871.468    4043.1451   -44914.613    590.79174    0.9808956 
   50900    297.90135   -346.10962    140492.53   -40929.533    4090.9576   -45020.491     592.1294   0.98116617 
   51000    295.31741   -497.16461    140582.11   -40986.274    4055.4735   -45041.747    594.04059   0.98054093 
   51100    299.72273   -556.10948    140714.27   -40925.967    4115.9699   -45041.937    596.00612   0.97962002 
   51200    295.72353   -636.06832     140509.7   -40866.483    4061.0505   -44927.533    596.76185   0.98104624 
   51300    298.64283   -640.68887    140523.84   -40861.539    4101.1401   -44962.679    598.68024   0.98094757 
   51400    289.39117   -458.10628    140397.04   -41022.212    3974.0909   -44996.303    598.94324    0.9818335 
   51500    288.59575   -429.26137    140617.45   -41070.181    3963.1677   -45033.349    600.83948   0.98029452 
   51600    294.36679   -398.74302    140859.73   -41031.059     4042.419   -45073.478    602.46723   0.97860844 
   51700    290.16395   -494.80087     140775.3    -41015.39    3984.7031   -45000.093    602.83032   0.97919532 
   51800    289.64167   -132.82607    140663.75   -41074.104    3977.5309   -45051.634    602.60087   0.97997185 
   51900    285.57677   -574.72372    140591.58   -41106.263    3921.7092   -45027.972    603.13277    0.9804749 
   52000    288.98952   -429.81354    140581.35   -41035.287    3968.5752   -45003.862    605.47287   0.98054623 
   52100    294.09723   -534.19074    140660.58   -41028.801    4038.7172   -45067.518    606.44643   0.97999394 
   52200    288.26928   -660.73538    140312.19   -41038.314    3958.6844   -44996.998    605.34203   0.98242723 
   52300     295.8732   -404.96063    140367.93   -40980.286     4063.106   -45043.392    606.63985   0.98203709 
   52400    298.62247   -699.52988    139914.23   -40885.065    4100.8605   -44985.925    606.34229   0.98522158 
   52500    296.65264   -341.14963    140033.37   -40909.105    4073.8096   -44982.915    608.28775   0.98438331 
   52600    293.48583   -580.58301    140272.27   -41055.265    4030.3211   -45085.586    610.98284    0.9827068 
   52700    290.87708   -758.34494     140087.7   -41043.377    3994.4962   -45037.873    612.10809    0.9840016 
   52800    289.54221   -390.18971    140225.86   -41048.619    3976.1651   -45024.784    614.68664   0.98303208 
   52900    292.17974   -706.14124    140277.08   -41142.166    4012.3851   -45154.551    615.64343   0.98267316 
   53000    289.07042   -608.18184    140117.77   -41226.417    3969.6861   -45196.103    616.16179   0.98379039 
   53100    286.60018   -452.18471    140238.94   -41241.316    3935.7633    -45177.08    617.34614   0.98294036 
   53200    288.38813   -517.91801    140300.32   -41059.763    3960.3165    -45020.08    618.40855   0.98251036 
   53300    284.85506   -294.99904    140390.24   -41030.088    3911.7984   -44941.887    619.89019   0.98188106 
   53400     295.8849   -393.05574    140448.73   -40881.265    4063.2666   -44944.531      621.736   0.98147218 
   53500    295.84232   -763.77304    140740.58   -40896.868    4062.6818    -44959.55    623.03383   0.97943691 
   53600    295.10906   -570.31178    140958.55   -40896.393    4052.6123   -44949.005       624.97   0.97792238 
   53700    291.33869   -350.63089    140715.38   -40933.884    4000.8353    -44934.72    626.26598   0.97961232 
   53800    289.96529   -483.69141    140720.22     -41033.3    3981.9749   -45015.274    626.88473   0.97957859 
   53900     289.4785   -552.78841    140843.89   -41029.873    3975.2902   -45005.163    628.84555   0.97871848 
   54000    292.03036   -632.80273    140771.87   -41012.565    4010.3337   -45022.898     629.2018   0.97921919 
   54100    297.26276   -287.69711    140826.39    -40985.01    4082.1882   -45067.199    630.92485   0.97884011 
   54200    292.02043   -457.39098    140970.11   -41005.457    4010.1974   -45015.654    632.40835   0.97784218 
   54300     298.5972   -413.30594    141111.92   -40930.558    4100.5135   -45031.072    633.87383   0.97685946 
   54400    293.47804   -500.67559    140947.64   -41050.072    4030.2141   -45080.286    634.30914   0.97799802 
   54500     289.7371   -671.28521    140769.92   -41000.596    3978.8413   -44979.438    634.82667   0.97923277 
   54600    294.07029   -682.07397    140557.55   -41013.447    4038.3472   -45051.795    634.77192    0.9807123 
   54700    288.08649   -539.87772    140320.04   -41034.247    3956.1742   -44990.421    634.82413   0.98237228 
   54800    298.76096   -453.20178    140288.39   -41027.853    4102.7624   -45130.615    635.79026   0.98259393 
   54900    294.47581   -308.74844    140005.17   -40978.991    4043.9162   -45022.907    636.18151   0.98458163 
   55000    296.61528    -509.0038    140086.13   -40924.127    4073.2965   -44997.423    637.53979    0.9840126 
   55100    300.74377    -480.8511    140278.38   -40910.594    4129.9915   -45040.586    640.31867   0.98266404 
   55200    288.44992   -576.30364    140311.38   -40951.749    3961.1651   -44912.914     642.0294   0.98243287 
   55300    290.44079   -595.50964    140107.47    -40927.43    3988.5048   -44915.934    642.26865    0.9838627 
   55400    298.42439   -469.10809    139988.35    -40845.49    4098.1404    -44943.63    642.96431   0.98469993 
   55500    293.68264   -380.52035    140095.42   -40874.216    4033.0238    -44907.24     644.8496   0.98394737 
   55600    294.34169   -428.82243    140071.74   -40822.519    4042.0743   -44864.593    645.70083   0.98411369 
   55700    297.65788   -384.83194    140108.31   -40865.074    4087.6142   -44952.689     647.1856   0.98385683 
   55800    291.27707   -907.66947    140293.41    -40993.26    3999.9892   -44993.249     648.5553   0.98255873 
   55900    286.62223   -324.63224    139968.06   -41100.972    3936.0661   -45037.038    649.53389   0.98484268 
   56000    285.64443   -304.27925    139809.03   -41166.193    3922.6383   -45088.831    649.37285   0.98596289 
   56100    291.34242   -343.30722    140075.67   -41049.321    4000.8866   -45050.208    651.55906    0.9840861 
   56200    291.73091   -712.73372    139927.21   -41064.554    4006.2215   -45070.775    652.58186   0.98513016 
   56300    298.59687   -824.12541    139697.53   -40986.681    4100.5089    -45087.19    652.44982   0.98674985 
   56400    301.18283   -364.80234    139987.46   -40905.737    4136.0208   -45041.758    655.00172   0.98470621 
   56500    292.92151   -375.23056    139746.39   -40933.445    4022.5715   -44956.016    655.39315   0.98640487 
   56600    299.29875   -669.74353    140025.49   -40845.612    4110.1476   -44955.759     658.1432   0.98443877 
   56700    299.09154   -693.37679    140012.73     -40875.3     4107.302   -44982.602    659.81972   0.98452843 
   56800    296.07715   -417.51951    140133.19   -40870.599    4065.9066   -44936.505     661.9353   0.98368217 
   56900    291.74987   -389.46995    140011.21   -40940.799    4006.4819   -44947.281    663.02596   0.98453912 
   57000    291.45109   -552.25622    140075.83    -40970.57    4002.3788   -44972.949    664.00414   0.98408496 
   57100    286.52976   -550.23212    140097.04   -41048.477    3934.7963   -44983.273     665.6684     0.983936 
   57200       288.56   -494.08312    139986.19   -41121.584    3962.6768   -45084.261    665.88862   0.98471514 
   57300    290.61847   -449.99517    139985.81   -41125.603    3990.9448   -45116.548    667.00936   0.98471779 
   57400     291.8565   -429.17047    140029.57    -41144.27    4007.9462   -45152.216    669.28742   0.98441008 
   57500    292.62954   -456.92592    140117.08   -41066.507    4018.5621   -45085.069    671.10708   0.98379523 
   57600    289.22515   -568.52548    140131.23   -41122.895     3971.811   -45094.706    672.09562   0.98369588 
   57700    291.57936   -386.84223    139978.95   -41109.615    4004.1404   -45113.755    673.10977   0.98476605 
   57800    288.87788   -606.34454    140519.59   -40963.821    3967.0421   -44930.863    675.30578    0.9809772 
   57900    285.89162   -661.11889    140595.56   -41045.283    3926.0329   -44971.316    677.62144   0.98044716 
   58000    296.14416   -432.75664    140048.73     -41037.8    4066.8269   -45104.627    676.53949   0.98427538 
   58100    295.26778   -528.00406    139942.26   -40928.828    4054.7919    -44983.62    676.69841    0.9850242 
   58200    288.68669   -406.17879    139936.14   -41025.248    3964.4166   -44989.664    676.31282   0.98506734 
   58300    293.51564   -393.38329    140277.03   -41041.614    4030.7305   -45072.344    678.58328   0.98267344 
   58400    292.48325   -235.88803    140416.06   -40988.139    4016.5532   -45004.692    680.37435   0.98170047 
   58500    299.81251   -478.43367     140627.9   -40867.591    4117.2028   -44984.793    682.00322   0.98022168 
   58600    289.97773   -376.13074    140628.33   -40961.685    3982.1458   -44943.831    684.33258    0.9802187 
   58700    293.53663   -665.59042    140252.08   -40916.718    4031.0188   -44947.737    684.26883    0.9828483 
   58800    293.72392   -593.55213    140093.32   -40907.548    4033.5907   -44941.139    686.27783   0.98396213 
   58900    292.62822   -501.63997    140124.25    -40881.93    4018.5439   -44900.474    688.18654   0.98374488 
   59000    292.74094   -745.19656    140070.93   -40955.118    4020.0918    -44975.21    689.95266   0.98411936 
   59100    294.93587   -661.47643    139773.95   -40963.581     4050.234   -45013.815    689.81646   0.98621032 
   59200     292.5593   -811.20343    139596.55   -41023.023    4017.5974   -45040.621     690.3899   0.98746364 
   59300    298.96846   -420.52762    139376.38   -41025.664    4105.6119   -45131.275    691.69211    0.9890235 
   59400    292.53305   -457.14249    139578.51   -40965.623     4017.237    -44982.86    694.15577   0.98759128 
   59500      292.256   -245.00658    139660.69   -40957.033    4013.4324   -44970.466    695.56762   0.98701012 
   59600    295.85605   -407.31428    140066.46   -40864.195    4062.8705   -44927.065    698.30996   0.98415079 
   59700    293.11709   -448.66043    140501.19   -40902.008    4025.2574   -44927.266    701.77498   0.98110566 
   59800    290.34087   -671.02409    140489.05    -40897.53    3987.1327   -44884.663    703.25602   0.98119045 
   59900    295.09011   -739.17651    140622.78   -40902.738     4052.352    -44955.09    705.53344   0.98025739 
   60000     295.6747    -501.6318    140783.06   -40909.669      4060.38   -44970.049    706.61407   0.97914135 
   60100    292.77783   -542.16658    140864.62   -40902.828    4020.5985   -44923.426    708.13011   0.97857444 
   60200    291.42683   -593.73558    140846.87   -40985.485    4002.0457    -44987.53    708.72904   0.97869773 
   60300    294.36923   -475.47949    140529.04   -40944.328    4042.4525    -44986.78    709.58561   0.98091126 
   60400    294.24199   -536.12768    140289.38   -40946.661    4040.7051   -44987.366    710.38863   0.98258698 
   60500    286.85747   -440.19258    140348.47   -41036.108    3939.2965   -44975.405    712.15288   0.98217331 
   60600    289.67409   -756.23822    140031.21   -40948.769    3977.9761   -44926.745    711.77472   0.98439852 
   60700    290.40694   -335.91405     139857.2   -40967.881    3988.0399   -44955.921     712.0469   0.98562334 
   60800    294.10971   -794.94495    139760.98   -40961.299    4038.8886   -45000.188    712.09537   0.98630185 
   60900    298.42136   -494.17212    139517.18   -40881.998    4098.0987   -44980.097    712.50123    0.9880254 
   61000    294.47888   -393.64588    139628.54   -40848.259    4043.9583   -44892.217    715.11672   0.98723742 
   61100    299.30642   -363.46342    139817.41   -40780.699    4110.2529   -44890.952    716.76342   0.98590384 
   61200    294.82341   -752.63799    139670.02    -40862.15    4048.6895   -44910.839    717.68867   0.98694422 
   61300     293.8224    -325.5823    139674.68   -40800.066    4034.9431   -44835.009    719.54869   0.98691126 
   61400    296.13024   -313.64421    139854.78   -40688.731    4066.6357   -44755.367    720.89487   0.98564038 
   61500    299.80904   -612.94031    139830.65   -40700.749    4117.1552   -44817.904    722.25969   0.98581047 
   61600    295.49301   -296.90554    139741.13   -40854.007    4057.8849   -44911.892    722.14229   0.98644199 
   61700    295.21335   -381.15716    139725.34   -40885.668    4054.0445   -44939.712    723.15776   0.98655343 
   61800     296.8213   -209.51188    139962.05   -40889.822    4076.1258   -44965.948     724.2341   0.98488495 
   61900     293.6704   -234.42746    140295.36   -40860.799    4032.8557   -44893.655     727.7061   0.98254509 
   62000    291.17522   -521.31202    140407.32   -40926.859    3998.5905    -44925.45    728.89515   0.98176161 
   62100    290.62776   -387.75037    140559.55   -40911.632    3991.0725   -44902.704    730.44749   0.98069831 
   62200    297.82605   -523.92288    140585.16   -40965.164    4089.9236   -45055.087    731.00977   0.98051968 
   62300    297.17063   -430.77614    140813.95   -40969.064     4080.923   -45049.987    733.26883   0.97892659 
   62400    293.68677   -447.59786    140840.35   -41041.915    4033.0806   -45074.996    733.95138    0.9787431 
   62500    295.71021   -630.67298    140854.47   -41011.198    4060.8676   -45072.066    734.13283   0.97864499 
   62600    297.85325   -405.33989    140344.96   -40974.934    4090.2971   -45065.231    733.27534   0.98219787 
   62700    290.07203   -449.48706    140364.93    -41016.21    3983.4408   -44999.651    734.56635   0.98205807 
   62800     293.2466   -522.41597    140665.43   -41030.921    4027.0359   -45057.957    736.91131   0.97996014 
   62900    293.56419   -562.29746    140658.68   -40983.586    4031.3973   -45014.984    738.49852   0.98000721 
   63000    289.62376    -517.1525    140501.03   -40964.133    3977.2849   -44941.418    739.56756   0.98110681 
   63100    295.67105   -391.47521    140422.95   -40939.431    4060.3298   -44999.761    740.72654   0.98165234 
   63200    291.05578   -701.26815    140380.43   -40979.892    3996.9503   -44976.842    741.75929   0.98194969 
   63300     280.3802   -551.46221    140066.02   -41076.547    3850.3468   -44926.893    741.36283   0.98415385 
   63400    289.95806    -336.7829     140038.3   -41108.977    3981.8757   -45090.853    742.57088   0.98434867 
   63500    293.26082   -547.62208    140285.93   -40976.259    4027.2311    -45003.49    745.42784   0.98261111 
   63600    297.37008   -384.26454    140259.79   -40958.575    4083.6619   -45042.237    747.06544   0.98279429 
   63700    289.33046   -545.76552    140253.44   -41041.416    3973.2572   -45014.673    749.21669   0.98283879 
   63800    293.51096   -449.23582    140036.28   -41061.731    4030.6662   -45092.397    749.83129   0.98436285 
   63900    293.35116   -337.68556    140066.97   -41002.127    4028.4717   -45030.599    751.17244   0.98414721 
   64000    291.71632   -515.41183    140494.54    -41108.31    4006.0212   -45114.331    754.13233   0.98115215 
   64100    292.40213   -446.55989    140503.31   -41067.274    4015.4391   -45082.713    755.70881   0.98109087 
   64200    292.27818    -550.5141    140536.15   -41090.308    4013.7369   -45104.045    757.72606   0.98086165 
   64300    289.78133   -464.77277     140597.6   -41093.151    3979.4488     -45072.6    759.97224   0.98043291 
   64400    285.58689    -561.9812    140564.55   -41114.173    3921.8482   -45036.021     760.5163   0.98066348 
   64500    288.09735   -513.73003    140351.12   -41124.189    3956.3234   -45080.513    760.85803   0.98215472 
   64600    288.73006   -574.08989    140325.89   -41068.788    3965.0121     -45033.8    761.90367   0.98233132 
   64700    291.79204   -398.73712    140425.19   -40951.522    4007.0611   -44958.583    762.58392   0.98163668 
   64800    295.90586   -572.44206    140284.69   -40844.715    4063.5545   -44908.269    763.06643   0.98261985 
   64900    297.74922   -209.04236     140600.4    -40843.77    4088.8686   -44932.639     765.4427   0.98041339 
   65000    297.97584   -411.51111     140553.1   -40919.838    4091.9806   -45011.818    764.41994   0.98074332 
   65100    290.62468   -576.81999    140327.24   -41051.421    3991.0301   -45042.451    764.16058   0.98232186 
   65200    293.64249   -362.11122    140602.22    -40993.88    4032.4725   -45026.352    765.36211   0.98040074 
   65300     288.1883   -759.80725    140537.73   -40991.554    3957.5723   -44949.126    766.24787   0.98085062 
   65400    285.48991   -775.44058    140284.97    -41073.27    3920.5164   -44993.786    765.36918   0.98261788 
   65500    293.00111   -592.08855    139997.94   -40995.528    4023.6647   -45019.193    767.08258    0.9846325 
   65600    290.13252   -456.77652    140054.43   -40871.594    3984.2715   -44855.865    768.50474    0.9842353 
   65700    297.62542   -467.05642    139830.13    -40881.52    4087.1684   -44968.689    768.31151   0.98581414 
   65800    291.88126   -396.63128    139972.64   -40976.536    4008.2862   -44984.822    769.45696   0.98481047 
   65900    295.51861   -456.71714    140181.62   -40994.748    4058.2364   -45052.984    771.10968   0.98334233 
   66000    293.14135   -511.09096    140247.78   -41054.754    4025.5905   -45080.345     772.7552   0.98287841 
   66100    294.29079    -579.8683    140077.63   -41010.534    4041.3753   -45051.909    774.11857    0.9840723 
   66200    295.92386   -448.04628    140195.01   -40932.931    4063.8017   -44996.732      776.816   0.98324839 
[...]
   84600    285.64847   -403.53323    140634.66   -41055.685    3922.6939   -44978.379    1001.0909   0.98017458 
   84700    288.97983   -366.35738     140205.8     -41096.7    3968.4421   -45065.142    1000.7157   0.98317272 
   84800    291.85584   -732.05146    139993.48   -41047.461    4007.9372   -45055.399    1000.0989   0.98466385 
   84900    296.08406   -517.33375    139814.02       -41040    4066.0015   -45106.002     999.9838   0.98592771 
   85000    295.46506   -489.32892    139679.81   -41027.638    4057.5011   -45085.139    1000.3543   0.98687501 
   85100    293.10922   -332.55682    139938.54   -40992.582    4025.1492   -45017.731    1003.5377   0.98505042 
   85200     292.8552   -428.94502    140651.62   -40936.704    4021.6609   -44958.365    1007.6494   0.98005636 
   85300    292.86337   -479.16251    140499.32   -40927.536    4021.7732   -44949.309     1007.195   0.98111876 
   85400    295.44954   -628.59376    140479.04   -40956.372    4057.2879    -45013.66    1007.6743    0.9812604 
   85500    292.93069   -554.30413    140061.56   -40950.495    4022.6976   -44973.193    1006.5656   0.98418519 
   85600    295.99753   -302.20087    139923.94   -40990.919    4064.8133   -45055.732    1007.0437   0.98515318 
   85700    292.63606   -655.62095    139923.91   -40985.213    4018.6516   -45003.865    1006.5351    0.9851534 
   85800    293.67222   -592.83314    139795.28   -40974.833    4032.8808   -45007.713    1006.7555   0.98605987 
   85900    298.04797   -249.94119    140127.42   -41004.026    4092.9711   -45096.997    1009.2412   0.98372266 
   86000    296.50844   -300.01906    140411.25   -41051.084    4071.8293   -45122.913    1010.8554   0.98173412 
   86100    293.81185   -447.60607    140381.85   -41055.873    4034.7982   -45090.671    1011.5031   0.98193973 
   86200      291.839   -572.06555    140298.71   -41005.209    4007.7059   -45012.915    1012.0921   0.98252159 
   86300     295.2498   -451.77785    140481.26   -41056.568     4054.545   -45111.113    1013.4647    0.9812449 
   86400     288.3704   -459.15125    140754.99   -41028.271     3960.073   -44988.345    1015.0618   0.97933661 
   86500    297.55956   -404.06444    140466.24   -40947.083     4086.264   -45033.347    1014.3362   0.98134983 
   86600    292.41075   -221.51668    140607.89   -40990.288    4015.5574   -45005.846    1015.8715   0.98036118 
   86700    292.89337   -626.83766    140717.52   -40995.443    4022.1852   -45017.629    1018.4049   0.97959738 
   86800    290.37874   -714.26827    140566.55   -40953.708    3987.6527    -44941.36    1019.3913   0.98064951 
   86900    293.29232   -623.97085    140582.49   -40978.224    4027.6638   -45005.888     1020.921   0.98053829 
   87000     288.1914   -724.52627    140318.96   -40994.285    3957.6148     -44951.9    1021.3851   0.98237983 
   87100    293.10761   -594.51088    140120.01    -41003.42    4025.1272   -45028.547    1022.0315   0.98377464 
   87200    291.63912   -570.67142    140189.63   -41001.218     4004.961   -45006.179    1024.0731   0.98328611 
   87300     299.1777   -583.36572    140145.67   -40870.746    4108.4852   -44979.232    1025.5011   0.98359457 
   87400    294.86893   -446.47188    140113.61   -40979.076    4049.3146   -45028.391    1026.7119   0.98381964 
   87500    290.08682    -615.8968     139952.2   -41032.564    3983.6439   -45016.208    1027.2704   0.98495429 
   87600    293.73322   -492.97068    139862.79   -41033.438    4033.7185   -45067.156    1029.3106   0.98558394 
   87700    294.66433   -706.65362    140197.69   -40981.963    4046.5049   -45028.468    1031.7836   0.98322957 
   87800    294.50704   -522.75827    140120.84   -40863.526    4044.3449   -44907.871    1031.8845   0.98376881 
   87900    297.88706   -524.70543    140086.23    -40863.74    4090.7614   -44954.501    1032.1832   0.98401189 
   88000    296.13991   -285.37359    140169.69   -40926.673    4066.7685   -44993.442    1033.7836   0.98342602 
   88100    294.39441   -567.60933       140366   -40934.566    4042.7982   -44977.364    1034.4728   0.98205064 
   88200    295.30039   -488.99426    140355.55   -40898.621    4055.2397   -44953.861    1036.6146   0.98212377 
   88300    292.23153   -716.40567    140140.18   -40942.365    4013.0964   -44955.462    1036.6983   0.98363311 
   88400    294.41413   -839.67967    139974.79   -41011.376    4043.0691   -45054.445    1037.0584   0.98479529 
   88500    292.53574    -697.3269    139786.14   -41046.226     4017.274     -45063.5    1037.4349   0.98612432 
   88600    287.12242   -166.21412    140019.27   -40994.535     3942.935    -44937.47    1039.9359   0.98448245 
   88700    292.81834   -438.61743    139851.06   -40993.985    4021.1548   -45015.139    1040.0431   0.98566657 
   88800     292.6993   -548.54475    140136.88   -40954.656      4019.52   -44974.176     1042.309   0.98365621 
   88900    289.06377   -782.86803    140046.06    -41013.86    3969.5948   -44983.455    1042.2203   0.98429418 
   89000    291.13022   -352.12363     139851.4    -40950.28    3997.9726   -44948.253    1042.2033   0.98566421 
   89100    293.79789   -494.38562    139671.34   -40900.619    4034.6066   -44935.225    1041.4577   0.98693491 
   89200    294.20824   -546.33218    140029.02   -41019.332    4040.2416   -45059.573    1043.8449   0.98441392 
   89300    291.46362   -345.57353    140328.95   -41015.554    4002.5509   -45018.104    1044.5709   0.98230988 
   89400    294.86653   -335.85097    140440.04   -40959.837    4049.2818   -45009.119    1045.0333   0.98153288 
   89500    297.03122   -507.89504    140129.51   -41028.756    4079.0085   -45107.765    1045.2971   0.98370796 
   89600    292.62309   -617.32017    140321.42   -40962.842    4018.4735   -44981.316    1047.0213   0.98236264 
   89700    291.39408   -492.39196    140128.55    -40940.95    4001.5959   -44942.546    1048.3736    0.9837147 
   89800    291.66396   -599.01774     140191.9   -40937.964    4005.3021   -44943.266    1051.0482   0.98327018 
   89900    297.95862   -652.99165    140388.54    -40968.83    4091.7442   -45060.574    1052.5826   0.98189292 
   90000    293.27144   -805.62557    140557.63   -40916.671     4027.377   -44944.048    1055.0351   0.98071175 
   90100    297.84344   -627.33592    140577.16   -40900.565    4090.1624   -44990.727    1055.5615    0.9805755 
   90200    288.50201   -380.52455    140320.68   -41106.017    3961.8803   -45067.897    1055.0957   0.98236781 
   90300    286.64463   -524.32046     140126.5   -41111.339    3936.3737   -45047.713    1054.0513   0.98372914 
   90400    296.74852   -593.98165    140263.57   -41017.597    4075.1264   -45092.723    1055.3653   0.98276776 
   90500    291.89673   -261.62583    140382.44   -40965.749    4008.4987   -44974.248    1058.1664   0.98193564 
   90600    295.57471   -566.89089    140376.06   -40943.526    4059.0069   -45002.533    1060.6928   0.98198027 
   90700    292.41987   -264.35414    140801.51   -40943.824    4015.6827   -44959.507    1064.5532   0.97901304 
   90800    291.13395   -397.75817    140597.04   -40949.498    3998.0238   -44947.522    1063.3248   0.98043684 
   90900    293.32712   -669.56866    140584.46    -41028.65    4028.1416   -45056.792    1063.9839   0.98052454 
   91000    291.01862   -647.13892    140510.93   -40993.597    3996.4399   -44990.037    1064.1047   0.98103767 
   91100    294.61657   -454.76678    140446.57   -40927.317    4045.8492   -44973.166    1065.2846   0.98148725 
   91200    290.59243    -473.6685    140489.84   -40945.182    3990.5873   -44935.769    1065.9497   0.98118492 
   91300    287.86477   -555.87311    140159.47   -40981.586    3953.1294   -44934.715    1064.3181   0.98349769 
   91400    294.27385   -479.48004    140365.75   -40985.032    4041.1427   -45026.175    1067.0271   0.98205236 
   91500    289.80315   -602.31976    140636.15   -41022.031    3979.7484    -45001.78    1069.8552   0.98016416 
   91600    290.75847   -692.70721    140756.73   -40982.999    3992.8674   -44975.866    1073.1933   0.97932452 
   91700    286.24232     -566.326    140436.31   -41079.609    3930.8489   -45010.458    1072.8957   0.98155897 
   91800    287.59643   -652.60003    140147.13   -41144.781    3949.4444   -45094.225    1073.8576   0.98358429 
   91900    291.81107   -470.34582    140142.17    -41066.86    4007.3223   -45074.183    1074.5077    0.9836191 
   92000     293.2904   -442.71341    140211.25   -40966.954    4027.6373   -44994.591     1076.188   0.98313451 
   92100    298.98439    -394.0121    139939.76   -40932.597    4105.8306   -45038.428    1075.6213   0.98504181 
   92200    291.42703   -580.85935    140208.75   -40902.126    4002.0485   -44904.175    1078.8696   0.98315206 
   92300    296.32489   -448.48812     140104.7   -40926.212    4069.3088   -44995.521    1078.4231   0.98388217 
   92400    292.95963   -738.40049    139963.44   -40934.876    4023.0951   -44957.972    1079.0319   0.98487515 
   92500    298.26363   -635.88117    140050.54   -40898.565    4095.9327   -44994.498    1081.7678   0.98426263 
   92600    291.16838   -405.03076    140008.27   -40908.546    3998.4965   -44907.042    1081.7122   0.98455981 
   92700    292.98893   -354.07435    139995.27   -40963.787    4023.4974   -44987.284    1083.4298   0.98465126 
   92800    291.34953   -278.94034    140070.44   -40970.481    4000.9842   -44971.465     1085.566   0.98412283 
   92900    293.51128   -616.57736    139793.91   -40922.818    4030.6707   -44953.489    1086.2476   0.98606957 
   93000    289.90634   -387.78988    140029.04    -40912.93    3981.1655   -44894.095    1089.4138    0.9844138 
   93100    297.65884   -133.13416    139918.49   -40912.097    4087.6274   -44999.724    1089.8724   0.98519155 
   93200    292.29354   -485.74942    139969.78   -40844.432    4013.9479    -44858.38    1091.2154   0.98483054 
   93300    292.44149   -494.20583    140224.95   -40774.797    4015.9796   -44790.777    1093.0645   0.98303843 
   93400    293.72142   -354.57675    140302.42   -40853.637    4033.5564   -44887.194    1096.6894   0.98249565 
   93500    300.21687   -352.11403    140310.24   -40932.104    4122.7558    -45054.86    1098.2577   0.98244089 
   93600     289.0107   -596.21629    140394.29    -40981.94    3968.8661   -44950.806    1099.3419   0.98185271 
   93700    290.89474   -609.26056    139921.92   -40985.107    3994.7387   -44979.846    1097.8541    0.9851674 
   93800    296.47377   -471.45521    139749.49   -40883.517    4071.3532   -44954.871    1096.8671   0.98638299 
   93900    291.37276    -481.8427    139651.02    -40957.34    4001.3032   -44958.643    1098.8056    0.9870785 
   94000    290.75562   -621.43808     139997.8   -41033.273    3992.8283   -45026.101    1101.3328   0.98463345 
   94100      290.362   -454.26929    139961.34   -41074.545    3987.4228   -45061.968    1102.5645   0.98488995 
   94200    291.61139   -664.47679    139984.62   -41038.274    4004.5802   -45042.854    1103.8182   0.98472619 
   94300    293.25514    -461.2337    140143.02   -40986.385    4027.1532   -45013.538    1106.4449   0.98361313 
   94400    288.52526   -496.19292     140206.6   -41023.067    3962.1996   -44985.267    1106.7903   0.98316709 
   94500    293.65608   -609.77131    139968.45   -41027.944    4032.6592   -45060.603    1106.8602   0.98483995 
   94600    289.81891   -489.15394    140014.62   -41136.834    3979.9648   -45116.799     1107.736   0.98451517 
   94700    292.76721   -316.87243    139896.29   -41014.388    4020.4527   -45034.841    1109.1883   0.98534791 
   94800    290.18665   -293.06703    140092.44   -40991.867    3985.0149   -44976.882    1111.0607    0.9839683 
   94900    290.29716   -410.27386    140203.97   -41000.737    3986.5325   -44987.269    1111.7679   0.98318555 
   95000    294.17164   -422.27104    140586.45   -40953.338     4039.739   -44993.077    1112.6573   0.98051068 
   95100     294.9299   -521.90342    140454.95   -40910.511     4050.152   -44960.663    1111.6157   0.98142865 
   95200    288.95293   -522.66764    140700.48   -40949.897    3968.0727    -44917.97    1113.3677   0.97971604 
   95300     291.8229    -358.1653    140572.22   -40978.539    4007.4848   -44986.024    1114.5108   0.98060995 
   95400    293.85807   -423.16374    140643.75   -40980.162    4035.4329   -45015.595    1115.3258   0.98011123 
   95500    293.76901   -615.42488    140598.13   -40981.334    4034.2099   -45015.544    1115.4911   0.98042925 
   95600    289.16367   -226.66554    140532.24   -41103.359    3970.9667   -45074.326    1115.4725   0.98088894 
   95700    292.71038   -571.93827     140812.1   -41052.493    4019.6722   -45072.165    1117.4201   0.97893943 
   95800    295.33199   -482.64426    140696.84   -41022.213    4055.6737   -45077.886    1118.9332    0.9797414 
   95900    293.75838   -574.46486    140632.32   -41039.944    4034.0639   -45074.008    1119.4093   0.98019087 
   96000    293.32297   -686.67512       140655   -40974.979    4028.0847   -45003.064    1120.0329    0.9800328 
   96100    300.34213   -820.21237    140775.91   -40955.784    4124.4759    -45080.26    1120.9122   0.97919106 
   96200    293.54863   -773.86523    140688.79   -40959.064    4031.1835   -44990.248    1120.4483   0.97979747 
   96300     289.6657   -309.68961    140463.38   -40963.491    3977.8609   -44941.352    1121.0412   0.98136982 
   96400    292.97002   -538.40548    140754.94   -40968.573    4023.2377   -44991.811    1123.4089   0.97933696 
   96500    289.37334   -375.11637    141130.87   -40952.936    3973.8459   -44926.782    1127.2827   0.97672828 
   96600    297.55278   -595.20228     141468.5   -40844.129    4086.1708     -44930.3    1129.4176   0.97439724 
   96700     296.9107   -478.16513    141082.75   -40821.543    4077.3535   -44898.896     1128.435   0.97706145 
   96800    298.12658   -772.32454     140880.4   -40815.527    4094.0506   -44909.578    1128.5989   0.97846485 
   96900     294.5225   -714.59188    140599.26   -40884.109    4044.5573   -44928.666    1128.2389   0.98042137 
   97000    292.81457    -572.8412    140537.34   -40873.846     4021.103   -44894.949    1128.1991   0.98085329 
   97100    297.65563   -630.73321    140540.28    -40886.82    4087.5833   -44974.404    1130.2489    0.9808328 
   97200    293.72181   -436.39375    140344.97   -40900.026    4033.5618   -44933.588    1130.6876   0.98219776 
   97300    289.61798    -590.6266    140234.15   -40935.452    3977.2056   -44912.658    1131.6685   0.98297397 
   97400    293.20529   -507.22229    140268.97   -40875.514    4026.4686   -44901.983    1134.2806   0.98272997 
   97500    291.83494   -380.34687    140126.57   -40915.031    4007.6502   -44922.681    1134.7607    0.9837286 
   97600    291.01399   -547.34536    140379.44   -40895.068    3996.3764   -44891.445    1137.1942    0.9819566 
   97700    294.80516   -489.05665    140368.88   -40939.568     4048.439   -44988.007    1139.0055   0.98203043 
   97800    299.13435   -732.74483    140201.06    -40952.92    4107.8899   -45060.809    1140.0341   0.98320592 
   97900     296.6453   -608.78158    140289.42   -40902.306    4073.7088   -44976.015    1141.4798   0.98258666 
   98000    294.68996   -522.53135    140373.02   -40841.022     4046.857   -44887.879    1143.6008   0.98200151 
   98100    293.61759   -196.71725    140423.47   -40909.702    4032.1306   -44941.832    1144.5716   0.98164871 
   98200    297.52277   -506.06374    140705.24   -40840.338    4085.7588   -44926.096    1147.3994   0.97968287 
   98300       296.32   -496.20581    140370.03   -40799.429    4069.2416   -44868.671    1146.6964   0.98202244 
   98400    294.69296   -567.18893    140165.53   -40834.546    4046.8981   -44881.444    1147.1827   0.98345515 
   98500    293.01129   -583.32564    139830.18   -40810.017    4023.8045   -44833.822      1145.32   0.98581377 
   98600    297.82044   -595.96976    139877.13   -40822.271    4089.8465   -44912.118    1147.7927   0.98548286 
   98700    301.10963   -375.83693    140311.92   -40839.725    4135.0156   -44974.741    1151.0942   0.98242911 
   98800    293.83604   -651.54988    140323.98   -40863.028    4035.1304   -44898.158    1152.5506   0.98234466 
   98900    296.39703   -429.67172    140190.73   -40898.515    4070.2995   -44968.815    1154.4814   0.98327839 
   99000    295.30346   -136.60098    140570.29   -40798.442    4055.2819   -44853.724    1158.1425   0.98062344 
   99100    296.24686    -311.4421    140490.73   -40854.999    4068.2372   -44923.236    1159.8994   0.98117871 
   99200    288.83461   -661.99126    140443.87   -40886.403    3966.4478   -44852.851    1161.7221   0.98150608 
   99300    299.80887    -817.4299    140348.14   -40862.173    4117.1529   -44979.326    1162.6398   0.98217559 
   99400    295.47492   -461.12501    140082.78   -40821.817    4057.6364   -44879.454    1163.0946   0.98403612 
   99500    296.02044   -549.10187    140259.05   -40864.877    4065.1279   -44930.005    1165.1983   0.98279942 
   99600    290.14699   -528.45749    140036.26   -40959.528    3984.4702   -44943.999    1164.3414   0.98436299 
   99700    292.71975   -444.43037    140158.85   -40903.394    4019.8009   -44923.195    1166.1663   0.98350204 
   99800    291.90717   -703.22053    139971.54   -40925.098     4008.642    -44933.74    1166.6784   0.98481817 
   99900    295.15645   -465.74906    139676.27   -40866.634     4053.263   -44919.897    1167.0078   0.98690005 
  100000    295.52183   -712.74988       139557   -40867.751    4058.2807   -44926.032    1168.3634   0.98774351 
  100100    295.83276   -595.52934    139233.48   -40931.569    4062.5506   -44994.119     1167.657   0.99003858 
  100200    296.69968   -371.97746    139628.42   -40904.185    4074.4556   -44978.641    1172.9808   0.98723826 
  100300    295.37054   -408.31422    139858.95   -40906.778    4056.2031   -44962.981    1177.1816     0.985611 
  100400    293.34178   -487.95655    139877.43   -40929.434     4028.343   -44957.777    1178.5168   0.98548075 
  100500    295.61926   -443.62607     139934.2   -40979.481    4059.6187     -45039.1    1180.7608   0.98508093 
  100600    295.25037   -525.37688    139954.95   -41022.402    4054.5528   -45076.955    1181.1628   0.98493491 
  100665     291.7289   -234.06076    140111.12   -40965.561    4006.1939   -44971.755    1182.4502    0.9838371 
Loop time of 116.29 on 6 procs for 100000 steps with 4608 atoms

Performance: 371.486 ns/day, 0.065 hours/ns, 859.921 timesteps/s
99.0% CPU use with 6 MPI tasks x no OpenMP threads

MPI task timing breakdown:
Section |  min time  |  avg time  |  max time  |%varavg| %total
---------------------------------------------------------------
Pair    | 97.665     | 98.582     | 100.03     |   7.5 | 84.77
Neigh   | 7.0384     | 7.1497     | 7.219      |   2.6 |  6.15
Comm    | 6.4064     | 7.8438     | 8.6563     |  25.9 |  6.75
Output  | 0.17533    | 0.17608    | 0.17958    |   0.4 |  0.15
Modify  | 1.8437     | 1.9026     | 1.963      |   3.1 |  1.64
Other   |            | 0.6351     |            |       |  0.55

Nlocal:        768.000 ave         780 max         754 min
Histogram: 1 0 0 1 1 0 1 0 1 1
Nghost:        1563.17 ave        1574 max        1550 min
Histogram: 1 0 0 1 0 2 0 0 1 1
Neighs:        0.00000 ave           0 max           0 min
Histogram: 6 0 0 0 0 0 0 0 0 0
FullNghs:      21976.0 ave       22433 max       21372 min
Histogram: 1 0 0 1 1 0 1 0 0 2

Total # of neighbors = 131856
Ave neighs/atom = 28.614583
Neighbor list builds = 7097
Dangerous builds = 0

undump              1
unfix               2
unfix               3
unfix               4


################################################
#######         Run Simulation         #########
################################################

reset_timestep      0
log                 log.run_${NAME}
log                 log.run_liq_294K_-500atm_ML
