
# Define the lattice
#
variable	    lattice_constant equal 6.36339
lattice		    diamond ${lattice_constant}
lattice		    diamond 6.36339
Lattice spacing in x,y,z = 6.3633900 6.3633900 6.3633900

# Define region
# multiples of lattice spacing
#
region 		    simbox block 0 9 0 8 0 8

# Create Atoms
#
create_box          1 simbox
Created orthogonal box = (0.0000000 0.0000000 0.0000000) to (57.270510 50.907120 50.907120)
  3 by 1 by 2 MPI processor grid
create_atoms        1 box
Created 4608 atoms
  create_atoms CPU = 0.001 seconds
mass                1 18.015

# Define potential
#
pair_style          sw
pair_coeff          * * /data/emrosky-sim/Freezing_Simulations/Melting/MLmW_fancy/ML_mW.sw mW
Reading sw potential file /data/emrosky-sim/Freezing_Simulations/Melting/MLmW_fancy/ML_mW.sw with DATE: 2019-02-27

# Add velocity/set timestep
#
velocity            all create ${TEMP} 120598 rot yes dist gaussian
velocity            all create 294 120598 rot yes dist gaussian
timestep            5.0

# Define output
#
compute	            1 all msd
thermo              100
thermo_style        custom step temp press vol etotal ke pe c_1[4]

# Neighbor lists
#
neigh_modify        delay 0 every 1 check yes

# Set fixes
#
fix                 1 all momentum 10 linear 1 1 1 rescale
fix                 2 all nve
fix                 3 all temp/csvr ${TEMP} ${TEMP} 500.0 928347
fix                 3 all temp/csvr 294 ${TEMP} 500.0 928347
fix                 3 all temp/csvr 294 294 500.0 928347
fix                 4 all press/berendsen iso ${PRES} ${PRES} 1000.0 modulus 20000
fix                 4 all press/berendsen iso -500 ${PRES} 1000.0 modulus 20000
fix                 4 all press/berendsen iso -500 -500 1000.0 modulus 20000

# Run 0.5 ns equilibration
#
dump		    1 all custom 1000 eq.${NAME}.dump id type x y z vx vy vz
dump		    1 all custom 1000 eq.ice_294K_-500atm_ML.dump id type x y z vx vy vz
run                 100000
Neighbor list info ...
  update every 1 steps, delay 0 steps, check yes
  max neighbors/atom: 2000, page size: 100000
  master list distance cutoff = 6.0032907
  ghost atom cutoff = 6.0032907
  binsize = 3.0016454, bins = 20 17 17
  1 neighbor lists, perpetual/occasional/extra = 1 0 0
  (1) pair sw, perpetual
      attributes: full, newton on
      pair build: full/bin/atomonly
      stencil: full/bin/3d
      bin: standard
Per MPI rank memory allocation (min/avg/max) = 4.779 | 4.779 | 4.779 Mbytes
Step Temp Press Volume TotEng KinEng PotEng c_1[4] 
       0          294   -618.79576    148418.52   -51859.802     4037.382   -55897.184            0 
     100    194.95038   -359.29023    148366.61   -50214.755     2677.174   -52891.929  0.096449965 
     200    225.43786   -400.15162    148691.14   -49237.589    3095.8462   -52333.435   0.10816404 
     300      248.466   -450.82604    148899.17   -48617.776    3412.0821   -52029.858   0.13176439 
     400     263.9131   -470.38857    149040.93   -48206.797    3624.2109   -51831.007   0.13568984 
     500    279.44233   -448.32922    149142.49   -47918.466    3837.4674   -51755.934   0.13384552 
     600    287.49943   -452.77553    149224.73   -47641.458    3948.1123    -51589.57   0.14841699 
     700    290.95161   -509.18157    149284.78   -47594.406    3995.5198   -51589.926   0.13656107 
     800    289.85764   -526.10359    149304.53   -47498.227    3980.4967   -51478.724   0.15145001 
     900    296.31662   -525.20631    149304.51   -47477.024    4069.1952   -51546.219    0.1513599 
    1000    292.23005   -513.45325    149280.98   -47524.798     4013.076   -51537.874   0.14425916 
    1100     293.6452   -522.89418    149311.53   -47466.519    4032.5098   -51499.028   0.14132443 
    1200    291.16549   -491.66489    149314.61   -47456.053    3998.4568    -51454.51   0.14980311 
    1300    293.25941   -541.65219    149311.97   -47379.301    4027.2118   -51406.513   0.15032482 
    1400    292.63325   -509.47292    149333.36   -47481.329     4018.613   -51499.942   0.14751291 
    1500    290.94317   -521.96022     149279.2   -47507.136    3995.4038    -51502.54   0.14297892 
    1600    295.09743   -462.84258    149280.16   -47440.999    4052.4525   -51493.451   0.14913531 
    1700    293.93561   -462.97626    149278.74   -47465.318    4036.4978   -51501.816   0.14391462 
    1800    294.65529   -500.02176    149252.05   -47460.051    4046.3809   -51506.432   0.14981016 
    1900    292.14347   -509.46853    149309.19   -47368.026     4011.887   -51379.913   0.15163823 
    2000    298.45505   -525.67404    149346.52   -47315.627    4098.5614   -51414.188    0.1411286 
    2100    294.61442   -524.24441    149323.92   -47490.124    4045.8196   -51535.943   0.14917917 
    2200    292.75971    -497.7337    149303.46   -47413.711    4020.3496   -51434.061   0.13570913 
    2300    294.47249   -541.58257    149311.64   -47350.955    4043.8705   -51394.826   0.15839283 
    2400    297.78697   -473.08606    149310.28   -47374.528    4089.3869   -51463.915   0.14694182 
    2500    299.45359   -476.94854     149323.2   -47427.117     4112.274   -51539.391   0.13643311 
    2600     290.0983   -515.83217    149310.78   -47457.318    3983.8015   -51441.119   0.15391692 
    2700    297.58157   -444.94119    149318.13   -47424.847    4086.5663   -51511.413   0.13337355 
    2800    303.22798   -471.97438    149308.05   -47324.145    4164.1061   -51488.251   0.15082409 
    2900     302.9653   -486.39514    149326.17   -47352.641    4160.4989    -51513.14   0.14777237 
    3000    293.39805   -489.00259    149284.29   -47411.941    4029.1157   -51441.056   0.15111087 
    3100    293.69195   -534.31697    149321.35    -47385.53    4033.1516   -51418.682   0.15015649 
    3200    300.00699   -491.67233    149295.22   -47498.305    4119.8735   -51618.179   0.14206837 
    3300    300.78352   -472.75038    149224.28   -47555.531    4130.5374   -51686.068   0.13349672 
    3400    294.05039   -535.01424    149229.54   -47489.035     4038.074   -51527.109    0.1517399 
    3500    292.04516   -495.59721    149245.03   -47455.744     4010.537   -51466.281   0.14908263 
    3600    292.38029   -510.21893     149226.8   -47455.955    4015.1392   -51471.094   0.15011733 
    3700    296.81004   -478.57474    149260.93   -47419.004    4075.9712   -51494.975   0.14718947 
    3800    296.65657   -495.23602    149251.54    -47405.94    4073.8636   -51479.804    0.1517718 
    3900    292.31792    -556.0028    149266.44   -47417.384    4014.2827   -51431.667   0.15492598 
    4000    291.71662   -540.35502    149253.68   -47465.671    4006.0253   -51471.696   0.14573349 
    4100     290.8963   -542.98663    149232.19   -47476.532    3994.7601   -51471.293   0.15722096 
    4200    293.12008   -521.14517    149235.16   -47430.296    4025.2985   -51455.595   0.14303257 
    4300     289.3481   -545.96807    149214.71   -47566.329    3973.4993   -51539.829   0.15742169 
    4400    294.06465   -488.45278    149271.43   -47453.513    4038.2698   -51491.783   0.14293577 
    4500    290.71613   -494.68128    149235.24   -47512.646     3992.286   -51504.932   0.15393778 
    4600    293.96137   -451.66595    149217.83   -47544.373    4036.8515   -51581.225   0.14397698 
    4700    297.61068   -474.71861    149240.64   -47441.728     4086.966   -51528.694   0.14123132 
    4800    296.04874   -476.14147    149248.02   -47337.704    4065.5165    -51403.22    0.1510402 
    4900    296.64572    -519.4898    149259.01   -47307.339    4073.7147   -51381.053   0.15234605 
    5000    297.85833   -524.16891    149251.95   -47445.278    4090.3668   -51535.645   0.15509307 
    5100    297.59098   -521.63557    149292.92   -47373.708    4086.6955   -51460.403   0.14970896 
    5200    293.88171   -489.57596    149257.81   -47441.122    4035.7576   -51476.879   0.15335736 
    5300      294.667   -488.93124    149217.12   -47545.788    4046.5416   -51592.329   0.14225753 
    5400    293.91699   -468.51195    149217.02   -47507.555     4036.242   -51543.797   0.14475785 
    5500    290.75217   -469.90269    149242.69   -47479.168    3992.7809   -51471.949   0.15208815 
    5600    290.75793   -471.47555    149245.23   -47519.859    3992.8601    -51512.72   0.14475228 
    5700    289.42451   -536.34374    149242.62    -47507.94    3974.5486   -51482.489     0.146745 
    5800    295.47142   -504.94933    149271.36    -47450.16    4057.5884   -51507.748   0.14963785 
    5900    289.28908   -517.55648    149212.12   -47521.769    3972.6888   -51494.458   0.14978922 
    6000    293.46252   -467.35604    149201.42   -47497.913     4030.001   -51527.914   0.14876915 
    6100     286.4706    -546.9649     149198.9   -47579.196    3933.9839    -51513.18   0.15136741 
    6200    290.92652   -514.39792    149192.88   -47555.299    3995.1752   -51550.474   0.15077263 
    6300    297.08394   -513.99176    149240.66   -47439.362    4079.7325   -51519.095    0.1539264 
    6400    297.48212   -508.52578    149244.21   -47490.623    4085.2006   -51575.824   0.14352964 
    6500    290.42134   -500.01893    149233.71   -47506.924    3988.2377   -51495.162   0.15246975 
    6600    290.39906   -509.82796    149219.45   -47510.586    3987.9318   -51498.518   0.14866481 
    6700    294.84793   -484.59716     149225.3   -47569.603    4049.0263   -51618.629   0.14204172 
    6800    292.16933   -481.53592    149223.81    -47518.79    4012.2422   -51531.033   0.14680652 
    6900    295.11319   -496.98307    149280.97   -47448.221     4052.669    -51500.89    0.1445821 
    7000    295.42517   -507.75738    149246.89   -47444.645    4056.9534   -51501.599    0.1594147 
    7100    293.78787   -469.33965    149245.93   -47449.035     4034.469   -51483.504   0.13833056 
    7200    292.41883   -472.70618    149213.47   -47563.089    4015.6685   -51578.758   0.15175872 
    7300    286.54957   -503.89054    149189.42   -47615.776    3935.0682   -51550.844   0.14092322 
    7400    289.21311   -496.98425    149232.35   -47505.211    3971.6457   -51476.857   0.15035905 
    7500    295.34358   -470.77344     149236.7   -47432.398    4055.8328   -51488.231   0.15025917 
    7600     293.6537   -479.04589    149267.05   -47412.354    4032.6265    -51444.98   0.15012328 
    7700    286.75263   -549.35717    149228.04   -47509.489    3937.8569   -51447.346   0.15828954 
    7800    291.03994   -521.50866    149248.39     -47574.7    3996.7327   -51571.433    0.1457563 
    7900    290.82601   -461.50992    149233.81   -47508.742    3993.7949   -51502.537   0.14791616 
    8000    295.17544   -500.25861     149229.8   -47404.163    4053.5239   -51457.687   0.14860981 
    8100    300.78334    -464.1891    149219.49   -47366.491    4130.5349   -51497.026   0.15398111 
    8200    291.70192   -499.94026    149227.79   -47389.038    4005.8235   -51394.861   0.15365815 
    8300    291.85871   -551.65608    149238.87   -47350.342    4007.9766   -51358.319   0.16637753 
    8400    294.39296   -505.12162    149265.72   -47331.926    4042.7783   -51374.704    0.1532968 
    8500    295.44865   -542.65385    149222.75   -47416.577    4057.2757   -51473.853   0.15781046 
    8600    294.11757   -482.16587     149244.3   -47430.045    4038.9966   -51469.041   0.14608097 
    8700     292.2427   -510.68052     149236.2   -47399.011    4013.2498   -51412.261   0.15897348 
    8800    294.63557    -481.4566    149235.61   -47441.782    4046.1101   -51487.893   0.14642701 
    8900    297.51679   -493.31133    149239.38   -47511.492    4085.6766   -51597.169    0.1476499 
    9000    294.64083   -488.14395    149235.17   -47434.196    4046.1823   -51480.379   0.15340482 
    9100    296.12542   -445.26293    149248.59   -47487.602    4066.5695   -51554.171   0.13899368 
    9200    298.52741   -496.36062    149238.23   -47377.786     4099.555   -51477.341   0.16373669 
    9300    291.46941    -493.2269    149252.66   -47530.873    4002.6305   -51533.504   0.13956886 
    9400    293.57015    -519.3471    149253.66   -47496.771     4031.479    -51528.25   0.15186384 
    9500     289.7001   -489.38687    149251.19   -47536.595    3978.3332   -51514.928   0.14703464 
    9600    287.68592   -499.24446    149256.28   -47526.669    3950.6734   -51477.343   0.14452249 
    9700    295.44255   -475.42565    149294.95   -47404.586     4057.192   -51461.778   0.15253477 
    9800    299.70815   -527.91587    149317.11   -47363.182    4115.7697   -51478.952   0.15606999 
    9900    297.00915   -508.53364    149284.33   -47392.801    4078.7054   -51471.507   0.15568049 
   10000    297.98582   -446.14057    149269.07   -47446.898    4092.1176   -51539.015   0.14758901 
   10100    293.51078   -503.13519    149277.13   -47397.534    4030.6637   -51428.198   0.15024491 
   10200    291.92768   -519.38325    149289.11   -47369.214    4008.9237   -51378.137   0.15608065 
   10300    295.39933   -522.65604       149305   -47369.521    4056.5985    -51426.12   0.16002848 
   10400    295.88174    -529.5523    149300.38   -47373.241    4063.2232   -51436.464   0.15512281 
   10500     293.2222   -512.98075    149274.58   -47422.535    4026.7008   -51449.236   0.15144529 
   10600    292.86017   -491.74692     149260.7   -47438.759    4021.7292   -51460.488   0.15373322 
   10700    296.34901   -490.60967    149257.07   -47465.607      4069.64   -51535.247   0.15051269 
   10800    291.16897   -519.35435    149237.78   -47600.128    3998.5047   -51598.633   0.14865397 
   10900    288.14921   -518.09978    149228.47   -47588.359    3957.0355   -51545.394   0.15592163 
   11000     288.9058   -518.47568    149249.49   -47602.665    3967.4255    -51570.09   0.14643667 
   11100    293.68502   -515.76456    149264.27   -47505.274    4033.0565    -51538.33   0.14161213 
   11200    290.08295   -499.26602    149236.36   -47615.611    3983.5908   -51599.202    0.1540857 
   11300    288.01772   -469.98098    149237.65   -47528.355    3955.2298   -51483.585   0.14094918 
   11400    290.32254     -494.773    149240.73   -47501.931    3986.8809   -51488.812    0.1573554 
   11500    301.27249   -460.14717    149277.42   -47400.505    4137.2522   -51537.757   0.14684667 
   11600    295.20724   -508.81097    149283.09   -47401.616    4053.9606   -51455.576   0.15207337 
   11700    299.35199   -492.66864    149301.77   -47261.376    4110.8787   -51372.255   0.15983302 
   11800    302.61679   -476.52944    149309.54   -47342.035    4155.7129   -51497.748   0.14590739 
   11900     297.1322   -521.38227    149267.43   -47388.888    4080.3952   -51469.283   0.15622602 
   12000    301.49932   -471.61143    149276.99   -47354.628    4140.3671   -51494.995   0.15053302 
   12100    295.62792    -469.7835    149256.72   -47408.457    4059.7375   -51468.194    0.1500295 
   12200     292.1125   -519.71656    149239.75   -47410.257    4011.4618   -51421.719   0.15381493 
   12300    297.60804   -463.59525     149216.9   -47468.464    4086.9298   -51555.393   0.15636951 
   12400    289.44843   -520.11526     149225.9   -47458.428    3974.8771   -51433.305   0.15415631 
   12500    296.70083   -468.16051    149252.44   -47385.073    4074.4714   -51459.544   0.15825674 
   12600    301.43215   -466.12201    149273.92   -47345.164    4139.4448   -51484.609   0.14808174 
   12700    294.92549   -552.27014    149270.94   -47428.653    4050.0915   -51478.744   0.15547342 
   12800    294.38172    -519.0879    149244.61   -47407.731     4042.624   -51450.355   0.15476751 
   12900     292.7521   -516.05258    149231.17   -47471.075    4020.2451    -51491.32   0.15838903 
   13000     295.3716   -525.00333    149223.98   -47442.899    4056.2177   -51499.117   0.15296554 
   13100    291.92134   -493.76098    149235.74   -47524.018    4008.8367   -51532.855   0.14995531 
   13200    291.13402   -479.93156    149220.02   -47550.867    3998.0247   -51548.891    0.1499938 
   13300    291.50408   -493.76585     149208.2   -47638.119    4003.1066   -51641.226   0.14220418 
   13400    289.36887   -499.06745    149184.71   -47619.626    3973.7846   -51593.411   0.15689835 
   13500    292.49688   -508.96437     149231.9   -47529.749    4016.7403   -51546.489   0.14535204 
   13600    290.77885   -540.74103    149254.74   -47482.996    3993.1473   -51476.144   0.15651213 
   13700    292.74584   -481.84557    149225.99   -47510.405    4020.1592   -51530.565   0.14554818 
   13800    296.88437   -469.73522    149250.57   -47454.633    4076.9919   -51531.624   0.14836674 
   13900    291.62127   -438.06142    149237.74    -47442.34    4004.7159   -51447.056   0.14964048 
   14000    301.07821   -511.30909    149269.46   -47333.837    4134.5841   -51468.421   0.15319814 
   14100    297.94413   -489.14608    149260.52   -47426.175    4091.5452    -51517.72   0.15023115 
   14200    293.50572   -481.53469    149237.52   -47431.511    4030.5942   -51462.105   0.15094114 
   14300    291.99251   -499.02191    149258.32   -47464.045     4009.814   -51473.859   0.15187426 
   14400    293.61237   -498.52195    149218.91   -47519.251    4032.0589    -51551.31    0.1489331 
   14500    292.25809   -496.18118    149244.79   -47541.669     4013.461    -51555.13    0.1505088 
   14600    295.11137   -480.42958    149241.14   -47490.695    4052.6441   -51543.339   0.14890922 
   14700    296.88428    -525.9896    149247.32   -47443.294    4076.9907   -51520.285   0.15163008 
   14800    293.45001   -512.20851    149263.16   -47419.611    4029.8293    -51449.44   0.15575816 
   14900    293.42437   -494.37885    149255.86   -47429.218    4029.4771   -51458.695   0.15466342 
   15000     290.2792   -537.13797    149249.69   -47496.454    3986.2858    -51482.74   0.15621513 
   15100    286.62113   -507.61967    149256.75   -47511.134     3936.051   -51447.185   0.15027027 
   15200    296.00391   -468.56542    149266.14   -47433.628    4064.9008   -51498.529   0.14671803 
   15300    294.76042   -507.66812    149259.76   -47520.809    4047.8246   -51568.633   0.15116193 
   15400    288.98552   -520.96172    149252.51   -47512.087    3968.5203   -51480.607   0.15508053 
   15500    292.03902   -543.12617    149274.75   -47448.838    4010.4527   -51459.291    0.1565118 
   15600    300.80786   -484.41339    149315.67   -47330.499    4130.8715   -51461.371   0.15597859 
   15700    301.24946   -501.68738    149323.36   -47343.855    4136.9359   -51480.791   0.14582129 
   15800    299.55634   -479.42555       149325   -47351.349     4113.685   -51465.034   0.15416769 
   15900    294.95678   -527.26099    149301.64   -47374.268    4050.5211   -51424.789   0.15399241 
   16000    293.48555   -519.25229    149298.41     -47419.5    4030.3173   -51449.817   0.14926145 
   16100    295.57352   -473.55558    149278.29   -47457.739    4058.9905   -51516.729   0.15394636 
   16200    296.74478   -447.81129    149298.99   -47466.576     4075.075   -51541.651   0.14016249 
   16300    293.69567   -524.40926    149286.13   -47485.202    4033.2028   -51518.405   0.15543688 
   16400    292.74299   -470.49617    149280.01    -47489.74    4020.1201    -51509.86   0.14191601 
   16500    293.43266   -494.14757    149285.32   -47408.031     4029.591   -51437.622   0.15682495 
   16600    298.11768   -502.84081    149288.21   -47330.558    4093.9284   -51424.487   0.15094174 
   16700    294.62724   -536.61995    149305.46   -47381.632    4045.9957   -51427.627   0.15562289 
   16800     290.6776   -558.47188    149275.03   -47430.789    3991.7569   -51422.546    0.1557384 
   16900    299.12588   -465.02133    149257.97    -47462.95    4107.7736   -51570.724    0.1489247 
   17000    295.39693   -467.17544    149244.36   -47508.698    4056.5655   -51565.264   0.14917938 
   17100     291.9888    -509.0344    149285.04   -47457.555    4009.7631   -51467.319   0.14872571 
   17200    289.96586   -532.39908     149265.6   -47519.334    3981.9828   -51501.317   0.15592913 
   17300    288.53347   -541.89417    149260.55   -47618.111    3962.3124   -51580.424   0.14977313 
   17400    288.40657   -507.32504    149234.51   -47605.094    3960.5697   -51565.663   0.14978035 
   17500    290.68611   -522.06261    149254.25   -47493.383    3991.8737   -51485.256   0.15369983 
   17600     293.8415   -515.51614    149284.83   -47511.632    4035.2054   -51546.837   0.15442225 
   17700    295.48608    -493.8511    149261.63    -47571.82    4057.7897    -51629.61    0.1398806 
   17800    292.46086   -495.55485    149258.62   -47522.479    4016.2456   -51538.725   0.15679249 
   17900    299.84859   -486.65057    149292.84   -47466.153    4117.6984   -51583.851   0.14133844 
   18000    294.03663    -518.6618    149291.32   -47369.268    4037.8851   -51407.153   0.15999069 
   18100    300.96676    -497.9822    149333.46   -47382.971    4133.0537   -51516.025    0.1505685 
   18200    295.70102   -534.06623    149306.56   -47427.399    4060.7415   -51488.141   0.14999528 
   18300    295.82697   -474.75143    149325.56   -47430.867     4062.471   -51493.338   0.15323611 
   18400    295.93238     -472.929    149282.36   -47529.107    4063.9187   -51593.026   0.13767099 
   18500    290.52343   -487.45467    149281.57   -47466.575    3989.6397   -51456.215   0.15053683 
   18600    295.29992   -503.84214    149284.79   -47413.417    4055.2333    -51468.65   0.15337564 
   18700    297.39428   -490.53374    149287.48   -47437.749    4083.9943   -51521.744   0.15044675 
   18800    293.33347   -516.77079    149269.66   -47458.328    4028.2288   -51486.557   0.15321378 
   18900    291.26038   -496.90098    149287.85   -47414.833    3999.7599   -51414.593   0.15239826 
   19000    294.98424   -495.20773    149268.49    -47439.62    4050.8982   -51490.518   0.15288237 
   19100    294.46343   -517.05909    149296.68   -47354.505    4043.7461   -51398.251   0.15176607 
   19200    294.02895   -514.52281    149273.55   -47380.791    4037.7796   -51418.571   0.16147136 
   19300    296.63004   -546.83587    149330.95   -47276.847    4073.4993   -51350.346   0.15742412 
   19400    298.67811   -516.79743     149296.4   -47339.065    4101.6246    -51440.69   0.15901718 
   19500    295.69846   -527.18615    149269.11   -47333.091    4060.7063   -51393.798   0.15704163 
   19600     298.2904   -509.73726    149305.72   -47330.994    4096.3003   -51427.294   0.15356259 
   19700    293.11495   -481.27525    149293.17   -47377.692     4025.228    -51402.92   0.15488728 
   19800    299.47998   -499.34166    149305.16   -47332.821    4112.6363   -51445.457   0.15423395 
   19900    293.59795   -539.23313     149279.7   -47417.285    4031.8609   -51449.146   0.15579279 
   20000    291.85875   -485.92885    149240.07   -47445.544    4007.9771   -51453.521   0.15227821 
   20100    291.68076    -545.9099    149225.09   -47488.782    4005.5328   -51494.314   0.15685845 
   20200    292.07783    -474.3918    149225.85   -47463.404    4010.9856    -51474.39   0.14757427 
   20300     291.1602   -492.92962    149253.82   -47428.032    3998.3842   -51426.416   0.16139353 
   20400    292.70786   -484.71318    149260.03   -47488.791    4019.6376   -51508.428   0.14053797 
   20500    283.41944   -523.96563    149231.79   -47528.313    3892.0834   -51420.397   0.15892691 
   20600    289.35399    -485.4617    149224.25    -47544.87    3973.5802    -51518.45   0.14668464 
   20700    292.31606    -528.6713    149225.24   -47490.049    4014.2572   -51504.306   0.15748748 
   20800    295.21882   -485.76853    149258.28   -47345.955    4054.1195   -51400.074   0.15369955 
   20900    288.47698   -544.33849    149262.53   -47460.533    3961.5366   -51422.069   0.15754688 
   21000    288.86318   -475.63934    149262.88   -47472.528    3966.8402   -51439.368   0.14770017 
   21100    298.15847   -451.69377    149287.36   -47350.426    4094.4886   -51444.915   0.14921338 
   21200    300.01514   -522.13986    149283.64    -47371.14    4119.9855   -51491.126    0.1609775 
   21300    293.18601   -512.27586    149307.83   -47366.272    4026.2039   -51392.476   0.15286121 
   21400    295.85862   -514.52542    149290.99   -47407.971    4062.9057   -51470.876   0.15747433 
   21500    300.40017   -439.00504    149301.25   -47308.363     4125.273   -51433.636   0.14553649 
   21600    298.14129   -527.71004    149300.74   -47312.967    4094.2527   -51407.219   0.16017242 
   21700    296.75221   -519.84962    149297.46   -47453.181     4075.177   -51528.358   0.14624916 
   21800    293.20356   -502.91288    149264.39   -47481.596    4026.4449   -51508.041   0.15243396 
   21900    290.85103   -509.42551    149253.59   -47453.875    3994.1385   -51448.013   0.15285767 
   22000    293.01823   -529.63518    149255.57   -47491.608    4023.8997   -51515.508   0.15236001 
   22100    293.98343   -462.47331    149259.16   -47533.843    4037.1544   -51570.998   0.14497053 
   22200    282.63342   -515.91211    149225.87   -47619.717    3881.2894   -51501.007   0.14850743 
   22300    292.68289   -499.14826    149252.55   -47506.264    4019.2947   -51525.559   0.15085969 
   22400     296.9031   -481.82322    149282.89   -47453.121    4077.2492    -51530.37   0.14990276 
   22500    295.11147   -518.99629    149295.26   -47403.504    4052.6454    -51456.15   0.15210325 
   22600    293.32199   -486.36924    149284.09   -47443.945    4028.0712   -51472.016   0.15189756 
   22700    293.16964   -526.22396    149251.45     -47502.2     4025.979   -51528.179   0.15050899 
   22800    297.56335   -476.21057    149280.02   -47422.685    4086.3161   -51509.002   0.14679451 
   22900    294.61222   -505.88738    149263.08    -47463.77    4045.7894   -51509.559   0.15178878 
   23000    292.81239   -496.38627    149266.01   -47534.156     4021.073   -51555.229   0.14716466 
   23100    289.93538   -517.70321    149254.32   -47473.944    3981.5642   -51455.508   0.15041927 
   23200    293.37407   -524.11685    149266.37   -47420.334    4028.7863    -51449.12   0.15418653 
   23300    296.50795   -436.05138    149249.79   -47410.387    4071.8227    -51482.21   0.14351784 
   23400    297.09655   -473.63606    149257.92   -47463.456    4079.9057   -51543.361    0.1550485 
   23500    300.89901   -481.11458    149272.01   -47351.179    4132.1233   -51483.302   0.14862108 
   23600    291.98976   -510.42094    149280.86   -47368.568    4009.7762   -51378.344     0.155772 
   23700    298.73619   -500.70113    149260.08   -47358.766    4102.4222   -51461.189   0.15304785 
   23800    297.37767   -528.85196    149263.85   -47366.015    4083.7662   -51449.782   0.15141662 
   23900    291.34763   -537.31312    149266.04   -47459.184    4000.9581   -51460.142   0.15465139 
   24000    298.68496   -519.80204    149291.69   -47408.613    4101.7186   -51510.332   0.14636886 
   24100    298.56796   -508.38737    149257.53   -47333.948     4100.112    -51434.06   0.15792044 
   24200    293.90786   -476.34017    149270.64   -47465.476    4036.1167   -51501.592   0.14218964 
   24300    295.73528   -514.74504    149230.25    -47504.18    4061.2119   -51565.392    0.1510039 
   24400    291.15145   -500.16244    149218.06   -47532.363    3998.2641   -51530.627   0.14753519 
   24500    294.31548   -461.25156    149236.99   -47485.801    4041.7144   -51527.516   0.15024434 
   24600    294.38114   -516.63988    149244.11   -47535.776    4042.6161   -51578.392    0.1508197 
   24700    291.86104   -511.40816    149236.14   -47536.936    4008.0085   -51544.944   0.14923571 
   24800    299.37814   -477.09275    149256.11   -47469.934    4111.2378   -51581.172   0.14377494 
   24900    295.09503     -450.906    149237.73   -47530.733    4052.4196   -51583.153   0.15226908 
   25000    294.71871   -471.27451    149244.06   -47516.365    4047.2517   -51563.617   0.14532697 
   25100    289.53361   -478.73839    149236.21   -47573.077    3976.0469   -51549.124   0.14753324 
   25200    286.94994   -490.97235    149195.75   -47707.231    3940.5664   -51647.797   0.14636694 
   25300    292.19189   -467.38548    149208.16   -47539.047    4012.5519   -51551.599    0.1422815 
   25400    291.33795   -532.60915    149221.62   -47584.433    4000.8252   -51585.259   0.15585606 
   25500    292.91366   -440.97872    149240.88   -47463.503    4022.4638   -51485.967   0.14615767 
   25600    300.40156   -487.60072    149282.01    -47392.07    4125.2921   -51517.362    0.1534857 
   25700    291.59581   -523.74602    149244.47   -47484.231    4004.3662   -51488.598   0.15057001 
   25800    293.87602   -484.55578    149252.15   -47331.369    4035.6794   -51367.048   0.15695597 
   25900    294.86401    -501.9626    149254.19   -47356.356    4049.2471   -51405.604   0.15664994 
   26000    290.38269   -489.70309    149226.71   -47404.362     3987.707   -51392.069   0.15834055 
   26100    295.59301   -492.67149    149246.38   -47384.899    4059.2582   -51444.157   0.15311675 
   26200    294.46856   -497.82467    149264.35   -47497.722    4043.8166   -51541.539   0.14895753 
   26300    292.34338   -462.61352    149232.81   -47447.487    4014.6323    -51462.12   0.15208718 
   26400    290.70279   -474.46537    149221.56   -47511.774    3992.1028   -51503.877   0.14877006 
   26500    293.20069    -519.2045    149241.27     -47424.4    4026.4055   -51450.805   0.15441947 
   26600     294.0991   -505.99468    149258.61   -47370.644     4038.743   -51409.387   0.15690561 
   26700    294.64984   -527.70728     149283.2   -47375.071     4046.306   -51421.377    0.1531405 
   26800    292.56238   -498.43435    149267.78   -47426.144    4017.6398   -51443.783    0.1518021 
   26900    299.01132   -471.93335    149247.86   -47360.975    4106.2004   -51467.175   0.15374279 
   27000    296.80986   -490.60477    149258.69   -47396.535    4075.9687   -51472.503   0.15253835 
   27100    296.28258   -486.21874    149241.44   -47338.547    4068.7278   -51407.275   0.15693632 
   27200    296.56134   -528.07334    149251.76   -47410.136    4072.5558   -51482.692   0.15293151 
   27300    303.99728   -459.97605    149290.28   -47236.019    4174.6706    -51410.69   0.15039308 
   27400    294.70595   -528.89235    149282.66   -47363.498    4047.0766   -51410.574   0.15666229 
   27500    293.45069   -509.99015    149251.13   -47470.027    4029.8386   -51499.865   0.14608872 
   27600    289.12425    -486.2799    149219.33   -47524.309    3970.4253   -51494.734   0.15368524 
   27700    291.08238   -505.94465    149237.84   -47420.215    3997.3155   -51417.531   0.15456087 
   27800    292.50142   -492.60582    149240.33   -47392.052    4016.8026   -51408.855   0.15124523 
   27900    296.23475   -498.33425    149242.33   -47458.838    4068.0709   -51526.909   0.15112471 
   28000    290.87463   -513.43419    149210.12    -47532.75    3994.4626   -51527.212   0.15031746 
   28100    293.18524   -518.10435    149221.32    -47506.17    4026.1932   -51532.363   0.15555505 
   28200    295.24506   -498.39764    149233.57   -47474.537    4054.4799   -51529.017     0.147799 
   28300    288.50842   -515.41652    149194.28   -47491.584    3961.9684   -51453.552   0.16019469 
   28400    293.27081   -500.28625     149250.7   -47428.742    4027.3684   -51456.111   0.14729127 
   28500    289.66403   -498.55888    149219.53   -47455.137    3977.8379   -51432.975   0.15791731 
   28600    292.38836   -484.25371    149218.94   -47463.872    4015.2501   -51479.122   0.14912612 
   28700    295.18969   -505.72628    149212.91   -47461.899    4053.7196   -51515.618   0.15493128 
   28800    290.17929   -517.93122    149200.69   -47507.928    3984.9138   -51492.842   0.15279137 
   28900    293.61102   -478.03123    149211.19   -47477.312    4032.0404   -51509.352   0.14878566 
   29000    291.86894   -493.58928    149201.72    -47415.52     4008.117   -51423.637   0.15935645 
   29100    297.66478   -546.59172    149212.73   -47415.609     4087.709   -51503.318   0.15767632 
   29200    297.48007   -487.00435    149233.17   -47344.737    4085.1724   -51429.909   0.15899441 
   29300    298.32153   -488.97067    149251.03   -47352.694    4096.7279   -51449.422   0.15494825 
   29400    296.99016   -478.20987    149236.42   -47364.524    4078.4446   -51442.968   0.15773281 
   29500    293.40021   -526.70724    149245.47   -47410.598    4029.1454   -51439.743   0.15234688 
   29600    295.74531   -499.40038    149245.95   -47378.838    4061.3497   -51440.188   0.15707051 
   29700    293.39052    -520.6255     149240.9   -47458.468    4029.0123   -51487.481   0.15132269 
   29800    289.91537   -546.72909    149205.97   -47549.096    3981.2895   -51530.385   0.15856409 
   29900    290.70261   -464.48289    149221.86   -47527.557    3992.1004   -51519.657   0.14802355 
   30000    297.20854   -489.38862    149229.06   -47498.094    4081.4436   -51579.538   0.15227227 
   30100    294.83961   -501.23251    149241.36   -47464.564     4048.912   -51513.476   0.15316165 
   30200    293.35378    -514.4366    149244.86   -47479.868    4028.5078   -51508.376   0.15435659 
   30300    291.58497   -497.74686    149251.31   -47463.703    4004.2174    -51467.92   0.15342838 
   30400     292.5402    -494.7437    149251.25   -47502.263    4017.3352   -51519.598   0.14911577 
   30500    289.25594   -498.74384    149199.97    -47600.13    3972.2338   -51572.364   0.15156136 
   30600    293.37056   -503.47517    149246.91   -47478.843    4028.7381   -51507.581   0.15428427 
   30700    292.95031   -464.46091    149223.54    -47508.75     4022.967   -51531.717   0.15437946 
   30800    292.59672   -485.74754    149227.43   -47436.821    4018.1114   -51454.932   0.15204214 
   30900    299.80272   -528.06739    149257.91   -47419.412    4117.0684   -51536.481   0.15214077 
   31000    292.10435   -474.58681    149198.86   -47446.668    4011.3498   -51458.018    0.1551797 
   31100    294.49142   -527.82456    149207.72   -47462.573    4044.1305   -51506.703   0.15209718 
   31200    295.67909   -492.05621     149182.9   -47400.442    4060.4402   -51460.882    0.1605762 
   31300    297.18199   -501.19117    149217.33   -47336.713    4081.0789   -51417.792   0.15838865 
   31400    293.82983   -495.57235    149199.41   -47452.373    4035.0451   -51487.418   0.15524438 
   31500    296.63985   -521.70051    149204.29    -47405.39     4073.634   -51479.024   0.15624831 
   31600    293.34631    -520.7312    149208.42   -47423.863    4028.4052   -51452.268   0.15572557 
   31700    294.02632   -512.83352    149226.11   -47394.033    4037.7435   -51431.776   0.15745914 
   31800    294.03527   -538.79137    149242.16   -47464.822    4037.8663   -51502.688   0.15361999 
   31900    294.59658   -504.93093    149238.72   -47454.984    4045.5746   -51500.558   0.14998383 
   32000    292.43978   -489.10726    149247.87   -47405.646    4015.9561   -51421.602   0.15585741 
   32100    294.26186   -468.12877    149258.19   -47443.337     4040.978   -51484.315   0.15223032 
   32200    288.88779   -494.85632    149231.08    -47568.86    3967.1781   -51536.038   0.14597798 
   32300    292.71318   -448.31212    149217.89   -47509.992    4019.7107   -51529.703   0.15625544 
   32400    285.52942   -503.16899    149222.11   -47603.732     3921.059   -51524.791   0.14890924 
   32500    297.56785   -490.04244    149243.88    -47463.32    4086.3778   -51549.698   0.15224261 
   32600    295.21202   -525.03551       149240   -47415.378    4054.0262   -51469.404    0.1552398 
   32700    288.85554   -515.99136    149236.19   -47506.968    3966.7352   -51473.703   0.15558678 
   32800    295.23847   -528.68892    149254.92   -47374.872    4054.3895   -51429.261   0.15342068 
   32900    297.67169   -470.40269    149262.16   -47447.832    4087.8038   -51535.636   0.15251681 
   33000    297.70403   -529.39806    149262.53   -47434.916     4088.248   -51523.164   0.15191181 
   33100    291.80651   -520.42947    149250.26   -47470.693    4007.2597   -51477.952   0.15581002 
   33200    289.32328   -485.45551    149223.85   -47438.812    3973.1586    -51411.97   0.15756418 
   33300    295.86709   -510.04873    149265.33   -47452.095     4063.022   -51515.117     0.147619 
   33400    293.87307   -488.14209    149247.39   -47468.447    4035.6389   -51504.086   0.15705603 
   33500    294.50118   -487.19665    149249.47   -47494.252    4044.2645   -51538.517   0.14944698 
   33600    292.15098   -508.19165    149244.25    -47505.37    4011.9901   -51517.361   0.15361031 
   33700    295.68801   -497.91607    149240.99     -47398.5    4060.5627   -51459.063   0.15513916 
   33800    295.70523   -523.83649    149248.92   -47289.909    4060.7992   -51350.708   0.16255313 
   33900    297.26753   -490.63574    149272.77   -47314.931    4082.2536   -51397.184   0.15733678 
   34000    290.78742   -501.85359    149237.79   -47461.648     3993.265   -51454.913   0.16457596 
   34100    289.09295   -553.17537    149238.16   -47482.776    3969.9956   -51452.771   0.15247328 
   34200    292.92494   -473.31583    149231.93   -47483.537    4022.6186   -51506.155   0.15606922 
   34300    290.25847   -488.21807    149235.54   -47513.929    3986.0011    -51499.93   0.15559739 
   34400    294.50456   -492.42986     149238.5   -47438.639    4044.3109   -51482.949   0.15134097 
   34500    296.35115   -529.68021    149273.22   -47364.371    4069.6695    -51434.04   0.16447324 
   34600    299.37351   -485.44691    149303.15   -47361.976    4111.1742    -51473.15   0.15451334 
   34700    295.20391   -498.93487    149277.84   -47478.874    4053.9148   -51532.789   0.15067731 
   34800    291.65549   -498.02727    149257.27   -47474.006    4005.1859   -51479.192   0.15550875 
   34900    294.33704   -480.83375    149237.96    -47452.19    4042.0105   -51494.201   0.15824669 
   35000    294.42803   -485.57152    149256.79   -47429.056      4043.26   -51472.316   0.15248818 
   35100    292.66535   -513.12219    149239.11   -47442.668    4019.0539   -51461.721   0.15934738 
   35200    293.28074   -482.11275    149248.29   -47378.873    4027.5047   -51406.377   0.15633059 
   35300    293.98447   -522.39958    149251.23   -47465.407    4037.1687   -51502.576   0.15523503 
   35400    294.13152   -545.17035    149239.23   -47471.574    4039.1881   -51510.762   0.15995239 
   35500     295.9921   -506.80416    149254.45   -47459.259    4064.7386   -51523.998   0.15176162 
   35600    291.45706   -499.29015    149267.95   -47430.027    4002.4608   -51432.488   0.16012432 
   35700    291.52843   -526.82078    149282.51   -47445.178    4003.4409   -51448.619    0.1589241 
   35800    296.32092   -525.83243    149336.03   -47280.376    4069.2542    -51349.63   0.15838936 
   35900     291.7438   -548.53495    149306.52   -47397.659    4006.3986   -51404.057   0.16221069 
   36000    294.12087   -508.22342     149305.4   -47453.921    4039.0418   -51492.963   0.15283441 
   36100    294.77925   -519.40441    149275.12   -47498.099    4048.0831   -51546.182    0.1491702 
   36200    286.83773   -500.21337    149264.56    -47527.92    3939.0255   -51466.946   0.15478848 
   36300    292.82008   -490.98997    149271.09   -47456.013    4021.1786   -51477.192   0.15566324 
   36400    286.81939   -506.31574    149257.96   -47517.997    3938.7736    -51456.77   0.15651698 
   36500    295.50697   -478.12771    149257.68   -47491.218    4058.0767   -51549.295   0.15607039 
   36600    293.99064   -505.33652    149248.57   -47490.907    4037.2535   -51528.161    0.1520282 
   36700     291.1555   -524.34068    149241.66   -47532.497    3998.3197   -51530.816   0.16059271 
   36800    286.99111   -520.22427    149223.62   -47600.293    3941.1318   -51541.424   0.15191514 
   36900    292.35556   -497.40485    149231.99       -47524    4014.7996     -51538.8   0.15665787 
   37000    289.37675   -481.39088     149230.3   -47503.672    3973.8928   -51477.565    0.1554797 
   37100    294.97367   -505.08831    149234.58   -47554.493    4050.7531   -51605.246    0.1516781 
   37200    292.18639   -479.93929    149226.62    -47553.56    4012.4765   -51566.037   0.15082196 
   37300     291.8211   -514.29256    149215.42   -47551.361    4007.4601   -51558.821   0.15744238 
   37400    291.75061   -503.94119    149184.95   -47560.122     4006.492   -51566.614   0.15616737 
   37500    294.01885   -468.04307    149190.24   -47530.003    4037.6409   -51567.643   0.14763098 
   37600     288.3483   -532.61697    149189.32   -47579.883    3959.7695   -51539.652   0.16051832 
   37700    286.68744     -501.335    149160.58   -47662.327    3936.9616   -51599.288    0.1483045 
   37800    290.31191   -473.97489    149155.31   -47679.914    3986.7349   -51666.649   0.15716884 
   37900      291.279   -490.73535    149155.59   -47579.941    4000.0157   -51579.957   0.15106688 
   38000    289.17569   -535.07009    149173.65   -47515.418    3971.1318   -51486.549   0.16228555 
   38100    293.96918   -479.65009       149190   -47445.661    4036.9588    -51482.62   0.15935016 
   38200    295.01454   -493.61278    149241.73   -47418.531    4051.3143   -51469.845   0.15549568 
   38300    293.29578   -513.27491    149248.79   -47473.428    4027.7112    -51501.14   0.15401976 
   38400    295.71592   -520.73286     149249.7   -47402.998     4060.946   -51463.944   0.16116312 
   38500    296.90286   -504.10624    149235.03    -47459.59    4077.2459   -51536.836   0.15208244 
   38600    298.34245   -497.65285    149226.79   -47422.003    4097.0151   -51519.018   0.15927677 
   38700    292.89856    -510.9438    149234.76   -47389.836    4022.2564   -51412.093   0.16335379 
   38800    295.00219   -498.41576    149235.29   -47428.167    4051.1447   -51479.312    0.1539447 
   38900    295.17945   -521.58197     149238.9   -47366.768     4053.579   -51420.347   0.16243689 
   39000    289.14142    -530.5043    149253.74   -47427.993    3970.6611   -51398.654    0.1560324 
   39100     292.6233    -516.4859    149253.96   -47449.464    4018.4764    -51467.94   0.16403754 
   39200    287.88656   -521.87879     149229.7   -47579.676    3953.4286   -51533.104   0.15152304 
   39300    288.86445   -446.48023    149206.32    -47583.38    3966.8576   -51550.237   0.15116037 
   39400    294.07748   -495.09559    149248.15   -47456.238     4038.446   -51494.684   0.15265268 
   39500    298.44075   -472.68055    149254.63   -47442.253     4098.365   -51540.618   0.15246931 
   39600    295.03381   -515.45315    149251.98    -47444.38     4051.579   -51495.959   0.15947965 
   39700    295.22138   -503.47961    149262.39   -47429.298    4054.1547   -51483.453   0.15564807 
   39800    297.17981   -515.57947    149245.74   -47451.068    4081.0491   -51532.117   0.16315316 
   39900    297.22243   -488.40268    149265.14   -47411.031    4081.6343   -51492.665   0.14978288 
   40000    294.10052   -490.89877    149270.64   -47484.582    4038.7625   -51523.345   0.15732082 
   40100    293.88318   -492.89831     149246.8   -47493.081    4035.7778   -51528.858   0.15524176 
   40200    289.94794   -519.92628    149250.54    -47467.56    3981.7367   -51449.297   0.15417146 
   40300    291.04098   -494.00158    149267.98   -47478.342    3996.7469   -51475.089   0.15874718 
   40400     292.2618    -482.1689    149277.92     -47568.8     4013.512   -51582.312   0.14188023 
   40500    293.81544   -479.68313    149276.05   -47422.972    4034.8475    -51457.82   0.15756641 
   40600    292.76498   -529.21552    149280.55    -47502.92     4020.422   -51523.342   0.15446154 
   40700    289.55761   -501.18225    149259.93   -47503.634    3976.3765   -51480.011   0.15389643 
   40800    287.80575   -538.19094     149264.8   -47479.111    3952.3189    -51431.43   0.15399354 
   40900    294.81877    -450.0474    149265.49   -47463.376    4048.6259   -51512.002   0.15474872 
   41000    292.65453   -501.45263    149258.96   -47530.877    4018.9052   -51549.782   0.14591225 
   41100    295.80909   -464.92848    149280.84   -47509.116    4062.2255   -51571.341   0.15515624 
   41200    299.35915   -425.63895    149315.93   -47384.971    4110.9771   -51495.948   0.14683388 
   41300    292.47195   -509.96183    149296.19   -47476.853    4016.3979   -51493.251   0.15234094 
   41400    295.83206   -491.66877    149301.56   -47416.406    4062.5409   -51478.947   0.15123471 
   41500    294.69881   -490.40794    149312.52   -47432.772    4046.9785    -51479.75   0.14708912 
   41600    296.16498   -500.70594     149289.5   -47438.065    4067.1129   -51505.178   0.15571961 
   41700    287.12391   -521.36747    149267.72    -47552.21    3942.9554   -51495.165   0.15249015 
   41800    295.74083   -462.34814    149288.53   -47463.129    4061.2881   -51524.417   0.15456369 
   41900    288.71123    -493.5198    149281.96   -47543.334    3964.7535   -51508.088   0.14513051 
   42000    293.48769   -452.34241    149260.67   -47513.955    4030.3467   -51544.301   0.15830347 
   42100    290.10404   -445.93172    149249.37   -47585.921    3983.8804   -51569.802   0.14243347 
   42200    290.14525   -461.18182    149253.37   -47544.695    3984.4463   -51529.141   0.15517761 
   42300    292.08513   -514.62891    149277.47   -47507.651    4011.0859   -51518.736   0.15421104 
   42400    292.45112    -532.0497     149277.4   -47535.314    4016.1118   -51551.426    0.1502533 
   42500    297.51812   -495.59563    149270.18   -47492.792    4085.6949   -51578.487   0.15146651 
   42600    292.75451   -492.32331    149247.59    -47529.35    4020.2782   -51549.628    0.1492763 
   42700    290.71019   -496.04596    149215.52   -47595.136    3992.2045    -51587.34   0.15679155 
   42800    288.29716   -521.78689    149255.92   -47514.121    3959.0673   -51473.188   0.15659068 
   42900    294.27375   -495.60617    149237.88    -47523.87    4041.1413   -51565.011   0.15338077 
   43000    294.14887    -525.7538    149233.22   -47551.277    4039.4265   -51590.703   0.15091326 
   43100    292.06997   -519.17788    149243.16   -47468.132    4010.8777    -51479.01   0.16136179 
   43200     291.1528   -523.42888    149260.32   -47488.167    3998.2825    -51486.45   0.15520987 
   43300    294.78627   -484.34392     149228.1   -47474.476    4048.1795   -51522.655   0.15652639 
   43400    288.96829   -504.07279    149244.16   -47408.168    3968.2836   -51376.452   0.16150714 
   43500    288.88143   -500.52821    149260.88    -47467.35    3967.0908   -51434.441   0.15632017 
   43600    295.76738   -496.14824    149242.86    -47512.32    4061.6528   -51573.973   0.15459469 
   43700    292.68507   -473.43233    149207.82   -47554.712    4019.3247   -51574.037   0.15576916 
   43800    286.90474   -488.95888    149225.02   -47593.732    3939.9457   -51533.678   0.15357334 
   43900    290.37339   -469.78465    149252.22   -47504.154    3987.5793   -51491.733    0.1521932 
   44000    285.03651   -490.39942    149214.25   -47590.203      3914.29   -51504.493   0.15301162 
   44100    291.63282   -486.23416    149227.38   -47546.044    4004.8746   -51550.919   0.14774834 
   44200    292.30327   -486.56295    149225.26   -47505.898    4014.0815    -51519.98   0.15842521 
   44300    292.96219   -499.00427    149232.22   -47506.709    4023.1302   -51529.839   0.15424469 
   44400    296.45916   -479.66472    149227.57   -47519.217    4071.1527    -51590.37   0.15602838 
   44500    296.83617   -502.30808    149230.33   -47525.979      4076.33   -51602.309   0.15586167 
   44600     293.9886   -470.63649     149238.7   -47529.581    4037.2254   -51566.806   0.14585667 
   44700    289.79595     -545.037    149249.69   -47522.328    3979.6495   -51501.978   0.16253962 
   44800    290.38119   -517.46352    149260.44   -47478.376    3987.6864   -51466.062   0.15388712 
   44900    295.68609   -483.50812    149263.22   -47461.223    4060.5365   -51521.759   0.15665754 
   45000    296.17389   -473.91801    149250.39   -47507.788    4067.2352   -51575.024   0.14928016 
   45100    295.76241   -519.54342    149263.05   -47388.705    4061.5845    -51450.29   0.15754276 
   45200     294.6586   -470.64687    149248.42   -47420.902    4046.4263   -51467.329   0.15815265 
   45300    292.82172   -515.61519    149265.87    -47450.31    4021.2012   -51471.511   0.15475183 
   45400     292.9069   -470.41612    149245.45   -47514.589    4022.3709    -51536.96    0.1546108 
   45500    294.33962   -499.19008    149262.58   -47453.234    4042.0459    -51495.28   0.15176363 
   45600    294.55249   -470.54921    149260.52   -47442.948    4044.9691   -51487.917   0.15805203 
   45700    296.12744   -465.34441    149274.05   -47400.072    4066.5973   -51466.669   0.15367608 
   45800    294.03835   -514.33058    149244.06   -47472.982    4037.9087   -51510.891   0.15779898 
   45900    296.08723   -521.84593       149263   -47337.303     4066.045   -51403.348    0.1546393 
   46000    301.42188   -507.54499    149279.71    -47406.61    4139.3036   -51545.914   0.16111613 
   46100    299.82708   -528.46843    149288.63   -47306.177    4117.4029    -51423.58   0.15770338 
   46200    299.91994   -496.56976    149299.04   -47366.388    4118.6782   -51485.067    0.1596512 
   46300    291.96275   -490.58403    149301.85   -47356.755    4009.4052    -51366.16     0.157712 
   46400    299.75796   -511.14682    149287.07   -47401.749    4116.4537   -51518.203   0.15916933 
   46500    290.37568   -503.43692    149302.58   -47367.673    3987.6108   -51355.284   0.15645421 
   46600    294.49478   -502.30565    149271.73   -47428.546    4044.1766   -51472.722   0.15606197 
   46700    297.66958   -499.94569    149279.37   -47359.546    4087.7749   -51447.321   0.15815046 
   46800    300.31679   -492.84582    149278.64   -47368.669    4124.1279   -51492.797   0.15218784 
   46900    290.59898   -514.52129    149273.06   -47430.855    3990.6772   -51421.532   0.16252337 
   47000    297.28215   -468.88825    149278.77   -47466.722    4082.4545   -51549.176   0.14608786 
   47100     295.6995   -520.26432    149249.17   -47473.019    4060.7206    -51533.74   0.15877697 
   47200    293.58026   -465.48351    149258.48   -47439.736    4031.6179   -51471.354   0.15067584 
   47300    285.78458   -490.34867    149228.52   -47560.513    3924.5631   -51485.076   0.15546451 
   47400    291.01344   -530.48448    149236.01   -47496.425    3996.3688   -51492.793   0.15873908 
   47500     292.2575   -478.84164    149236.37   -47501.669     4013.453   -51515.122   0.14921101 
   47600    290.37782   -501.51761    149249.04   -47496.499    3987.6401   -51484.139   0.15620908 
   47700    295.02298   -495.39334    149276.07   -47420.622    4051.4302   -51472.052   0.15834133 
   47800    298.69557   -467.24777    149273.08   -47482.468    4101.8644   -51584.332   0.14973224 
   47900    289.89704   -483.07958    149259.84   -47532.779    3981.0378   -51513.817   0.15122616 
   48000    291.07448   -492.18936    149267.92   -47491.326    3997.2071   -51488.533   0.15360555 
   48100    288.47058   -532.04209    149241.03   -47535.608    3961.4487   -51497.057   0.15499854 
   48200    290.35198   -501.56038    149240.37   -47522.028    3987.2853   -51509.314   0.15247572 
   48300    290.85527    -495.1462       149230    -47473.43    3994.1967   -51467.627   0.15372063 
   48400    289.89068   -547.20637    149246.13   -47514.113    3980.9505   -51495.064   0.15503753 
   48500    291.91121    -508.1582    149231.41   -47598.481    4008.6975   -51607.178    0.1534262 
   48600    291.44271   -508.74264    149217.86   -47593.306    4002.2638    -51595.57   0.14965238 
   48700    293.33712   -462.61044    149255.02   -47479.428     4028.279   -51507.707   0.15312987 
   48800    292.21271   -479.61251    149263.57   -47472.433    4012.8379   -51485.271   0.15550022 
   48900    296.21691   -472.55523    149255.92   -47498.516     4067.826   -51566.342   0.15295277 
   49000    290.55162   -470.65786    149233.67    -47526.47    3990.0269   -51516.497   0.14605091 
   49100    293.52311   -477.28974    149273.64   -47442.517    4030.8331    -51473.35   0.15962586 
   49200    294.26817   -498.07926    149257.85   -47471.459    4041.0646   -51512.524   0.15202694 
   49300    287.60827   -558.12241    149219.27    -47535.88    3949.6071   -51485.487   0.15705074 
   49400    294.02519   -497.06658    149215.46   -47554.739    4037.7279   -51592.467    0.1538917 
   49500    295.35123   -505.88184    149244.95   -47493.092    4055.9379    -51549.03    0.1506512 
   49600    296.26534   -475.35867    149237.09   -47487.501     4068.491   -51555.992   0.15555113 
   49700    295.61603   -473.01142    149236.17   -47493.739    4059.5743   -51553.314    0.1502709 
   49800     293.4004   -488.10301    149204.02   -47498.268     4029.148   -51527.416   0.15605303 
   49900    290.82644   -522.84203    149202.78   -47480.539    3993.8008    -51474.34   0.15935404 
   50000    292.63326   -518.73009     149210.5   -47491.305    4018.6131   -51509.918   0.15732539 
   50100    296.92393   -510.37219    149228.55   -47349.947    4077.5351   -51427.483   0.15703322 
   50200    293.17102   -501.87329    149222.52   -47429.549    4025.9979   -51455.547   0.16186845 
   50300    292.81476   -475.08399    149217.98   -47442.737    4021.1056   -51463.843   0.15400397 
   50400    293.42961   -506.60743    149199.11   -47464.952    4029.5491   -51494.501   0.15652868 
   50500    298.27308    -420.1027    149207.88   -47369.855    4096.0625   -51465.918   0.15461017 
   50600    301.52152   -469.81575    149249.53   -47299.494     4140.672   -51440.166    0.1595569 
   50700    285.69024   -508.37624     149201.1   -47541.659    3923.2675   -51464.927   0.15363833 
   50800    291.71047   -500.42748    149197.57   -47520.601    4005.9409   -51526.542   0.15366972 
   50900    296.93759   -469.43213    149176.37   -47547.096    4077.7228   -51624.819   0.14971244 
   51000    291.38046   -489.59555    149173.84   -47501.129     4001.409   -51502.538   0.15534386 
   51100    295.40577   -468.69418    149194.66   -47515.316    4056.6869   -51572.002   0.15437209 
   51200    285.51999    -472.5052    149182.43   -47568.044    3920.9295   -51488.973   0.15135132 
   51300    287.57787   -526.06307    149167.81     -47577.3    3949.1895   -51526.489   0.16077332 
   51400    292.09115   -495.59794    149173.42   -47517.786    4011.1685   -51528.954   0.15084741 
   51500    285.33449   -513.04352    149175.09   -47578.341    3918.3821   -51496.723   0.15812856 
   51600    290.80189   -506.60759     149181.3   -47491.282    3993.4637   -51484.746   0.15981441 
   51700    293.44122   -510.06124    149201.76   -47390.526    4029.7085   -51420.235   0.15816132 
   51800    294.29714   -527.65491    149203.82   -47440.623    4041.4626   -51482.086   0.16121792 
   51900    291.13771   -491.81975    149194.85   -47501.784    3998.0754    -51499.86   0.15380226 
   52000    293.18471   -492.44671    149200.63   -47489.502     4026.186   -51515.688   0.15504399 
   52100    290.43006   -502.65324    149198.56   -47566.039    3988.3575   -51554.397   0.15621321 
   52200    289.81384   -484.77686    149188.38   -47624.181    3979.8951   -51604.077   0.14886234 
   52300     289.1129   -516.19399    149179.28   -47595.271    3970.2694    -51565.54   0.15550601 
   52400    281.93179   -511.39187    149187.05   -47688.422    3871.6542   -51560.076   0.15086951 
   52500     291.2718   -470.71622    149224.54   -47532.394    3999.9168   -51532.311   0.15383952 
   52600    293.53297   -500.55968    149226.48   -47496.152    4030.9685   -51527.121   0.15667791 
   52700    291.96259    -509.0261    149214.67   -47432.885    4009.4031   -51442.288   0.15389804 
   52800    289.70307    -537.6765    149244.32   -47411.993     3978.374   -51390.367     0.163856 
   52900    299.49473    -485.5883    149225.08   -47431.048    4112.8389   -51543.887   0.15279804 
   53000    301.48906   -494.62013    149239.28   -47377.776    4140.2262   -51518.002   0.15773077 
   53100    296.23367   -504.09695     149218.2   -47520.006    4068.0561   -51588.062   0.15356792 
   53200    290.45672   -465.04781    149200.84   -47569.684    3988.7237   -51558.408   0.15015033 
   53300     289.9044   -503.60596    149190.34    -47530.44    3981.1388   -51511.579   0.15599154 
   53400     293.7036   -497.66084    149217.68   -47457.486    4033.3117   -51490.798   0.15197004 
   53500    293.45203   -520.73663    149239.09   -47449.739     4029.857   -51479.596   0.15911803 
   53600    288.30209   -519.13421    149207.27   -47517.503    3959.1349   -51476.638   0.15563511 
   53700    290.57434   -505.00976    149220.97   -47503.309    3990.3388   -51493.648   0.15643748 
   53800    288.75364   -498.06549     149231.1   -47521.843    3965.3359   -51487.179    0.1564576 
   53900    290.29167   -498.83417    149236.33   -47531.334     3986.457   -51517.791    0.1481356 
   54000    291.11058   -513.66312    149231.92   -47543.223    3997.7028   -51540.926   0.15915827 
   54100    294.70728   -539.46545    149211.47   -47513.848    4047.0948   -51560.943   0.15341226 
   54200    291.70626   -499.62031     149242.2   -47461.334    4005.8831   -51467.217   0.15841555 
   54300    296.45281   -478.50097    149262.69   -47388.523    4071.0655   -51459.588   0.15691461 
   54400     295.1166    -496.7768    149291.96   -47309.798    4052.7159   -51362.514    0.1568795 
   54500    299.05391   -478.91708    149252.12   -47378.464    4106.7853   -51485.249   0.15709824 
   54600    292.48434   -516.16264    149221.44   -47394.311     4016.568   -51410.879   0.16493579 
   54700    292.66228   -538.29225    149223.88    -47456.02    4019.0116   -51475.032   0.15773813 
   54800    289.93353   -564.85195    149229.97   -47384.912    3981.5389   -51366.451   0.17090866 
   54900    293.17287   -498.12933       149224   -47398.279    4026.0234   -51424.302   0.15644464 
   55000    293.07771   -503.84004    149241.74   -47435.529    4024.7166   -51460.246   0.15492265 
   55100    293.24102   -512.23151    149235.62   -47451.285    4026.9593   -51478.244   0.15995736 
   55200    290.67576   -503.68921    149211.19   -47561.988    3991.7316   -51553.719   0.15389123 
   55300    288.79589    -485.0465    149220.34   -47606.786    3965.9161   -51572.702   0.15622551 
   55400    292.53391   -466.93303    149215.78    -47568.79    4017.2488   -51586.039   0.15022087 
   55500     286.5894   -512.37939    149212.42   -47529.251    3935.6153   -51464.866   0.16272746 
   55600    291.31901   -490.77971    149246.88     -47426.6    4000.5651   -51427.165   0.15640781 
   55700    292.05568   -542.92057    149240.91   -47387.457    4010.6814   -51398.138   0.17076803 
   55800    294.80265   -489.01119    149271.12   -47373.484    4048.4045   -51421.888   0.15391278 
   55900    298.16704   -479.12254     149254.8   -47389.979    4094.6063   -51484.586   0.15891459 
   56000    294.26558   -492.99044    149263.83   -47402.244    4041.0291   -51443.273   0.15874762 
   56100    296.39218   -526.83894     149253.4   -47382.801    4070.2328   -51453.034   0.15512103 
   56200    288.31712   -512.89718     149239.7   -47422.083    3959.3413   -51381.424   0.16838789 
   56300    290.95081   -506.88229    149240.47   -47491.282    3995.5087   -51486.791   0.15401565 
   56400    292.87277   -479.98508    149222.19   -47539.363    4021.9022   -51561.265   0.15536603 
   56500    288.76015   -515.27656    149198.43   -47591.082    3965.4253   -51556.508   0.15313882 
   56600    287.93028   -502.28271    149183.75   -47646.201    3954.0291    -51600.23   0.15459011 
   56700    288.11034    -507.4264    149176.05   -47621.006    3956.5017   -51577.508   0.15396339 
   56800    290.69105    -475.1169     149214.2    -47509.46    3991.9415   -51501.402   0.15714281 
   56900    288.93157   -516.99089    149222.46   -47609.564    3967.7794   -51577.343   0.15363225 
   57000    282.90539   -490.21907     149194.7   -47594.666    3885.0243    -51479.69   0.15764981 
   57100    291.74913   -490.04256    149221.99   -47514.784    4006.4718   -51521.256   0.15750667 
   57200     292.9335   -489.86286    149217.67   -47460.295    4022.7362   -51483.031   0.15700477 
   57300    291.21029   -484.25657     149210.6   -47601.566    3999.0721   -51600.638   0.15349933 
   57400    289.60068   -492.25697    149229.59   -47479.185    3976.9679   -51456.153    0.1579255 
   57500    294.71398   -488.28948    149237.68   -47439.225    4047.1869   -51486.412   0.15710311 
   57600    291.19219   -498.77163    149211.86   -47546.863    3998.8235   -51545.686   0.15525469 
   57700    291.19572   -473.00334    149209.81   -47455.896    3998.8719   -51454.768   0.16080965 
   57800    295.12764   -513.84396    149233.84   -47406.376    4052.8675   -51459.244   0.15773126 
   57900    291.64711   -515.48403    149228.97   -47445.178    4005.0708   -51450.249   0.16316134 
   58000    298.37966   -476.90402    149243.21    -47403.54    4097.5262   -51501.066   0.15528342 
   58100    299.59078   -477.08541    149236.65   -47449.851    4114.1579   -51564.009   0.15277702 
   58200    293.56192   -477.41322    149244.31   -47340.662     4031.366   -51372.028   0.16363019 
   58300    296.48959    -499.8416    149236.33   -47410.657    4071.5706   -51482.228   0.15074595 
   58400    290.11028   -509.44775    149227.96   -47457.553    3983.9661   -51441.519   0.16665724 
   58500    291.29474   -500.53699    149214.13   -47458.248    4000.2317   -51458.479    0.1526417 
   58600     294.7435   -501.82042    149191.25   -47493.836    4047.5922   -51541.428   0.15987032 
   58700      295.814   -484.28589    149193.33   -47447.002    4062.2929   -51509.295   0.15551785 
   58800    294.85158   -465.51704    149200.43   -47487.332    4049.0765   -51536.409   0.15633407 
   58900    296.80534   -490.09425    149243.78   -47413.843    4075.9067   -51489.749   0.16203127 
   59000    292.35702   -525.22676    149275.57   -47378.528    4014.8197   -51393.348   0.15783455 
   59100    297.93117   -501.22452     149268.8   -47339.261    4091.3671   -51430.629    0.1630353 
   59200    297.95949   -507.00072    149229.83   -47459.354     4091.756    -51551.11   0.14863179 
   59300    294.39183   -528.08672    149235.33   -47446.419    4042.7629   -51489.182   0.15960514 
   59400    292.50639   -483.00228    149233.95   -47426.323    4016.8709   -51443.193   0.15467766 
   59500    285.10531   -526.05863    149225.52     -47545.7    3915.2349   -51460.935   0.16027727 
   59600    291.62999   -495.96651    149214.64   -47516.677    4004.8357   -51521.513   0.15283233 
   59700    295.11482    -507.5962    149247.26   -47449.545    4052.6914   -51502.236   0.15750169 
   59800    290.32691   -514.01799    149238.45   -47568.599     3986.941    -51555.54   0.15268156 
   59900    289.64305   -529.05064    149219.71   -47558.166    3977.5498   -51535.716   0.15816345 
   60000    292.41684   -494.87412    149241.38   -47523.463    4015.6412   -51539.105   0.15222871 
   60100    288.82211   -485.93339    149235.72   -47485.832    3966.2761   -51452.108   0.15410071 
   60200    294.43519   -481.94174    149260.42   -47456.791    4043.3583   -51500.149   0.15579002 
   60300    293.86776   -456.03338     149276.5    -47414.98    4035.5661   -51450.546    0.1537033 
   60400    292.79754   -510.58148    149280.84   -47366.121    4020.8691    -51386.99   0.16535231 
   60500    297.95324   -515.20999    149268.35   -47392.815    4091.6702   -51484.485   0.15335505 
   60600    293.74671   -488.74298    149261.93    -47456.01    4033.9037   -51489.914   0.16112008 
   60700    297.21509   -486.33948    149303.43   -47278.174    4081.5336   -51359.708   0.15649076 
   60800    300.10884   -490.69634    149294.46   -47301.395    4121.2722   -51422.667   0.15995377 
   60900    294.87416   -529.33671     149316.9   -47399.591    4049.3865   -51448.977   0.16001978 
   61000    299.34866   -494.32445    149281.04   -47442.222     4110.833   -51553.055   0.15212235 
   61100    297.02627   -495.01705    149272.04   -47425.167    4078.9405   -51504.107   0.15885529 
   61200    299.18298   -490.26358    149287.39   -47359.856    4108.5578   -51468.414   0.15009826 
   61300     291.5859   -528.20349    149281.57   -47462.081    4004.2302   -51466.311   0.16066634 
   61400    292.37836   -515.55414    149295.19   -47514.025    4015.1127   -51529.137   0.14859287 
   61500    295.27828   -476.03742    149282.47   -47450.163    4054.9361   -51505.099   0.15568157 
   61600    294.32956   -505.46406    149273.48   -47497.197    4041.9077   -51539.105   0.14966583 
   61700    293.59363   -514.71736    149245.49   -47560.431    4031.8016   -51592.232    0.1531901 
   61800    292.90033    -529.6357    149251.46   -47552.888    4022.2808   -51575.169   0.15264835 
   61900     294.2611   -490.20749    149241.84   -47435.841    4040.9675   -51476.809   0.15466158 
   62000    290.41778   -494.73939    149219.47   -47449.577    3988.1888   -51437.765   0.16324287 
   62100    288.32426   -527.77513    149233.32   -47526.485    3959.4394   -51485.925   0.15036842 
   62200    292.60393   -533.76038     149259.8   -47415.504    4018.2103   -51433.714   0.16216934 
   62300    295.38572   -537.13037    149259.31   -47466.482    4056.4115   -51522.893   0.15110238 
   62400    293.18584   -475.43478    149261.01   -47514.162    4026.2015   -51540.364   0.14966584 
   62500    293.47614   -479.51126    149258.23   -47500.287    4030.1881   -51530.475   0.15178276 
   62600    290.42239   -482.34952    149258.71   -47528.921    3988.2521   -51517.173   0.15117083 
   62700    290.28953   -538.81894    149246.64   -47567.713    3986.4276    -51554.14    0.1555066 
   62800    291.30399   -529.33279    149233.96   -47535.991    4000.3588    -51536.35   0.15722342 
   62900     296.9804   -490.34878    149264.63   -47445.951    4078.3106   -51524.262   0.15348549 
   63000    295.97417   -484.68713    149275.81    -47479.35    4064.4925   -51543.843   0.15037936 
   63100    296.22181    -444.7697    149223.62   -47549.221    4067.8932   -51617.114   0.14777807 
   63200    295.68391   -521.45287    149260.56   -47428.339    4060.5064   -51488.845   0.15451585 
   63300    291.36928   -509.66334    149236.91   -47525.271    4001.2555   -51526.526   0.15970127 
   63400     287.2843    -502.5502    149230.01   -47616.547     3945.158   -51561.705   0.14709137 
   63500    287.41613   -508.70927    149228.21    -47588.54    3946.9684   -51535.509   0.15712621 
   63600    291.12777     -495.598    149237.22   -47643.372    3997.9389    -51641.31    0.1446703 
   63700    291.11709   -484.43234    149215.55   -47603.003    3997.7921   -51600.795   0.15486357 
   63800    287.84017   -487.94265    149207.14   -47679.052    3952.7916   -51631.843   0.14572466 
   63900    294.31008   -470.95533    149216.14   -47562.459    4041.6402   -51604.099   0.15001288 
   64000    293.01259   -519.29771    149248.07   -47476.069    4023.8223   -51499.891   0.15819519 
   64100    299.78076   -517.62357    149264.44   -47430.173    4116.7669    -51546.94   0.14900866 
   64200     297.3016   -481.33238    149270.28   -47417.945    4082.7216   -51500.667   0.16358765 
   64300    294.98875   -452.25582    149300.09   -47461.427    4050.9601   -51512.387   0.14384341 
   64400    289.59532    -533.9406    149277.89   -47516.764    3976.8944   -51493.659   0.15770565 
   64500    289.03376   -520.50581    149278.17   -47505.479    3969.1827   -51474.661   0.15338541 
   64600    292.24652   -465.23887    149279.22   -47542.934    4013.3022   -51556.236   0.14450823 
   64700    287.88495   -502.23991    149267.32    -47546.86    3953.4065   -51500.267   0.15582475 
   64800    294.90061   -484.21208    149297.17   -47494.252    4049.7498   -51544.002   0.14822212 
   64900    293.87158   -453.13002    149298.51   -47400.774    4035.6185   -51436.392   0.15236722 
   65000    292.77805   -512.28508    149316.75    -47399.65    4020.6014   -51420.251   0.15398162 
   65100    295.00424   -506.65302    149307.69   -47463.867    4051.1729    -51515.04   0.15006983 
   65200    290.42772   -514.81848    149254.22   -47476.237    3988.3253   -51464.562   0.15676313 
   65300    288.97753   -536.59792    149264.28   -47411.274    3968.4105   -51379.685   0.15959463 
   65400    294.36089   -509.54914    149246.11   -47454.883     4042.338   -51497.221    0.1555498 
   65500     300.8245   -421.33401    149282.27    -47386.69    4131.1001    -51517.79   0.15274508 
   65600    295.13081   -463.90859    149298.44   -47403.085    4052.9109   -51455.996    0.1492727 
   65700    299.58912   -489.33815    149297.61   -47364.511    4114.1351   -51478.646   0.15845104 
   65800    293.84269    -543.8233    149296.09   -47436.586    4035.2218   -51471.808   0.15380244 
   65900    295.01541   -525.38641    149274.27   -47447.177    4051.3262   -51498.503    0.1568942 
   66000    295.69871   -500.68371    149295.46   -47457.536    4060.7097   -51518.246   0.15383899 
   66100    295.20502   -514.74918     149291.5   -47426.986    4053.9301   -51480.916   0.14907123 
   66200    284.60756   -532.55887    149269.44   -47561.264    3908.3995   -51469.663   0.15721321 
   66300    293.43766   -495.48644    149287.75   -47489.783    4029.6597   -51519.442   0.14625684 
   66400    294.56795   -488.62585    149270.45   -47489.404    4045.1814   -51534.586    0.1549126 
   66500    294.81956   -489.30584    149292.42   -47528.722    4048.6366   -51577.358   0.14794378 
   66600    294.01266   -477.22927    149283.26   -47535.735    4037.5559   -51573.291   0.15040501 
   66700    292.73103    -486.1693    149280.52   -47519.161    4019.9558   -51539.117   0.15278856 
   66800    287.26904   -515.39905    149262.22    -47549.49    3944.9485   -51494.438   0.15215315 
   66900    287.34212   -491.78658    149268.27   -47557.492    3945.9521   -51503.444   0.15736385 
   67000    288.72062   -468.90529    149229.51   -47664.967    3964.8824    -51629.85   0.14362808 
   67100    289.05831   -494.98155    149237.33   -47493.216    3969.5199   -51462.736   0.15776463 
   67200     288.2012   -548.58831    149243.45   -47612.104    3957.7495   -51569.854   0.14999988 
   67300    292.95502   -473.74419    149250.55   -47521.243    4023.0317   -51544.275    0.1500362 
   67400    293.61885   -477.88355    149289.53   -47500.428    4032.1479   -51532.576   0.15107862 
   67500    292.63468   -508.97223    149259.79   -47486.208    4018.6327   -51504.841   0.15077204 
   67600     292.8347   -507.89693    149294.06   -47340.011    4021.3794    -51361.39   0.15880046 
   67700    299.89088   -525.15058    149257.15   -47411.465    4118.2791   -51529.744   0.15434394 
   67800    294.03798   -494.40295    149259.46   -47451.885    4037.9035   -51489.789   0.15420435 
   67900    291.87861   -547.41068    149239.34    -47490.55    4008.2499     -51498.8   0.15852885 
   68000    294.29275   -507.51445    149208.29    -47516.67    4041.4023   -51558.073   0.15178773 
   68100    292.88598   -508.27391    149242.09   -47529.151    4022.0836   -51551.234   0.15442568 
   68200    296.41515   -485.39551       149226   -47485.914    4070.5483   -51556.463   0.15136076 
   68300    289.43785   -529.60681    149245.97   -47433.737    3974.7319   -51408.469   0.15645279 
   68400    290.67321   -506.09915    149253.43    -47396.42    3991.6965   -51388.117   0.15515821 
   68500    297.68464   -495.38209    149283.52   -47402.037    4087.9816   -51490.018    0.1510172 
   68600    293.04753   -511.35216    149266.79   -47492.306    4024.3021   -51516.608   0.15278363 
   68700    294.78922   -499.81423    149258.24   -47467.688    4048.2201   -51515.908   0.15078815 
   68800    297.18225    -455.5938    149265.61   -47464.213    4081.0826   -51545.296   0.15144693 
   68900    295.50043   -489.04969    149251.19   -47465.019    4057.9868   -51523.005   0.15054271 
   69000    294.81478   -513.64981    149243.86   -47462.184     4048.571   -51510.755   0.15294005 
   69100    291.31591   -469.76186    149222.38   -47527.983    4000.5225   -51528.505    0.1498019 
   69200    288.95275   -501.42863    149241.39   -47539.863    3968.0701   -51507.934   0.15046006 
   69300    286.15808    -517.4377    149221.76    -47574.25    3929.6921   -51503.942   0.15424175 
   69400    282.58234   -503.29444    149207.05    -47622.54    3880.5879   -51503.128   0.15062201 
   69500    295.81243   -507.02144    149222.82   -47485.494    4062.2714   -51547.765   0.14986076 
   69600    295.58807   -480.32749    149271.48    -47376.19    4059.1903    -51435.38   0.15781174 
   69700     294.0165    -486.2608    149277.71    -47469.63    4037.6087   -51507.238   0.14737632 
   69800    296.94839   -496.92518    149262.81   -47469.289     4077.871    -51547.16   0.14899876 
   69900    289.50105   -504.31749    149244.61   -47569.801    3975.5997   -51545.401    0.1514241 
   70000     292.6049   -500.55517    149223.68   -47492.894    4018.2237   -51511.118   0.15248748 
   70100     288.6803   -528.03192    149225.61   -47620.836    3964.3287   -51585.164   0.14990536 
   70200     295.0871   -474.93603    149248.92   -47450.127    4052.3107   -51502.437   0.14894957 
   70300    292.15899   -466.03925    149241.72   -47456.209    4012.1002   -51468.309   0.15537758 
   70400    300.87491   -508.77115    149265.89   -47348.232    4131.7924   -51480.024   0.15297992 
   70500    301.18606   -484.64047    149277.16   -47424.159    4136.0653   -51560.225   0.15254422 
   70600    295.20101   -500.76388    149274.12   -47473.973     4053.875   -51527.848   0.15034174 
   70700    295.68048   -501.82671    149266.24   -47444.763    4060.4593   -51505.222   0.15187945 
   70800    295.02904   -482.22524    149244.67   -47481.742    4051.5134   -51533.256   0.15364708 
   70900    293.07312   -507.91417    149232.14   -47472.439    4024.6536   -51497.092   0.15017536 
   71000    291.41301   -495.55783    149256.56   -47502.485    4001.8559   -51504.341   0.15800224 
   71100    292.02712   -477.71307    149256.74   -47485.933    4010.2893   -51496.222    0.1489614 
   71200    288.97526   -503.15139    149288.15   -47531.009    3968.3793   -51499.388   0.14915738 
   71300    287.74725   -504.09285    149264.09   -47581.359    3951.5156   -51532.875   0.15296297 
   71400    290.39733   -530.54558    149260.22   -47522.643    3987.9081   -51510.551   0.14926159 
   71500    289.94899   -521.42944    149266.57    -47476.04    3981.7512   -51457.791   0.15813453 
   71600    296.09242   -484.60185    149279.93   -47492.541    4066.1164   -51558.658   0.14299189 
   71700    292.22158   -483.18347    149264.39   -47481.446    4012.9597   -51494.406   0.15096115 
   71800    285.84506   -516.25238     149234.5     -47649.8    3925.3935   -51575.193   0.15039213 
   71900    288.97653   -468.96975    149209.25   -47589.012    3968.3968   -51557.409   0.14797092 
   72000    290.79047   -519.73781    149200.67   -47560.796    3993.3069   -51554.103   0.15470752 
   72100    289.63456   -492.55086    149224.65   -47419.513    3977.4332   -51396.946   0.15837511 
   72200    299.10747   -497.36762    149286.16   -47310.891    4107.5209   -51418.412   0.15513348 
   72300    299.44938   -475.02862     149306.4    -47288.44    4112.2161   -51400.656   0.15937379 
   72400    295.41104   -501.47175    149274.94   -47408.196    4056.7592   -51464.956    0.1525419 
   72500    295.98698   -511.36181    149267.68   -47413.362    4064.6684    -51478.03   0.15644604 
   72600    296.57237   -476.43782    149274.69    -47348.94    4072.7073   -51421.647   0.15536668 
   72700     288.4494   -551.10236    149248.26   -47519.323     3961.158   -51480.481   0.15243361 
   72800     296.5335   -475.63079    149229.42   -47439.421    4072.1735   -51511.595   0.15325124 
   72900    294.37305   -481.61589    149234.15   -47449.789    4042.5049   -51492.294   0.15129748 
   73000    295.77497   -516.74009    149227.47   -47460.493    4061.7569    -51522.25   0.15708062 
   73100     300.8091   -494.62086    149232.23   -47411.987    4130.8885   -51542.876   0.14636035 
   73200    293.75802   -535.44489    149259.56   -47399.275     4034.059   -51433.334   0.16055165 
   73300     295.3669   -499.05675    149265.91   -47375.819    4056.1531   -51431.972   0.15450913 
   73400    293.37577   -517.31926    149280.22   -47355.378    4028.8097   -51384.187   0.15647427 
   73500    297.69456   -512.22446    149297.51   -47369.687    4088.1179   -51457.805   0.15522787 
   73600     296.8129   -497.88943    149264.73   -47407.433    4076.0104   -51483.444    0.1522107 
   73700     295.0377   -516.21442    149258.27   -47471.168    4051.6323     -51522.8   0.15460057 
   73800    298.23915   -523.23231     149248.9   -47565.548    4095.5965   -51661.144   0.14632187 
   73900    290.18666   -521.35291    149229.23   -47541.201    3985.0149   -51526.216   0.15378833 
   74000    290.35024   -507.58986    149216.53   -47458.496    3987.2614   -51445.757     0.151894 
   74100     297.7036   -502.33612    149300.57   -47298.022     4088.242   -51386.264   0.15419392 
   74200    295.48808   -514.67965    149270.91   -47465.311    4057.8173   -51523.128   0.14838974 
   74300    297.59484   -486.33549    149232.66   -47460.604    4086.7484   -51547.353   0.15135612 
   74400    289.78946   -511.43619    149209.32   -47495.355    3979.5604   -51474.916   0.15240769 
   74500    291.17399   -501.26762    149203.73   -47504.642    3998.5736   -51503.216   0.15127321 
   74600    292.98906   -537.15716    149203.44   -47513.179    4023.4991   -51536.678   0.15695089 
   74700    291.34111   -514.17709    149214.67   -47424.463    4000.8686   -51425.332    0.1541729 
   74800    293.03868   -477.01824    149206.87   -47483.218    4024.1806   -51507.399   0.14982666 
   74900    288.78693   -482.92571    149200.21   -47483.433     3965.793   -51449.226   0.15034477 
   75000    294.59544    -477.5174    149219.36   -47466.962    4045.5589   -51512.521   0.15293602 
   75100    299.46981   -497.09066     149217.9   -47394.908    4112.4966   -51507.404   0.15241094 
   75200    296.89824   -442.25898    149231.73   -47444.891    4077.1823   -51522.073   0.15091462 
   75300    296.50989   -466.28149    149223.21   -47492.812    4071.8494   -51564.661    0.1490528 
   75400    292.60107   -509.34719    149207.38   -47509.161    4018.1711   -51527.332   0.15400532 
   75500    286.18901   -515.52506    149193.05    -47502.03    3930.1168   -51432.147   0.15642751 
   75600    295.98717   -538.69118    149214.31   -47433.074     4064.671   -51497.745   0.15531767 
   75700    293.10663    -512.0738    149225.93   -47391.317    4025.1137   -51416.431   0.16356152 
   75800       294.06   -499.75228    149233.15   -47410.215     4038.206   -51448.421    0.1492854 
   75900    295.88654   -450.95078    149241.46   -47430.581    4063.2891    -51493.87   0.15517739 
   76000     294.3385   -481.28564    149235.23   -47431.997    4042.0305   -51474.027   0.14912977 
   76100    290.46525   -534.26408    149216.03   -47527.971    3988.8408   -51516.812   0.15463166 
   76200    290.30498   -528.71319    149199.17   -47571.926    3986.6398   -51558.566   0.14965694 
   76300    293.43963   -491.98047     149207.2   -47503.802    4029.6867   -51533.488   0.14625957 
   76400    288.28989   -499.38891     149213.5     -47496.2    3958.9674   -51455.167   0.15707325 
   76500    290.75059   -482.18987    149234.66   -47484.953    3992.7591   -51477.712   0.15122128 
   76600    286.53305   -523.11459    149235.31   -47525.504    3934.8414   -51460.346   0.15767592 
[...]
   81900    292.00165   -469.05258    149239.43   -47534.615    4009.9395   -51544.554   0.14786092 
   82000    293.42174   -460.95973    149262.07   -47447.773     4029.441   -51477.214   0.14711458 
   82100    292.85356   -513.75911    149268.39   -47396.282    4021.6384    -51417.92   0.16186164 
   82200    294.30613    -510.8626    149265.91    -47408.41     4041.586   -51449.996    0.1507552 
   82300    295.57937   -480.14325    149239.36   -47486.263    4059.0709   -51545.334   0.15425141 
   82400    298.01448   -519.82202    149248.74   -47359.911    4092.5113   -51452.423   0.15535051 
   82500    298.72913   -532.00515    149291.02    -47258.84    4102.3252   -51361.165   0.16042468 
   82600    301.42442   -542.06017    149279.21   -47366.566    4139.3385   -51505.905    0.1574023 
   82700    293.19981   -527.35225    149276.73   -47447.202    4026.3933   -51473.595   0.14836395 
   82800    290.07959   -494.96173    149250.78   -47457.508    3983.5447   -51441.053   0.16028878 
   82900     294.6911   -486.24192    149263.31   -47408.993    4046.8726   -51455.865   0.14716807 
   83000    297.50454   -472.84732    149273.29    -47340.88    4085.5084   -51426.388   0.15859465 
   83100    292.93107   -509.70411    149282.46   -47385.291    4022.7028   -51407.993   0.14994689 
   83200    295.19472   -499.77733    149289.35   -47420.893    4053.7887   -51474.681   0.15066686 
   83300     297.7714   -495.11482    149266.99   -47407.379    4089.1732   -51496.552   0.15300194 
   83400    289.60671   -542.13564     149241.9   -47490.339    3977.0508    -51467.39   0.14801604 
   83500    287.35995    -490.3041    149219.64   -47597.059    3946.1969   -51543.256    0.1519546 
   83600    294.68837   -463.29882     149223.1   -47540.223    4046.8351   -51587.058   0.14310202 
   83700    287.69221   -515.75776    149225.21   -47569.694    3950.7597   -51520.454   0.14928738 
   83800    294.07017   -476.58768     149246.4   -47528.626    4038.3456   -51566.972   0.14591495 
   83900    287.53023   -523.40338    149256.28   -47526.556    3948.5354   -51475.091   0.15200941 
   84000    291.85298   -536.52233    149244.63   -47552.236    4007.8979   -51560.134    0.1497144 
   84100    293.42469   -507.32453    149247.11   -47473.057    4029.4815   -51502.538   0.15256214 
   84200    291.25537   -510.92275    149258.74   -47426.442    3999.6912   -51426.133   0.15311849 
   84300    296.36995   -475.58145    149247.87   -47483.815    4069.9276   -51553.742   0.15016847 
   84400    296.69307   -497.06348     149236.9   -47476.258    4074.3648   -51550.623   0.15072585 
   84500    289.32045   -533.73053    149231.49   -47533.223    3973.1196   -51506.343   0.15372366 
   84600    295.05575   -520.45127    149247.81   -47444.513    4051.8802   -51496.394    0.1514087 
   84700    288.60083   -504.38754    149253.57    -47454.84    3963.2374   -51418.077   0.15241377 
   84800    294.90061   -529.55861    149249.93   -47451.411    4049.7498   -51501.161    0.1511034 
   84900    298.31718   -491.66162    149274.62   -47371.543    4096.6681   -51468.211   0.14874532 
   85000    294.39456   -504.76672    149241.62   -47444.715    4042.8004   -51487.516   0.15765886 
   85100    293.03177   -438.96088    149250.01   -47467.894    4024.0858    -51491.98   0.14382295 
   85200    290.80382   -500.01886    149215.52   -47507.495    3993.4902   -51500.985   0.15456373 
   85300    293.56526   -521.31831    149220.14   -47515.235    4031.4119   -51546.647   0.15031084 
   85400    289.19245   -498.56603    149202.51   -47546.437    3971.3619   -51517.799   0.14741792 
   85500    292.69915   -515.02238    149203.15   -47486.875    4019.5179   -51506.392   0.15722112 
   85600    289.09888   -500.84643    149222.05   -47524.087     3970.077   -51494.164   0.14822662 
   85700    297.18864   -488.44109    149211.69   -47457.001    4081.1702   -51538.172   0.15100357 
   85800    294.60869   -502.24728    149227.69     -47453.4     4045.741   -51499.141   0.15121612 
   85900     299.2397   -465.07421    149219.08   -47416.918    4109.3367   -51526.254   0.14835412 
   86000    292.70522   -492.49713    149229.97   -47473.449    4019.6013    -51493.05   0.15305089 
   86100    292.85168   -500.10631    149228.56   -47443.608    4021.6126   -51465.221    0.1516717 
   86200    298.04915   -492.42326    149246.42   -47414.579    4092.9874   -51507.566   0.15107293 
   86300    295.58907   -483.81724    149225.84   -47457.183     4059.204   -51516.387   0.14612972 
   86400    291.86925   -472.92894    149213.96   -47516.951    4008.1213   -51525.072   0.14816801 
   86500    294.63504   -458.51103    149208.41   -47550.673    4046.1027   -51596.775   0.14770743 
   86600    300.75923   -466.89954    149235.63   -47385.055    4130.2038   -51515.259   0.15065018 
   86700    301.60664   -570.07443    149256.13       -47393    4141.8409   -51534.841   0.15541717 
   86800    295.53598   -515.31644    149239.46   -47511.904     4058.475   -51570.379   0.14399903 
   86900    292.78544   -544.86917    149216.28   -47496.944     4020.703   -51517.647   0.15150127 
   87000     295.2443   -509.39279    149239.85   -47467.911    4054.4695    -51522.38   0.15309027 
   87100    293.47941   -514.46792    149244.29   -47440.885     4030.233   -51471.118   0.15059941 
   87200    302.33603   -460.79539    149270.45   -47376.271    4151.8574   -51528.128   0.14978158 
   87300    296.26817   -484.39692    149271.97   -47388.612    4068.5299   -51457.142   0.14662578 
   87400    295.14496    -534.3663    149257.95   -47446.669    4053.1053   -51499.774   0.15033584 
   87500    293.29201   -502.33565    149264.77   -47418.515    4027.6595   -51446.174   0.15569429 
   87600    293.12682   -495.68576    149275.47   -47446.537     4025.391   -51471.928   0.14657619 
   87700    298.48499   -424.37864     149280.7   -47417.981    4098.9726   -51516.954   0.15035417 
   87800    292.83751   -471.64267       149254   -47501.067     4021.418   -51522.485   0.14365138 
   87900    290.36073   -481.91946     149235.8   -47522.656    3987.4055   -51510.061   0.14952008 
   88000    292.20907   -491.70489    149250.86   -47491.229    4012.7879   -51504.017   0.14852224 
   88100     292.3411   -527.91907    149264.96   -47463.653     4014.601   -51478.254   0.15038091 
   88200    287.98599   -521.92176     149241.5   -47561.783    3954.7941   -51516.578    0.1497847 
   88300    292.42448   -505.08177    149235.26   -47500.329     4015.746   -51516.075   0.14495712 
   88400    295.35367   -503.25962    149261.22   -47428.683    4055.9714   -51484.655   0.15140542 
   88500    288.88309   -541.67262     149257.5   -47509.586    3967.1136     -51476.7   0.15081745 
   88600    290.47676   -509.60099    149246.55   -47494.073    3988.9988   -51483.072   0.15225635 
   88700    297.36395   -476.32369    149256.73   -47467.678    4083.5778   -51551.256   0.14820631 
   88800    289.42576   -514.72352    149241.96   -47528.006    3974.5658   -51502.571   0.14612174 
   88900    292.83219   -496.72572    149261.11   -47467.299    4021.3449   -51488.644   0.14981724 
   89000     295.7382   -474.81119    149266.65   -47427.997    4061.2521   -51489.249   0.14806236 
   89100    290.56817   -527.52185    149254.76   -47484.295    3990.2541   -51474.549   0.14884674 
   89200    293.34549   -492.15858    149267.44   -47438.026    4028.3939    -51466.42   0.15141485 
   89300    287.67558   -503.80208    149258.04   -47560.712    3950.5313   -51511.243   0.14393187 
   89400     294.6051   -515.93397    149271.11   -47463.014    4045.6916   -51508.705   0.15126699 
   89500    292.14141   -512.56246    149268.89   -47562.804    4011.8587   -51574.663   0.14575198 
   89600    287.43264    -468.4458    149255.07     -47586.8    3947.1951   -51533.995   0.14505162 
   89700    288.63215   -467.97414    149261.08     -47495.2    3963.6675   -51458.867   0.14869303 
   89800    291.95057   -496.74207    149284.35   -47436.632    4009.2381    -51445.87   0.15051399 
   89900    293.88068   -503.00024    149278.94   -47417.713    4035.7435   -51453.456   0.15212721 
   90000    297.12217   -542.65748     149281.3   -47447.193    4080.2575   -51527.451   0.15103933 
   90100    297.76636   -485.26854    149281.21   -47423.737    4089.1039   -51512.841   0.14900155 
   90200    291.78896   -545.63712    149269.05   -47499.129    4007.0187   -51506.147    0.1519046 
   90300    291.01715   -521.35681    149234.39   -47469.937    3996.4197   -51466.356   0.14879503 
   90400     299.8221   -489.89831    149247.17   -47457.368    4117.3346   -51574.702   0.14887009 
   90500    296.70017    -509.7758    149250.68   -47471.546    4074.4624   -51546.009   0.14688863 
   90600    287.52386   -524.27307    149249.36    -47494.42    3948.4478   -51442.868   0.15217721 
   90700    292.50404    -506.2535    149239.03   -47527.769    4016.8386   -51544.608   0.14877997 
   90800    290.25634   -498.33394    149230.16   -47542.454    3985.9719   -51528.426   0.14532347 
   90900    290.59431    -507.0628    149221.45   -47515.104     3990.613   -51505.717   0.15403195 
   91000    289.20443   -543.02217    149221.92   -47535.523    3971.5264   -51507.049   0.14586905 
   91100    289.52134   -461.37409    149202.31   -47640.999    3975.8785   -51616.877   0.14399132 
   91200    287.89104   -504.91463    149209.23   -47583.474    3953.4901   -51536.964   0.14587929 
   91300     286.6782   -475.35843    149217.77   -47514.055    3936.8347    -51450.89    0.1529451 
   91400    295.67788   -508.21524    149252.48   -47495.563    4060.4237   -51555.987   0.15119818 
   91500    297.04482   -500.90579    149292.67   -47328.385    4079.1952   -51407.581   0.14820244 
   91600    297.79936   -501.56729    149268.28   -47395.066    4089.5571   -51484.623   0.15345257 
   91700    293.66692   -513.56516    149240.09   -47456.842    4032.8079    -51489.65    0.1485064 
   91800     296.9258    -503.2604    149253.59   -47429.542    4077.5609   -51507.103   0.15288102 
   91900    299.31154   -504.45216    149244.04   -47421.047    4110.3233    -51531.37   0.15275539 
   92000      292.948   -522.37648    149243.16   -47470.613    4022.9354   -51493.549   0.14808094 
   92100      294.819   -492.21443    149225.95   -47454.366     4048.629   -51502.995   0.15317174 
   92200    295.48005   -492.90217     149207.1   -47483.203    4057.7069    -51540.91    0.1466647 
   92300    296.29516   -437.08829    149252.09   -47359.854    4068.9005   -51428.754   0.15300499 
   92400     296.1962   -491.56932    149244.89   -47407.644    4067.5415   -51475.186   0.14901428 
   92500     293.8679     -485.259    149244.21   -47404.353    4035.5679   -51439.921   0.15127938 
   92600     303.9293   -455.67429    149265.89   -47315.957    4173.7371   -51489.694   0.14812167 
   92700    289.88344   -557.03223    149240.34   -47445.094    3980.8509   -51425.945   0.15455029 
   92800     291.0238   -508.19752    149227.61   -47448.892    3996.5111   -51445.403   0.15502127 
   92900     291.3291   -528.66622    149230.33   -47491.274    4000.7037   -51491.978   0.15207538 
   93000    290.20024   -531.99652    149240.14   -47505.041    3985.2014   -51490.242   0.14833505 
   93100    295.05315   -503.73185    149237.81   -47415.957    4051.8445   -51467.801   0.15272424 
   93200    295.36767   -516.06254    149253.99   -47478.384    4056.1636   -51534.547   0.14743285 
   93300    296.19512   -463.36314       149239   -47522.142    4067.5267   -51589.669   0.14589472 
   93400    290.87202    -453.5365     149188.2   -47579.171    3994.4267   -51573.598   0.14925273 
   93500    286.50309   -481.36221    149234.16   -47587.255      3934.43   -51521.685   0.14373267 
   93600    293.51737   -492.66442    149227.08   -47535.382    4030.7542   -51566.136   0.15259379 
   93700    292.89822   -497.80921    149247.65   -47516.933    4022.2517   -51539.184   0.14338125 
   93800    285.83706   -531.49094    149244.51   -47514.315    3925.2837   -51439.599   0.15885556 
   93900    288.60735   -519.21884    149238.71   -47594.768     3963.327   -51558.095   0.14597638 
   94000    290.46482   -517.59058    149213.07   -47559.447    3988.8348   -51548.282   0.15092423 
   94100    296.45107   -472.88708    149250.26   -47438.866    4071.0416   -51509.907    0.1533819 
   94200    296.64535   -515.81122    149253.79   -47425.462    4073.7095   -51499.171   0.14348182 
   94300    293.84743   -513.27019    149262.21   -47441.394    4035.2869   -51476.681    0.1579051 
   94400     297.0211   -472.47402    149259.03    -47428.88    4078.8696    -51507.75   0.14490602 
   94500    292.43036   -527.11594    149264.95   -47439.541    4015.8268   -51455.367    0.1588525 
   94600    297.64311   -476.41769       149257   -47442.542    4087.4114   -51529.953   0.14839636 
   94700    293.11428   -510.71085    149250.12   -47487.709    4025.2188   -51512.927   0.14844786 
   94800    288.76672   -539.25794    149235.89   -47530.006    3965.5155   -51495.522   0.15464199 
   94900     289.7333   -509.63947    149236.62   -47556.836    3978.7891   -51535.625   0.14451722 
   95000    285.62465   -498.42628    149231.28   -47510.641    3922.3668   -51433.007   0.15622304 
   95100    288.99059   -522.30097    149233.07   -47472.048    3968.5898   -51440.637   0.15070809 
   95200    292.96559   -489.54298    149246.84   -47506.423    4023.1769     -51529.6   0.15025341 
   95300    292.80238   -492.95195    149225.14   -47457.385    4020.9356   -51478.321   0.15370837 
   95400    291.03173   -480.78239    149249.31   -47418.385      3996.62   -51415.005     0.148376 
   95500    295.65695   -524.80736    149243.75   -47443.437    4060.1362   -51503.573   0.15456827 
   95600    299.16699   -466.43508    149252.55   -47424.494    4108.3382   -51532.832   0.14747045 
   95700    291.04401    -529.4139    149243.06   -47468.771    3996.7886    -51465.56   0.15053434 
   95800    291.76676   -472.63508    149220.15    -47403.04    4006.7139   -51409.754   0.15536661 
   95900    293.51237   -462.03027    149249.59   -47426.483    4030.6855   -51457.169    0.1478116 
   96000    298.95585   -469.47658    149266.73   -47392.933    4105.4386   -51498.372   0.15172131 
   96100    296.31839   -523.92432    149279.14   -47340.457    4069.2195   -51409.676     0.155594 
   96200    298.12699   -469.86661    149275.75   -47368.702    4094.0562   -51462.758   0.14871386 
   96300     295.4383   -484.32798    149252.35   -47381.089    4057.1337   -51438.222   0.16020102 
   96400    295.57934   -511.02321    149244.81   -47434.858    4059.0704   -51493.928   0.14725205 
   96500    294.27794    -495.3594    149246.52   -47429.401    4041.1988     -51470.6   0.15841641 
   96600    297.84911   -485.96413    149236.79   -47482.742    4090.2403   -51572.982   0.14636953 
   96700    294.15009   -446.12129    149240.58   -47451.593    4039.4431   -51491.036   0.14907831 
   96800    294.44428   -531.45436    149230.48   -47473.693    4043.4832   -51517.176   0.15168402 
   96900     295.2544   -478.61349    149227.81   -47481.772    4054.6082    -51536.38   0.14639878 
   97000    291.27668   -529.20417    149216.42   -47557.506    3999.9838    -51557.49   0.15442237 
   97100    291.17039   -488.88335    149255.38   -47525.448    3998.5241   -51523.972   0.14068116 
   97200    292.11998    -512.8049    149241.77   -47465.577    4011.5645   -51477.141   0.15883546 
   97300    300.14471   -502.77824     149281.8   -47357.929    4121.7648   -51479.693   0.14951049 
   97400    292.23644   -506.69897    149271.22   -47450.772    4013.1638   -51463.936   0.15250618 
   97500    296.04466   -481.99324    149260.14   -47423.289    4065.4605    -51488.75   0.15082982 
   97600    298.27623   -428.45832    149252.35   -47353.695    4096.1058     -51449.8    0.1475814 
   97700    300.45199   -456.25482    149263.93   -47313.216    4125.9846   -51439.201    0.1531444 
   97800    297.93972   -498.23179    149276.72   -47427.346    4091.4846   -51518.831   0.14814486 
   97900    296.79856   -500.14738    149268.29   -47387.976    4075.8135   -51463.789   0.15122976 
   98000    296.07637   -548.44475    149264.88   -47481.059     4065.896   -51546.955   0.15454514 
   98100    293.56277   -500.12014    149260.09   -47462.079    4031.3778   -51493.457    0.1494454 
   98200    293.07032   -503.52671    149290.03   -47458.058    4024.6152   -51482.673   0.14549313 
   98300    294.86873   -486.83737     149275.5   -47389.128    4049.3119   -51438.439   0.15493967 
   98400    290.63382   -503.57311    149296.77   -47441.152    3991.1556   -51432.308   0.14631827 
   98500    292.12208   -511.88417    149273.56   -47418.135    4011.5934   -51429.729   0.15207784 
   98600    292.42668   -484.31285    149253.25    -47417.43    4015.7762   -51433.207   0.14944661 
   98700     297.3014   -489.91187    149241.73   -47388.415    4082.7188   -51471.134   0.15506766 
   98800    295.53491   -498.28034    149259.07   -47394.796    4058.4603   -51453.257   0.15331265 
   98900    297.19357   -428.95902    149257.38   -47461.515    4081.2381   -51542.753   0.14757011 
   99000    296.54177   -522.15341    149248.53    -47455.43    4072.2871   -51527.717   0.14984361 
   99100    292.31097   -516.49174       149235   -47521.224    4014.1873   -51535.412   0.14769491 
   99200    294.10662   -490.18195    149222.93   -47520.299    4038.8462   -51559.146   0.15123501 
   99300    292.91292   -500.82408    149235.28   -47442.071    4022.4536   -51464.524   0.14559617 
   99400    293.44069    -491.0364    149212.15   -47486.064    4029.7013   -51515.766   0.15615166 
   99500    292.60264   -516.50234    149229.31   -47440.934    4018.1927   -51459.127   0.14849417 
   99600    290.08673   -525.95403    149229.91   -47432.553    3983.6427   -51416.196   0.15035793 
   99700    292.72181   -542.72962    149232.89   -47480.766    4019.8292   -51500.595   0.15436302 
   99800    292.07201    -519.5906    149234.05   -47492.481    4010.9058   -51503.387   0.14876114 
   99900    286.61375   -495.58579    149216.67   -47545.094    3935.9496   -51481.044   0.15363897 
  100000    296.02719   -479.86866    149246.13   -47465.068    4065.2206   -51530.289    0.1443607 
Loop time of 52.2494 on 6 procs for 100000 steps with 4608 atoms

Performance: 826.804 ns/day, 0.029 hours/ns, 1913.898 timesteps/s
97.7% CPU use with 6 MPI tasks x no OpenMP threads

MPI task timing breakdown:
Section |  min time  |  avg time  |  max time  |%varavg| %total
---------------------------------------------------------------
Pair    | 38.508     | 38.686     | 38.96      |   2.7 | 74.04
Neigh   | 6.2934     | 6.3753     | 6.5077     |   3.7 | 12.20
Comm    | 4.2263     | 4.5385     | 4.8047     |   9.4 |  8.69
Output  | 0.16725    | 0.16809    | 0.17136    |   0.4 |  0.32
Modify  | 1.8202     | 1.8703     | 1.9039     |   2.3 |  3.58
Other   |            | 0.6113     |            |       |  1.17

Nlocal:        768.000 ave         782 max         757 min
Histogram: 1 1 2 0 0 0 0 0 0 2
Nghost:        1393.33 ave        1406 max        1373 min
Histogram: 1 0 1 0 0 0 0 2 0 2
Neighs:        0.00000 ave           0 max           0 min
Histogram: 6 0 0 0 0 0 0 0 0 0
FullNghs:      21874.3 ave       22287 max       21561 min
Histogram: 1 1 2 0 0 0 0 0 0 2

Total # of neighbors = 131246
Ave neighs/atom = 28.482205
Neighbor list builds = 6329
Dangerous builds = 0

undump              1
unfix               2
unfix               3
unfix               4




################################################
#######         Run Simulation         #########
################################################

reset_timestep      0
log                 log.run_${NAME}
log                 log.run_ice_294K_-500atm_ML
