

read_data data.ice_${TEMP}K_${PRES}atm_ML group ice
read_data data.ice_294K_${PRES}atm_ML group ice
read_data data.ice_294K_-500atm_ML group ice
Reading data file ...
  orthogonal box = (-0.031063067 -0.027611615 -0.027611615) to (57.301573 50.934732 50.934732)
  3 by 1 by 2 MPI processor grid
  reading atoms ...
  4608 atoms
  reading velocities ...
  4608 velocities
  read_data CPU = 0.029 seconds
read_data data.liq_${TEMP}K_${PRES}atm_ML add append shift ${X_HI} ${YZ_LO} ${YZ_LO} group water
read_data data.liq_294K_${PRES}atm_ML add append shift ${X_HI} ${YZ_LO} ${YZ_LO} group water
read_data data.liq_294K_-500atm_ML add append shift ${X_HI} ${YZ_LO} ${YZ_LO} group water
read_data data.liq_294K_-500atm_ML add append shift 50.9347316150334 ${YZ_LO} ${YZ_LO} group water
read_data data.liq_294K_-500atm_ML add append shift 50.9347316150334 0.027611615032118 ${YZ_LO} group water
read_data data.liq_294K_-500atm_ML add append shift 50.9347316150334 0.027611615032118 0.027611615032118 group water
Reading data file ...
  orthogonal box = (-0.031063067 -0.086837629 -0.086837629) to (104.43822 51.049181 51.049181)
  3 by 1 by 2 MPI processor grid
  reading atoms ...
  4608 atoms
  reading velocities ...
  4608 velocities
  read_data CPU = 0.016 seconds

write_data data.icewater_test
System init for write_data ...
WARNING: Communication cutoff is 0.0. No ghost atoms will be generated. Atoms may get lost. (../comm_brick.cpp:167)

# Define potential
#
pair_style sw
pair_coeff * * /data/emrosky-sim/Freezing_Simulations/Melting/MLmW_fancy/ML_mW.sw mW
Reading sw potential file /data/emrosky-sim/Freezing_Simulations/Melting/MLmW_fancy/ML_mW.sw with DATE: 2019-02-27

# Delete water and ice atoms that are overlapping
#
delete_atoms overlap 2.5 water ice
System init for delete_atoms ...
Neighbor list info ...
  update every 1 steps, delay 10 steps, check yes
  max neighbors/atom: 2000, page size: 100000
  master list distance cutoff = 6.0032907
  ghost atom cutoff = 6.0032907
  binsize = 3.0016454, bins = 35 18 18
  2 neighbor lists, perpetual/occasional/extra = 1 1 0
  (1) command delete_atoms, occasional, copy from (2)
      attributes: full, newton on
      pair build: copy
      stencil: none
      bin: none
  (2) pair sw, perpetual
      attributes: full, newton on
      pair build: full/bin/atomonly
      stencil: full/bin/3d
      bin: standard
Deleted 715 atoms, new total = 8501

# set timestep
#
timestep 10.0

# Define output
#
compute 1 all msd
thermo 50
thermo_style custom step temp press vol etotal ke pe c_1[4]

# Neighbor lists
#
neigh_modify delay 0 every 1 check yes

# Set fixes
#
fix 1 all momentum 10 linear 1 1 1 rescale
fix 2 all nph iso ${PRES} ${PRES} ${PCOUPL}
fix 2 all nph iso -500 ${PRES} ${PCOUPL}
fix 2 all nph iso -500 -500 ${PCOUPL}
fix 2 all nph iso -500 -500 10000.0
fix 3 all temp/csvr ${TEMP} ${TEMP} ${TCOUPL} 837492
fix 3 all temp/csvr 294 ${TEMP} ${TCOUPL} 837492
fix 3 all temp/csvr 294 294 ${TCOUPL} 837492
fix 3 all temp/csvr 294 294 5000.0 837492


# Fix ice atoms in place
#
velocity ice set 0.0 0.0 0.0
fix 4 ice setforce 0.0 0.0 0.0

# Run 1.0 ns equilibration of water
#
dump 1 all atom 1000 eq.all.${NAME}.dump
dump 1 all atom 1000 eq.all.coexist_294K_-500atm_ML.dump
run 100000
Neighbor list info ...
  update every 1 steps, delay 0 steps, check yes
  max neighbors/atom: 2000, page size: 100000
  master list distance cutoff = 6.0032907
  ghost atom cutoff = 6.0032907
  binsize = 3.0016454, bins = 35 18 18
  1 neighbor lists, perpetual/occasional/extra = 1 0 0
  (1) pair sw, perpetual
      attributes: full, newton on
      pair build: full/bin/atomonly
      stencil: full/bin/3d
      bin: standard
Per MPI rank memory allocation (min/avg/max) = 4.590 | 4.598 | 4.603 Mbytes
Step Temp Press Volume TotEng KinEng PotEng c_1[4] 
       0    133.82652   -1126.9697    273175.94    -83757.22    3390.7471   -87147.967            0 
      50    156.60231   -846.50351    271963.69   -83434.567    3967.8149   -87402.382   0.88452661 
     100    167.46935   -186.13815    269788.38   -83092.449    4243.1517   -87335.601    1.8625051 
     150    171.03588    141.89655    268958.18    -82741.55    4333.5166   -87075.067    2.9846816 
     200    179.70246   -301.64392    269565.44   -82512.954    4553.1006   -87066.055    4.0292877 
     250     185.8347   -635.55951    270349.25   -82213.498    4708.4725    -86921.97     5.124516 
     300    188.41474   -558.46582    270947.07    -81877.13    4773.8428   -86650.973     6.391061 
     350    192.11526   -591.71349    271188.72   -81658.666    4867.6023   -86526.268    7.7461706 
     400    197.23521    -363.1331    271155.02    -81433.45     4997.326   -86430.776    9.1487232 
     450    202.04063   -395.97286    271167.83   -81172.401    5119.0802   -86291.481    10.748559 
     500    202.47473   -543.55673    271634.76   -80968.578    5130.0792   -86098.657    12.383661 
     550    210.18599   -779.89812     272061.6   -80764.045    5325.4584   -86089.504     14.16142 
     600    212.65807   -302.95545    271926.28   -80574.299     5388.093   -85962.392    16.010679 
     650     215.0837   -646.07354    272123.99   -80369.187    5449.5511   -85818.738    17.907595 
     700    220.83423   -230.96187    272248.25   -80175.901    5595.2516   -85771.153    20.036351 
     750    222.48532   -767.37304    272766.19   -80009.736     5637.085   -85646.821    22.346301 
     800    225.44914   -639.04171    273137.71   -79816.395     5712.179   -85528.574    24.703178 
     850    230.26903   -468.01761    273119.78   -79621.765    5834.3002   -85456.065    26.930613 
     900    232.58696   -590.74103     273047.7   -79448.037    5893.0291   -85341.066    28.939542 
     950    238.58902   -733.62755    273094.11    -79292.76    6045.1026   -85337.863    31.059896 
    1000    240.00925   -378.01157    273037.37   -79154.863    6081.0868   -85235.949    33.269582 
    1050    243.36677   -583.13235    273194.36   -79040.989     6166.156   -85207.145    35.506957 
    1100    238.04379   -515.64241    273506.02   -78924.898    6031.2882   -84956.186    37.889505 
    1150    237.54403   -291.97781    273517.29   -78800.263    6018.6258   -84818.888    40.173178 
    1200    249.03737   -450.90957    273510.87   -78708.676    6309.8313   -85018.507    42.622531 
    1250    247.16912   -310.48275    273679.03   -78601.592    6262.4956   -84864.087     45.08557 
    1300    247.78693   -617.26275    274175.06   -78511.284     6278.149   -84789.433    47.786089 
    1350    251.04642   -661.36054    274241.54   -78415.801    6360.7343   -84776.536    50.368033 
    1400    254.25317   -440.33914    273833.55   -78293.639    6441.9835   -84735.623    52.671571 
    1450    253.24329   -439.35824    273586.97   -78180.486    6416.3962   -84596.882    55.003827 
    1500    259.24282   -698.72851    273825.81   -78105.724    6568.4057    -84674.13    57.643851 
    1550    254.30775   -256.04362    274375.13   -78023.834    6443.3663   -84467.201    60.412369 
    1600    260.23634   -505.83111    274909.68   -77932.653    6593.5782   -84526.232    62.992527 
    1650    259.88705    -586.4102       274997   -77865.448    6584.7285   -84450.177    65.887359 
    1700    256.99028   -508.58829    274750.32   -77761.282    6511.3334   -84272.615    68.494055 
    1750    262.89203    -152.7299    274299.06   -77703.064    6660.8653    -84363.93    70.888845 
    1800    264.44609   -443.76027    274487.01   -77603.943    6700.2403   -84304.184    73.673931 
    1850     268.0141   -342.01803    274910.71   -77514.864    6790.6426   -84305.506    76.637923 
    1900     265.7623   -831.15095    275399.33   -77418.906     6733.589   -84152.495    79.557331 
    1950    272.45723   -787.81983    275419.88   -77340.911    6903.2176   -84244.128    82.526007 
    2000    271.91978    -249.4612    274994.38   -77256.394    6889.6004   -84145.995    84.986022 
    2050    271.95025   -297.93338    274872.14   -77240.397    6890.3724   -84130.769     88.14661 
    2100    271.35989   -450.44558    275184.97   -77204.914    6875.4144   -84080.329    91.481025 
    2150    277.17135   -607.45023    275460.12   -77146.082    7022.6586    -84168.74    94.810584 
    2200    280.06238   -701.04477    275681.78   -77074.703    7095.9084   -84170.611    97.911276 
    2250    276.76772   -608.10673    275905.91   -77043.502    7012.4319   -84055.934    101.23973 
    2300    279.47758   -472.66329    275891.06   -76948.706    7081.0913   -84029.798    104.34802 
    2350    280.86626   -663.83203    275711.49   -76865.579    7116.2762   -83981.855    107.50862 
    2400    281.21078   -416.75744     275575.7   -76837.337    7125.0053   -83962.342    110.22786 
    2450    282.54613   -515.77153    275714.77   -76787.628    7158.8389   -83946.466    113.14802 
    2500    287.91105   -527.12042    275923.52   -76712.967    7294.7694   -84007.737    116.61933 
    2550    280.75169   -667.43499    276333.81   -76682.187    7113.3733   -83795.561    119.85844 
    2600    283.13405    -490.6479    276369.35   -76656.715    7173.7351    -83830.45    123.36696 
    2650    287.28193   -137.26598    276102.67   -76586.482    7278.8293   -83865.312    126.74259 
    2700    285.10724   -173.24604     275841.1   -76554.591    7223.7294   -83778.321    129.83253 
    2750    286.90002   -630.00034    275820.06   -76569.348    7269.1529   -83838.501    132.32977 
    2800    286.17574   -455.77964    275694.25   -76546.825     7250.802   -83797.627    135.01084 
    2850     289.7813   -456.84571    275704.19   -76561.872    7342.1557   -83904.028    138.27584 
    2900    283.46033   -478.93751    276003.89   -76575.034     7182.002   -83757.036    141.32024 
    2950    282.10794   -610.61555    276239.18   -76566.755    7147.7365   -83714.492    144.38353 
    3000    284.50816   -395.44284    276179.59   -76514.545    7208.5506   -83723.095    147.56094 
    3050    287.38201    -337.5428    276109.64   -76515.414    7281.3651   -83796.779    151.00078 
    3100    287.33948   -562.72253    276259.46   -76506.618    7280.2875   -83786.906    153.88949 
    3150    288.47678    -444.0068    276499.71   -76508.411    7309.1032   -83817.514    156.91721 
    3200    289.01794   -888.64808    276411.13   -76463.404    7322.8144   -83786.219    160.25419 
    3250    287.77821   -493.61065    275884.63   -76431.467    7291.4037    -83722.87    162.74511 
    3300     291.4151   -246.55235    275603.98   -76392.426    7383.5511   -83775.977    166.26774 
    3350    292.98258   -532.01995     276014.5    -76293.74    7423.2662   -83717.006    169.18611 
    3400    290.03103   -660.01266     276772.9   -76333.456    7348.4829   -83681.939    172.89003 
    3450    291.36379    -799.6382    277088.45    -76355.43     7382.251   -83737.681     177.2318 
    3500    291.44806   -456.70178    276541.84   -76340.318     7384.386   -83724.704    179.65174 
    3550    288.44733   -79.101567     276021.6   -76290.997     7308.357   -83599.354    182.45117 
    3600    289.77435   -412.87848    276219.56   -76311.793    7341.9796   -83653.773    185.21037 
    3650     286.9085   -456.01901    276514.33   -76312.046    7269.3678   -83581.414    188.04233 
    3700     287.4761   -732.51944    276612.19   -76303.501    7283.7489   -83587.249    190.98453 
    3750    289.18915   -198.98708     276103.6    -76334.13    7327.1525   -83661.282    194.04497 
    3800    293.52974    -623.9535    276012.86   -76337.282    7437.1294   -83774.412    196.68731 
    3850    287.38164   -319.13466    276186.03   -76319.633    7281.3556   -83600.989    199.95153 
    3900    289.93782   -592.57659    276587.21   -76323.342    7346.1213   -83669.464    203.50523 
    3950    293.87382   -539.52967    276822.36   -76273.976    7445.8473   -83719.823    206.79579 
    4000    289.54166   -601.77433    276668.17   -76280.537    7336.0838   -83616.621    209.12647 
    4050    295.60576   -422.58443    276215.34   -76273.372    7489.7293   -83763.101    211.92571 
    4100     288.6721   -212.42806     275812.1   -76265.943    7314.0519   -83579.995    214.81322 
    4150     291.7942   -323.13709    275908.75   -76224.747    7393.1562   -83617.903    218.20636 
    4200    291.17844   -655.40161    276509.51   -76218.435    7377.5547   -83595.989     222.3544 
    4250    294.69208   -764.27826    276962.19   -76187.962    7466.5796   -83654.541     225.9286 
    4300    287.49186   -555.54885    276896.75   -76196.483    7284.1483   -83480.632    229.37349 
    4350    291.62491   -590.65788    276425.61   -76217.916     7388.867   -83606.783    231.84076 
    4400    289.72439   -525.06763    276024.95    -76208.47    7340.7137   -83549.184    233.97043 
    4450    294.15955   -456.13351    275946.58   -76147.532    7453.0867   -83600.619    236.95032 
    4500    295.55768   -375.35608     276312.1   -76096.447     7488.511   -83584.958    240.17493 
    4550    294.03094   -664.59171    277073.91   -76049.805    7449.8282   -83499.633    244.42454 
    4600    299.39301   -697.97093    277302.61   -76048.245    7585.6865   -83633.932    247.74305 
    4650    291.86028   -423.51996     277093.8   -75980.829    7394.8305   -83375.659    251.29256 
    4700    294.54433   -466.36357    276689.72   -75967.165    7462.8359   -83430.001    255.41676 
    4750    301.40785   -517.10012    276360.59   -75994.065    7636.7362   -83630.801    257.73235 
    4800    294.41986   -291.02227    276160.61   -75996.192    7459.6822   -83455.874     259.9569 
    4850    298.65338   -613.54085    276603.29    -76003.22    7566.9465   -83570.166    263.71333 
    4900    294.81487   -612.77532    277167.23    -75989.38    7469.6906   -83459.071    267.36052 
    4950    294.20198   -718.45948    277242.34   -76001.643    7454.1618   -83455.805    270.30042 
    5000    302.81049   -573.49786    276787.14   -76032.078    7672.2747   -83704.352     272.9598 
    5050     296.7334   -504.68585    276325.87   -76045.421    7518.3001   -83563.721    274.38245 
    5100    295.50334   -201.76993    276107.02   -76057.554    7487.1342   -83544.688    276.96755 
    5150    298.77641   -602.56751    276703.41   -76083.027    7570.0637   -83653.091    281.09552 
    5200    298.81655   -563.21106    277183.85   -76080.829    7571.0807    -83651.91      284.531 
    5250    290.65441   -783.75134    277081.36   -76052.396    7364.2774   -83416.673    287.13414 
    5300    293.78065   -536.40892    276363.43   -76044.279    7443.4868   -83487.765    289.72643 
    5350     296.1758   -146.80068    275830.75   -76018.007    7504.1722   -83522.179    291.63703 
    5400    292.05919   -586.22375    276048.72   -76071.344    7399.8702   -83471.214    295.81731 
    5450     287.8218   -455.42104    276513.73   -76047.741    7292.5079   -83340.249    299.67742 
    5500    296.17834   -573.34014    277300.74   -76040.756    7504.2368   -83544.993    303.05039 
    5550    290.08396   -719.68548    277717.12   -76079.894    7349.8242   -83429.718     305.7538 
    5600    292.15198   -475.96401    276744.51   -76153.267    7402.2212   -83555.488    308.18329 
    5650    290.77187   -306.85789    275723.39   -76242.952    7367.2536   -83610.206    309.89912 
    5700    292.35991    -328.1327    275724.07   -76217.881    7407.4895   -83625.371    312.67804 
    5750     291.7422   -587.82439       276531   -76186.166    7391.8388   -83578.005    316.64196 
    5800      289.623   -647.79215    277190.69   -76174.597    7338.1447   -83512.742    320.39147 
    5850    296.50445   -703.85189    277064.57   -76111.702    7512.4992   -83624.201     322.4389 
    5900    289.49159   -690.01553    276587.34   -76147.632    7334.8152   -83482.448    325.18252 
    5950    295.22785   -350.90646    276234.31   -76156.862    7480.1542   -83637.016     327.4301 
    6000    293.24483   -315.50746    276260.31   -76155.215    7429.9107   -83585.126    330.49207 
    6050    292.22107   -160.92619    276610.38   -76099.724    7403.9717   -83503.695    333.23252 
    6100    293.72748   -491.34348    277134.51   -76101.708    7442.1395   -83543.848    336.10901 
    6150    294.23829   -909.50857    277182.56   -76087.055    7455.0818   -83542.136      339.164 
    6200    293.77735    -550.9499    276638.54   -76107.721    7443.4032   -83551.124    341.81023 
    6250    297.17054   -331.31749    276025.13   -76099.134    7529.3759   -83628.509    344.12267 
    6300    294.71733   -411.21071    276044.09   -76057.139    7467.2192   -83524.359    347.40589 
    6350    295.08474   -418.03659    276459.02   -76030.339    7476.5281   -83506.867    350.52732 
    6400    296.64003   -529.49953    277130.14   -76091.412    7515.9345   -83607.347    354.12287 
    6450     290.6592   -729.31505    277677.08   -76087.471    7364.3988    -83451.87    358.00431 
    6500    292.11513   -500.38556    277263.32   -76029.173    7401.2876    -83430.46    360.56423 
    6550    293.84212   -674.08361    276389.71   -76015.955    7445.0442   -83460.999     362.3046 
    6600    297.25223   -287.37199    275740.68   -76040.328    7531.4456   -83571.774    364.68315 
    6650    292.98083   -409.77677    275970.33   -76085.212    7423.2216   -83508.434    367.20815 
    6700    291.84637   -607.41411    276726.06   -76097.775     7394.478   -83492.253    370.46235 
    6750    296.95592   -932.36438     276969.5   -76129.113     7523.938   -83653.051    374.58831 
    6800    299.45134   -443.86977    276564.47   -76107.338    7587.1642   -83694.502    377.37891 
    6850    291.90742   -432.97444    276237.45   -76099.349    7396.0249   -83495.374    380.07871 
    6900    297.90236    -508.6665    276139.81   -76070.994    7547.9181   -83618.912    382.91745 
    6950    289.23922   -427.55964    276577.99   -76057.193    7328.4211   -83385.614    385.73048 
    7000    295.07546   -530.23941    277059.48   -76032.502    7476.2932   -83508.795    388.13965 
    7050    297.50079   -553.28627    276989.43    -76028.49    7537.7433   -83566.233     390.9136 
    7100       303.03   -653.79326    276551.57    -76038.29    7677.8363   -83716.127    393.62946 
    7150    293.75033    -380.2539    276348.03   -76091.898    7442.7186   -83534.617    396.67717 
    7200    291.31059   -256.23928    276382.26   -76127.712    7380.9031   -83508.616    400.47244 
    7250    294.11121    -232.3713    276516.29   -76079.913    7451.8619   -83531.775    402.88377 
    7300     295.6982   -445.65186    276876.22   -76057.952    7492.0713   -83550.023    406.43853 
    7350    290.99058   -495.03456    276977.41   -76040.048    7372.7951   -83412.843    409.35812 
    7400    300.11053    -330.1226    276503.87   -76008.327    7603.8662   -83612.193    410.93823 
    7450    298.57993   -627.59182    276231.09   -75991.628    7565.0855   -83556.713    412.87641 
    7500    297.25331   -142.20054    276245.75   -76057.272    7531.4732   -83588.745    415.47601 
    7550    292.70562   -417.40539     276714.6   -76095.329    7416.2488   -83511.578    418.60566 
    7600    301.85628   -953.57735    277219.48   -76033.522     7648.098    -83681.62    421.80891 
    7650    295.61554   -596.97655    277063.65   -76041.499    7489.9771   -83531.476    426.26027 
    7700    293.82545   -733.62858    276573.55   -76032.763    7444.6217   -83477.385     428.4477 
    7750    299.63815   -241.30171    276161.29   -75999.365    7591.8976   -83591.263    429.08523 
    7800    295.35794   -333.35636    276223.26   -76033.019    7483.4504   -83516.469     432.1775 
    7850    300.23639   -661.70599    276465.07   -76008.389     7607.055   -83615.444    435.92738 
    7900     291.4626   -455.78447    276820.29   -76035.573    7384.7545   -83420.327    439.42704 
    7950    295.03775   -386.26931    277172.73   -76079.743    7475.3376   -83555.081    442.32101 
    8000    294.74651   -653.72238    277515.96   -76062.116    7467.9586   -83530.075    445.74508 
    8050    295.58558   -519.96758    277270.45   -76045.974    7489.2181   -83535.192    447.74953 
    8100    293.83381   -498.10728    276594.85   -76093.704    7444.8337   -83538.537    449.13212 
    8150    303.71402   -272.52534    275929.76   -76051.203    7695.1674    -83746.37    450.44125 
    8200    297.01356   -227.38007    276149.58   -76083.711    7525.3984   -83609.109    453.98841 
    8250    285.53219   -403.63433     276758.5    -76069.46    7234.4964   -83303.956    458.85066 
    8300    297.87335   -905.47124    277146.43   -76055.998     7547.183   -83603.181    462.48241 
    8350      295.267   -574.09885    276963.05   -76112.265    7481.1462   -83593.411    464.42635 
    8400    292.41189   -457.13612    276457.45   -76112.693    7408.8066     -83521.5    467.15132 
    8450    294.44718   -302.72948    276067.08   -76119.764    7460.3744   -83580.139    469.94303 
    8500    295.01834   -459.71352     276383.8   -76105.272    7474.8459   -83580.117    473.17283 
    8550    298.42922   -694.70992    276892.66   -76133.984    7561.2669   -83695.251     475.4287 
    8600    293.04108   -666.62775    276995.55   -76125.842    7424.7483   -83550.591    478.51511 
    8650    292.29016   -402.67759    276631.44   -76120.438    7405.7222    -83526.16    480.86163 
    8700    298.60387    -429.6874     276366.2   -76130.756    7565.6921   -83696.448    483.01462 
    8750    294.89031   -568.23132     276346.4    -76091.53     7471.602   -83563.132     485.8342 
    8800    293.46791   -608.26203    276487.93   -76107.364    7435.5628   -83542.926    488.70292 
    8850    294.44831   -601.47041    276881.79   -76151.866    7460.4032   -83612.269    491.69165 
    8900     288.9108   -586.62029    277163.58   -76167.813    7320.0998   -83487.912    494.22004 
    8950    283.96953   -624.80098    276931.78   -76145.747    7194.9034    -83340.65    497.14733 
    9000    289.33384   -207.06526    276272.61   -76133.087    7330.8184   -83463.905    499.14845 
    9050    290.60036   -270.81524    276087.72   -76130.106    7362.9079   -83493.013    501.37855 
    9100    294.19296   -554.96048    276208.77    -76194.31    7453.9334   -83648.244    505.22718 
    9150    295.78466   -311.43722    276348.76   -76157.656    7494.2619   -83651.918    508.77204 
    9200    290.63944   -544.60915    276827.65   -76157.262    7363.8981   -83521.161    512.07184 
    9250     298.0581   -578.00776     276856.3   -76194.485     7551.864   -83746.349    515.46807 
    9300    293.28104   -496.79251    276515.39   -76244.769    7430.8281   -83675.597    518.34424 
    9350    294.90593   -289.33069    276016.02   -76234.407    7471.9977   -83706.404    521.34122 
    9400    296.26193    39.764152    276040.67   -76230.947    7506.3545   -83737.302     524.5327 
    9450    292.17504   -791.39063    276651.25   -76176.314    7402.8055   -83579.119    528.20232 
    9500    289.59474   -635.08806    277031.02   -76193.229    7337.4287   -83530.658    531.88338 
    9550    288.12596    -311.5409    276955.17   -76179.559    7300.2145   -83479.774    535.44054 
    9600    291.90712   -499.22001    276407.36   -76162.964    7396.0172   -83558.981    537.96152 
    9650    289.51326   -367.55258    275967.23   -76197.079    7335.3643   -83532.443    540.59686 
    9700    289.35143   -405.73136    276279.44   -76192.356    7331.2641    -83523.62    543.42616 
    9750    291.87591   -456.61791    276579.11   -76194.869    7395.2264   -83590.095     547.2406 
    9800    291.42171   -568.17112    276841.17   -76187.283    7383.7186   -83571.001     550.0456 
    9850    288.21065   -287.16943    276817.68   -76179.529    7302.3603   -83481.889    552.40495 
    9900    294.48446   -460.02918       276854   -76189.876    7461.3191   -83651.195     554.5763 
    9950     296.1531   -779.77243    276706.92   -76161.364    7503.5972   -83664.961     557.3258 
   10000    297.15215   -217.11426    276341.87   -76166.697    7528.9101   -83695.607    559.18701 
   10050    291.22668   -528.30129    276450.76   -76167.382    7378.7769   -83546.158    561.94197 
   10100    297.20875   -552.55188    276499.13   -76141.804    7530.3439   -83672.148    564.31804 
   10150    293.81476   -770.31002    276657.14   -76122.536     7444.351   -83566.887    567.20396 
   10200    296.73774   -421.59339    276510.08   -76109.967    7518.4101   -83628.377    569.03651 
   10250    292.68233   -636.39594    276516.43   -76108.678    7415.6586   -83524.337    572.75401 
   10300    296.39765   -569.14642    276466.74   -76092.293    7509.7933   -83602.086    575.47007 
   10350    295.45751   -725.81094    276568.66   -76088.708     7485.973   -83574.681    578.06077 
   10400    295.03933   -525.40282    276708.71   -76155.759    7475.3777   -83631.137    580.19891 
   10450    289.52903   -428.03078    276801.35   -76127.181    7335.7637   -83462.945    583.24949 
   10500    293.02201   -471.97635    276713.86   -76125.653    7424.2652   -83549.918    586.42944 
   10550    295.14885   -434.88097    276480.53    -76111.32    7478.1526   -83589.473    588.55621 
   10600    299.70322   -719.29294    276551.19   -76114.165    7593.5463   -83707.711    591.25012 
   10650    293.96235   -332.58658    276544.27   -76094.339    7448.0904    -83542.43    594.35837 
   10700    298.54593    -296.5466    276582.57   -76128.635     7564.224   -83692.859    597.90548 
   10750    296.90634   -624.05848    276602.58   -76094.691     7522.682   -83617.373    601.02689 
   10800    297.64146   -602.32277    276401.31   -76121.432    7541.3075    -83662.74    603.26058 
   10850    298.97768   -347.95032    276229.07   -76072.483    7575.1633   -83647.647    605.46608 
   10900    293.12602   -497.67655    276340.28    -76067.48    7426.9004    -83494.38     608.7761 
   10950    294.43522   -194.13419    276857.33    -76063.65    7460.0714   -83523.721    612.89622 
   11000     292.0408   -600.75547    277391.67   -76095.997    7399.4044   -83495.402    616.80704 
   11050    296.54679   -724.04976       277070   -76128.043    7513.5721   -83641.615    618.40419 
   11100    293.66262   -369.89541    276426.13   -76107.941    7440.4961   -83548.438    620.17468 
   11150    289.10436   -405.69079    276068.45   -76113.501    7325.0041   -83438.505    621.65489 
   11200    293.93484   -362.69029    276243.75   -76102.195    7447.3934   -83549.589    624.90969 
   11250       292.68   -793.36964    276677.43   -76126.814    7415.5996   -83542.413    628.36226 
   11300    299.40079   -705.80138    276789.68   -76121.288    7585.8836   -83707.171    631.72778 
   11350    293.70853    -598.3095    276663.84   -76155.102    7441.6594   -83596.762    635.61343 
   11400    295.14617   -751.52758    276510.81   -76165.488    7478.0847   -83643.573    638.07078 
   11450    294.46245   -347.92652       276264   -76217.746    7460.7613   -83678.507     640.6381 
   11500    288.02452     -179.392    276231.39   -76208.677    7297.6444   -83506.322    643.94156 
   11550    292.68738   -713.02652    276339.04     -76232.8    7415.7867   -83648.586    647.73706 
   11600    298.80301   -500.07576    276253.62   -76220.429    7570.7377   -83791.167     649.7674 
   11650    289.53652   -279.24579    276171.04   -76200.592    7335.9538   -83536.545    652.89863 
   11700    293.57305   -459.95122    276187.89    -76168.06    7438.2268   -83606.287    655.18757 
   11750     289.6867   -336.03929    276401.51   -76178.753    7339.7587   -83518.512     655.9616 
   11800    294.97508   -768.20278    276771.69   -76189.518    7473.7499   -83663.268    658.74215 
   11850    295.48305    -340.7023    276732.34   -76117.915    7486.6202   -83604.535    661.20537 
   11900    292.45882   -604.00571    276647.45   -76195.676    7409.9956   -83605.672    663.76235 
   11950    290.76227   -260.82592    276540.53   -76190.619    7367.0103    -83557.63    667.23291 
   12000    292.35215   -449.86618     276557.5   -76191.322    7407.2929   -83598.615    669.89345 
   12050    291.68857   -594.74508     276402.4   -76180.806      7390.48   -83571.286     672.8223 
   12100    294.07917   -125.45214    276405.39   -76151.108    7451.0502   -83602.158    675.78248 
   12150     297.5278   -794.54018    276615.18   -76143.934    7538.4277   -83682.362    678.96217 
   12200    301.05946   -582.96507    276537.57   -76139.871    7627.9089    -83767.78    680.51989 
   12250    297.00386   -357.28881    276440.03   -76106.616    7525.1529   -83631.769    683.30141 
   12300    293.59032   -556.14526    276539.24   -76116.153    7438.6644   -83554.818    685.85395 
   12350     293.4075    -534.1779    276848.17   -76143.353    7434.0323   -83577.385    689.67663 
   12400    291.21015   -711.96056    277079.77   -76177.066    7378.3581   -83555.424    693.55521 
   12450    289.68647     -530.901    276766.74   -76147.225     7339.753   -83486.978     695.2779 
   12500    295.07753   -445.35928    276283.41   -76121.525    7476.3456   -83597.871    694.48222 
   12550    292.29428    -397.5202    276348.38   -76176.387    7405.8266   -83582.213    697.64737 
   12600    296.11019   -657.76991    276772.33   -76119.477      7502.51   -83621.987    701.99808 
   12650    291.92937   -668.67628    277133.71   -76124.171    7396.5811   -83520.752    706.11901 
   12700    291.96892   -589.04532    276870.28   -76099.735     7397.583   -83497.318    707.15115 
   12750    294.97438    -765.5823    276477.64   -76151.061    7473.7321   -83624.793    707.74875 
   12800    294.25136   -492.17854    276061.31   -76174.462     7455.413   -83629.875    708.91934 
   12850    290.21682   -397.02439    276147.17   -76166.939    7353.1903   -83520.129    711.35606 
   12900    292.82972   -705.18435     276586.5   -76148.462    7419.3929   -83567.855     713.9519 
   12950    289.18324     -614.929    276969.03   -76149.435    7327.0025   -83476.437    717.02425 
   13000    295.93783    -338.2184    276935.74   -76124.743    7498.1428   -83622.886    720.33744 
   13050    292.59003   -666.25626    276666.82   -76108.195    7413.3201   -83521.516    722.03546 
   13100    295.35261   -275.54699    276335.32   -76086.781    7483.3153   -83570.096    723.31198 
   13150    295.37108   -607.29909    276444.41   -76107.768    7483.7833   -83591.552    726.00069 
   13200    294.91962   -392.83942    276704.45   -76122.197    7472.3445   -83594.541    727.38373 
   13250    292.45009   -931.62691    277059.69    -76165.71    7409.7744   -83575.484    729.87055 
   13300    291.75044   -521.12591    276706.18   -76168.864    7392.0474   -83560.911    731.03689 
   13350    290.29777   -321.48551    276304.47   -76148.778    7355.2413   -83504.019    732.48396 
   13400    288.05549     -282.594    276102.72   -76177.988    7298.4291   -83476.417    732.81306 
   13450    296.93586   -464.79438    276411.03   -76204.849    7523.4299   -83728.278    734.68722 
   13500    293.79871   -598.81407    276729.33   -76165.837    7443.9442   -83609.781    737.46366 
   13550    290.50116   -519.96966    276644.55   -76251.399    7360.3946   -83611.794    739.70409 
   13600      290.169   -587.11154    276322.13   -76261.269    7351.9787   -83613.248    740.41457 
   13650    296.40055   -410.72008    276121.17   -76273.856    7509.8668   -83783.723    743.39132 
   13700    289.16929    -378.1571    276000.83   -76266.317    7326.6493   -83592.967    746.17122 
   13750    292.16774    -353.7976    276230.79   -76247.343    7402.6205   -83649.963    749.48063 
   13800    290.84553   -595.75287    276628.96   -76297.726      7369.12   -83666.846    751.22269 
   13850    293.73775   -541.36757    276807.58   -76287.261    7442.3996   -83729.661    753.58489 
   13900    292.41197    -801.9897    276306.66   -76266.205    7408.8085   -83675.013    755.76228 
   13950    294.23785   -202.03126    275704.95   -76298.366    7455.0707   -83753.437    756.97865 
   14000    297.76604   -592.90754    275828.68   -76245.658     7544.464   -83790.122    760.82202 
   14050    292.08262   -498.54254    276386.11   -76228.869    7400.4638   -83629.332    764.50933 
   14100    295.48171   -445.23627    276685.43   -76220.082    7486.5863   -83706.668    768.11989 
   14150    292.68434   -567.40555    276801.55   -76221.298    7415.7095   -83637.008    770.99756 
   14200    289.54373   -503.17579    276880.95   -76210.275    7336.1363   -83546.411    773.55204 
   14250    288.15305    -181.1678     276745.8   -76126.933    7300.9007   -83427.834    775.64634 
   14300    293.95407    -883.4712    276838.14   -76159.016    7447.8806   -83606.896     778.8881 
   14350    291.30851   -536.88598    276860.09   -76155.475    7380.8503   -83536.325    781.73688 
   14400    292.32951   -547.09029    276640.88   -76120.158    7406.7192   -83526.877    782.39273 
   14450    293.24722   -449.59467    276154.48   -76177.489    7429.9712    -83607.46    783.54345 
   14500    297.04038   -547.84622    276167.54   -76187.604    7526.0781   -83713.682    786.02116 
   14550    293.77321   -988.36288    276480.47   -76229.857    7443.2982   -83673.155    791.61744 
   14600    291.15745   -700.70503     276301.1   -76222.437     7377.023    -83599.46    794.80688 
   14650    295.66478   -183.24245     276013.3   -76243.478    7491.2247   -83734.703    797.60911 
   14700    294.17475   -475.76379     276354.2   -76207.449     7453.472   -83660.921    800.07633 
   14750     291.7142   -579.06054    276759.05   -76219.645    7391.1292   -83610.774    803.65649 
   14800    292.11435   -598.71351    276803.68   -76265.671    7401.2679   -83666.939    806.60832 
   14850    291.17233   -653.18954    276428.32   -76281.913    7377.3999   -83659.313    809.22705 
   14900    292.05649   -370.56338    275919.23   -76295.041    7399.8018   -83694.842    810.10481 
   14950    290.01228   -240.13675     276019.6    -76365.96    7348.0078   -83713.968    811.71488 
   15000    289.82677   -503.36243    276474.81   -76365.869    7343.3078   -83709.177    815.08024 
   15050    294.07322   -963.45547     276901.5   -76354.971    7450.8994   -83805.871    820.66826 
   15100    288.07963    -546.2252    276640.13    -76332.27    7299.0405    -83631.31    823.54739 
   15150    295.03585   -335.57411    276068.82   -76349.347    7475.2896   -83824.636    824.89042 
   15200    288.43614   -723.05355     276037.4   -76331.053    7308.0735   -83639.127     827.1159 
   15250    292.13198   -607.18982    276426.81   -76334.204    7401.7145   -83735.919    829.65645 
   15300    288.16849   -734.33926    276812.01   -76284.046     7301.292   -83585.338    831.94309 
   15350    288.53592   -916.26698    276923.38   -76275.752    7310.6016   -83586.354     835.3345 
   15400    294.01752   -666.25547    276422.64   -76245.491    7449.4881    -83694.98    836.40546 
   15450    291.94215   -381.62738    276099.39   -76249.965    7396.9049    -83646.87    836.96305 
   15500    292.32831   -293.30886    276245.23   -76238.026     7406.689   -83644.715    839.76122 
   15550    295.38734   -674.17239    276388.72   -76248.848    7484.1951   -83733.043    843.30416 
   15600    292.04978   -598.47101    276497.91   -76236.703    7399.6317   -83636.335    846.20146 
   15650    292.84222   -666.94082    276584.19   -76249.193    7419.7097   -83668.903    849.92206 
   15700    291.66943   -613.25309    276484.27   -76221.467    7389.9948   -83611.462    851.56175 
   15750    292.09649   -169.65458     276227.3   -76232.921    7400.8153   -83633.737    852.73815 
   15800    291.00897   -387.21979    276331.84   -76228.968    7373.2608   -83602.229    855.15106 
   15850    291.79206   -538.36357    276631.85   -76203.977     7393.102   -83597.079    858.73292 
   15900    293.25067    -339.4952    276850.55   -76205.855    7430.0587   -83635.914    862.41227 
   15950    294.50128   -636.21365    276988.46   -76177.129    7461.7453   -83638.874    864.55473 
   16000    294.01484   -529.81337    276621.64   -76145.777    7449.4204   -83595.197    865.78527 
   16050    296.91896   -558.86473     276252.7   -76108.291    7523.0016   -83631.292    868.40756 
   16100    296.50756   -505.04312    276179.19   -76107.876     7512.578   -83620.454    870.01981 
   16150    296.26875   -451.53523    276427.02   -76111.078    7506.5275   -83617.605     871.8412 
   16200    297.43259   -407.80307    276756.98   -76058.034    7536.0154   -83594.049    876.36494 
   16250    298.57336   -444.29238    277131.11   -76043.221    7564.9189    -83608.14    879.63729 
   16300    297.35867   -783.62062    277346.29   -76061.164    7534.1426   -83595.307    882.68489 
   16350    295.78554   -412.58605    276633.73   -76088.786    7494.2844    -83583.07    881.81598 
   16400    297.73174   -233.90311    276118.46   -76081.828    7543.5951   -83625.423    884.68354 
   16450    299.18504   -917.33407    276285.01   -76116.717     7580.417   -83697.134    888.63701 
   16500    295.96288   -364.13242    276567.46   -76091.151    7498.7776   -83589.929    891.78702 
   16550    294.02675   -625.86706     277086.4   -76051.094     7449.722   -83500.816    896.58629 
   16600    296.17651   -710.36097    277197.33   -76033.702    7504.1903   -83537.892    899.14028 
   16650     297.0757   -320.79213    276482.48   -75984.415    7526.9729   -83511.388    901.28491 
   16700      299.314   -287.23524    276153.21   -76076.346    7583.6846   -83660.031    900.97146 
   16750    297.98172   -534.60867    276376.59   -76097.067    7549.9286   -83646.996    905.20301 
   16800    297.63174   -271.16034    276753.07   -76115.779    7541.0614    -83656.84    909.88152 
   16850    294.01183   -567.98738     277074.2   -76144.758     7449.344   -83594.102    911.25904 
   16900    293.30138   -526.54023    277042.74   -76136.944    7431.3435   -83568.287    911.83277 
   16950    298.42379   -672.28982    276935.94   -76097.044    7561.1295   -83658.174     912.8381 
   17000    297.46977   -552.17264    276465.28   -76133.842    7536.9576   -83670.799    913.51662 
   17050    295.93169   -556.18368     276152.1   -76101.506    7497.9873   -83599.494    915.72515 
   17100    291.78689   -93.158242    276053.19   -76103.837    7392.9709   -83496.808    919.51849 
   17150    290.10917   -338.14179     276442.4   -76044.057    7350.4628    -83394.52    922.70437 
   17200    297.06742   -641.62505    276956.21   -75993.199    7526.7631   -83519.963    925.95805 
   17250    299.07816   -920.71179    277284.57   -75996.928    7577.7092   -83574.637    929.57129 
   17300    295.03242   -380.14625    276806.46   -75947.736    7475.2027   -83422.939    931.68725 
   17350    295.02408   -161.72704    276275.71   -75991.672    7474.9914   -83466.664    931.63343 
   17400    293.19732   -464.31613    276378.85   -76015.033    7428.7069   -83443.739     933.5757 
   17450    297.31774   -392.11946    276572.92   -75974.816    7533.1056   -83507.922    935.86836 
   17500    296.75308   -634.69266    277033.16   -76020.764    7518.7989   -83539.562    938.92416 
   17550    295.08027   -560.09731    277203.22   -76072.812     7476.415   -83549.227    940.22755 
   17600    294.43748   -627.71217    276842.69   -76037.868    7460.1288   -83497.997    941.83177 
   17650    302.57351   -252.40925    276210.09    -76001.98    7666.2703    -83668.25    943.38591 
   17700    298.46157   -262.98461    275800.76   -75990.168    7562.0866   -83552.255    944.96632 
   17750    296.09398   -455.14141     276250.2   -75972.081    7502.0993   -83474.181    948.84957 
   17800    297.59228   -569.87333    277188.46   -75969.912    7540.0616   -83509.973    954.36476 
   17850    291.55872   -665.71168    277774.55   -75981.374    7387.1898   -83368.564    959.22848 
   17900    296.64076   -568.92258    277432.68   -76015.036    7515.9529   -83530.989    959.43594 
   17950    293.28125   -528.93255     276890.2   -76035.125    7430.8333   -83465.958    960.03388 
   18000    294.54153   -232.05581    276177.19   -76089.439    7462.7649   -83552.204    961.28724 
   18050    290.93685   -171.03826    275886.25   -76121.119    7371.4335   -83492.552    961.51822 
   18100    296.52927    -670.0468    276315.65   -76155.597    7513.1281   -83668.725    964.90801 
   18150    288.89968   -972.00204    276771.22   -76182.905    7319.8182   -83502.723    969.97728 
   18200    294.64054    -421.7542    276676.06   -76128.066    7465.2736   -83593.339     972.4794 
   18250    299.50216   -254.78335    276424.63   -76082.864     7588.452   -83671.316    975.11428 
   18300    296.42552   -378.11714    276173.73   -76058.906    7510.4994   -83569.405    977.91707 
   18350    293.46376    -314.3577    276491.11   -76047.014    7435.4576   -83482.472    982.75562 
   18400    296.36641   -530.76149    277046.86   -76047.569    7509.0017    -83556.57    986.74226 
   18450    292.55879   -844.74778    277354.73   -76063.723    7412.5285   -83476.251    990.46244 
   18500    297.02412   -570.24737    276995.36   -76033.132    7525.6661   -83558.798    990.88771 
   18550    297.77712   -184.24851    276281.56   -76010.151    7544.7447   -83554.896    992.72247 
   18600    295.62258   -146.14725     276050.6   -75983.118    7490.1554   -83473.274    994.86767 
   18650    296.13877   -503.19866    276479.95   -76002.394    7503.2341   -83505.628    998.64006 
   18700    293.59155   -577.50366    277096.33   -76013.427    7438.6954   -83452.122    1004.4978 
   18750    291.35767   -679.53409    277347.81   -75926.352    7382.0958   -83308.447    1007.1553 
   18800    295.07449   -634.18782    276985.72   -75939.515    7476.2686   -83415.784    1009.0272 
   18850    299.06885    -436.2644    276356.63    -75982.29    7577.4732   -83559.763     1010.762 
   18900    294.96793   -166.07587    276309.35    -75999.56    7473.5687   -83473.128    1013.9352 
   18950    298.45838   -620.52428    276671.27   -76031.343    7562.0057   -83593.349    1017.8379 
   19000    296.95749   -690.71642    277042.53   -75998.077     7523.978   -83522.055    1021.3716 
   19050    297.87392   -308.86549    276935.49   -75971.411    7547.1973   -83518.608    1023.7969 
   19100    295.41846   -450.36886    276752.21   -76014.771    7484.9837   -83499.755    1024.4326 
   19150    296.14068      -489.64    276716.89   -75983.375    7503.2825   -83486.657    1028.2349 
   19200    295.36961    -649.5357    276658.25   -75998.304    7483.7459    -83482.05    1031.6077 
   19250    295.46479   -150.86189    276596.42    -75985.59    7486.1575   -83471.747    1034.2292 
   19300    297.50415   -664.64678    276875.88   -76008.711    7537.8285    -83546.54    1036.5538 
   19350    295.72267   -527.92141    277117.06   -76031.077    7492.6913   -83523.769    1039.7028 
   19400    296.84204   -494.20837    277059.86   -76049.625    7521.0527   -83570.678     1041.936 
   19450      293.292   -519.56403    276744.56   -76078.329    7431.1057   -83509.435    1045.1425 
   19500    289.05918   -219.73174    276270.46    -76139.39    7323.8593   -83463.249    1046.6239 
   19550    295.62794    -506.8495    276413.16   -76076.957    7490.2914   -83567.248    1049.9269 
   19600    291.71339    -507.7871    276844.29    -76060.99    7391.1089   -83452.099    1053.3219 
   19650    300.52249   -709.01372    277263.01   -76021.535    7614.3039   -83635.839    1058.3122 
   19700    298.40332   -623.12949    277240.81    -75969.84    7560.6107   -83530.451    1061.2984 
   19750    299.84919   -594.02079    276923.59   -76000.986    7597.2445   -83598.231    1063.1443 
   19800    297.08586    -262.5497    276539.64   -76021.884    7527.2304   -83549.114    1065.4462 
   19850     292.6665    -484.4142    276524.74   -75995.613    7415.2576    -83410.87    1067.3718 
   19900    297.36144   -679.85875    276640.91   -75938.773    7534.2127   -83472.986    1070.4596 
   19950    294.39364   -458.87596    276783.78   -75942.474    7459.0179   -83401.492    1073.4082 
   20000    296.53212   -438.09501    276924.29   -75913.598    7513.2003   -83426.798    1076.3156 
   20050    299.96648    -698.6631    277162.86   -75951.436    7600.2164   -83551.652    1079.7295 
   20100    294.31358   -435.76127    276997.98   -75981.544    7456.9894   -83438.533    1081.7546 
   20150    293.81951   -421.65426     276760.8    -76010.88    7444.4713   -83455.351     1084.037 
   20200    298.96261   -318.71272    276260.23   -76017.165    7574.7813   -83591.946    1086.0204 
   20250    296.08791   -623.05622    276311.17     -76037.8    7501.9455   -83539.745     1087.667 
   20300    296.85078   -440.76851    276692.65   -76020.284    7521.2741   -83541.558    1090.3211 
   20350    295.51562   -787.71865    276955.17   -76011.164    7487.4453   -83498.609    1095.2208 
   20400    298.31417   -431.54712    276907.82   -75983.471    7558.3518   -83541.823     1099.141 
   20450    300.62639   -373.94389    276866.44   -75940.389    7616.9364   -83557.326     1101.549 
   20500    300.53685   -453.63082     276940.2   -75946.174    7614.6677   -83560.841    1105.3204 
   20550    293.93993   -557.94129    277098.08   -75927.192    7447.5223   -83374.715    1108.7429 
   20600    296.19096   -668.01227    276974.92   -75922.541    7504.5565   -83427.098    1111.1774 
   20650    297.83563   -144.04372    276548.15   -75880.986    7546.2273   -83427.214    1114.1843 
   20700    299.53367   -509.66697    276556.44   -75961.603    7589.2504   -83550.854    1116.9092 
   20750    297.26509   -275.55264    276649.61   -75956.738    7531.7716   -83488.509    1120.1505 
   20800    303.59239   -448.56719    276805.66   -75947.867    7692.0856   -83639.953    1123.1606 
   20850    296.24361   -612.28565     277040.7   -75941.554    7505.8905   -83447.445    1126.2571 
   20900    293.03147    -312.9301    276977.04   -75866.751    7424.5048   -83291.256    1131.0282 
   20950    295.97419   -703.38349    276882.05   -75931.903    7499.0642   -83430.967    1136.6022 
   21000    300.47839   -615.49073    276624.32   -75968.003    7613.1865   -83581.189    1139.3549 
   21050    304.24582   -289.82744     276372.2   -75922.824    7708.6414   -83631.466    1141.4119 
   21100    308.09412   -476.65278    276388.93   -75916.107    7806.1454   -83722.252    1144.0901 
   21150    299.18744   -441.49695    276574.53   -75952.276    7580.4778   -83532.753    1146.2028 
   21200    297.36327   -651.70471    276866.03   -75972.679    7534.2592   -83506.938    1150.5028 
   21250    297.57647   -463.77056     277072.7   -76011.446    7539.6608   -83551.107    1153.7734 
   21300    293.84455   -555.28748     277042.1   -76003.039    7445.1057   -83448.145    1157.0086 
   21350    292.53083   -314.26146    276398.02   -76076.062    7411.8202   -83487.882    1158.7377 
   21400    295.36103   -200.22907    275946.01    -76076.16    7483.5285   -83559.688    1161.3335 
   21450    298.85138   -408.69391    276212.59   -76067.692    7571.9633   -83639.655    1165.0527 
   21500    296.20239   -587.72054    276831.05   -76033.065     7504.846   -83537.912    1168.9932 
   21550    294.65257   -721.50759    277074.38   -76034.835    7465.5784   -83500.414     1172.559 
   21600    294.40112   -775.89172    276664.97   -76081.301    7459.2073   -83540.508    1173.2445 
   21650    293.64638   -287.51767    276190.05   -76089.955    7440.0848    -83530.04    1175.9019 
   21700     294.6962   -730.64727    276210.45   -76061.086    7466.6839    -83527.77     1181.029 
   21750    295.58229   -187.57232       276463   -76058.517    7489.1346   -83547.651    1184.6002 
   21800    293.00985   -528.16633    276957.31   -76066.486     7423.957   -83490.443    1188.8291 
   21850    297.05153   -655.04524    276879.81   -76068.848    7526.3606   -83595.208    1192.5975 
   21900    296.52083     -564.095    276549.76   -76047.843    7512.9144   -83560.757    1194.1436 
   21950    295.09386   -387.92845    276227.88   -76061.575    7476.7593   -83538.335    1196.2057 
   22000    297.55489   -241.90589    276444.16   -76017.889    7539.1142   -83557.003    1198.2528 
   22050    294.05862   -480.50512    277144.53   -76002.968    7450.5296   -83453.498    1201.2565 
   22100    296.22942   -701.94547    277526.86   -75980.996    7505.5309   -83486.527    1204.9651 
   22150    295.20486   -596.96975     277213.3   -75974.778    7479.5717    -83454.35    1205.8977 
   22200    296.69684   -474.73019    276672.64   -75965.169    7517.3738   -83482.543     1208.973 
   22250    294.31281   -307.93209    276302.48   -75985.341    7456.9699    -83442.31    1212.0441 
   22300    300.54663   -377.48565    276327.02   -76023.649    7614.9156   -83638.565    1214.9985 
   22350    293.61007   -607.39099    276627.72   -76033.887    7439.1647   -83473.052    1219.2831 
   22400     294.1119   -562.08598    276859.37   -76053.422    7451.8796   -83505.301     1224.401 
   22450    298.05011   -324.79222    276642.84   -76033.449    7551.6616    -83585.11    1226.5284 
   22500     301.5012   -487.37466    276508.08   -75956.149    7639.1014    -83595.25    1229.7922 
   22550    297.38036   -326.82552    276665.36   -75983.176    7534.6921   -83517.868    1233.1957 
   22600     295.7614   -631.57741    276950.86   -76011.711    7493.6727   -83505.383    1236.6223 
   22650    298.79587   -317.39708    276980.21   -75991.851    7570.5567   -83562.408    1240.1666 
   22700    293.42548   -660.86746    276860.57   -76012.214    7434.4878   -83446.702     1242.635 
   22750    300.98019    -524.8258    276608.13   -75988.477    7625.9005   -83614.377    1244.5762 
   22800     302.2051   -550.26054    276739.72   -76015.844     7656.936    -83672.78    1249.0552 
   22850    296.38837   -322.01389    276636.47   -76007.533    7509.5583   -83517.092    1252.8442 
   22900    300.91549   -348.60111    276465.99   -75959.638    7624.2612   -83583.899    1257.4351 
   22950     299.4677   -455.88261    276604.57   -75968.826    7587.5788   -83556.405    1260.1569 
   23000    292.73184   -713.10246     276866.6   -76029.179    7416.9131   -83446.092    1265.7403 
   23050     293.9886   -666.18258    276944.39   -76018.515    7448.7555   -83467.271    1269.7565 
   23100    290.28728   -389.70904    276759.97   -76069.159    7354.9756   -83424.135    1272.9646 
   23150    296.01763   -386.88005    276689.14   -76071.086    7500.1648   -83571.251    1276.1024 
   23200    297.57324   -539.40565    276898.15   -76024.921    7539.5791     -83564.5    1281.2901 
   23250    300.07421   -532.46173    277122.44   -76011.663     7602.946   -83614.609    1287.7072 
   23300    296.95757   -592.53743    276825.93   -76024.167    7523.9798   -83548.147    1292.2749 
   23350    295.70965   -392.97245    276029.02   -76050.955    7492.3615   -83543.317    1291.9039 
   23400    298.54249   -164.65159    275785.43   -76044.878    7564.1368   -83609.015    1293.9034 
   23450    294.71699   -415.31992     276639.9   -76062.893    7467.2107   -83530.104    1300.7104 
   23500     297.7111   -701.48718    277743.84   -76086.247    7543.0721   -83629.319    1308.1061 
   23550    292.58862   -768.86289    277946.64   -76072.678    7413.2844   -83485.962    1311.7699 
   23600    297.53296   -686.15099    277059.88   -76095.779    7538.5586   -83634.338     1313.652 
   23650    296.96174   -376.21905    276059.85   -76139.171    7524.0855   -83663.257    1312.7443 
   23700    292.44881   -227.95314    275722.81   -76162.046    7409.7421   -83571.789    1313.7322 
   23750    292.68366   -518.48916    276301.03    -76156.66    7415.6924   -83572.352    1318.7249 
   23800    293.29493   -504.67671    277013.84   -76121.295    7431.1801   -83552.475    1324.6077 
   23850    292.79848   -733.33085    277140.37   -76081.575    7418.6015   -83500.176    1327.8577 
   23900    295.36868   -502.91305    276570.99   -76109.684    7483.7224   -83593.406    1328.5178 
   23950    292.11403   -482.95241    276102.47   -76151.843    7401.2598   -83553.103    1330.7512 
   24000    291.40442   -194.90749    276105.74   -76128.756    7383.2803   -83512.036    1335.6396 
   24050    289.68115   -586.38481    276738.11     -76107.6    7339.6182   -83447.219    1340.5839 
   24100     296.3186   -723.77555    277385.82   -76101.247    7507.7904   -83609.037     1346.152 
   24150     293.4197    -411.9826    277291.04   -76065.806    7434.3412   -83500.147    1347.7678 
   24200    292.90149   -610.14592    276772.76   -76072.822    7421.2114   -83494.034    1348.0165 
   24250    296.46625   -275.15899    276393.75   -76014.769    7511.5313     -83526.3    1350.1548 
   24300    291.83956   -559.36654    276646.57   -76041.637    7394.3054   -83435.942    1353.0759 
   24350    295.75362   -269.71513    276762.03    -76070.56    7493.4757   -83564.036    1357.2161 
   24400    295.33466   -1042.9373    277171.68   -76084.505    7482.8605   -83567.365    1359.4341 
   24450    295.67967   -840.73656    277093.91    -76092.05    7491.6018   -83583.652    1361.5695 
   24500    296.94274   -489.68385    276573.05    -76094.12    7523.6042   -83617.724    1361.9352 
   24550    292.02316   -196.56688    276147.33   -76125.151    7398.9573   -83524.108    1363.9715 
   24600    291.56578   -436.10261    276084.86   -76152.877    7387.3688   -83540.246    1366.4708 
   24650    291.02402   -386.94285    276535.04   -76137.341    7373.6423   -83510.983    1372.5663 
   24700    291.37321    -726.9223    277238.32   -76131.543    7382.4898   -83514.033    1375.2756 
   24750    292.68174   -697.86363    277384.58   -76106.092    7415.6437   -83521.736    1376.4667 
   24800    289.89379    -494.7748    276745.94   -76135.824    7345.0057   -83480.829     1375.793 
   24850    301.30445   -449.02551     276298.4   -76138.817    7634.1164   -83772.933    1375.9642 
   24900    297.17999    -266.5752    276267.05   -76179.798    7529.6154   -83709.413    1376.6001 
   24950    289.69309   -390.55345    276578.05   -76177.093    7339.9207   -83517.013    1380.2476 
   25000    292.52976   -407.50694     276744.3   -76146.159     7411.793   -83557.952    1381.8245 
   25050    290.12488   -715.84027     276704.2   -76119.473    7350.8608   -83470.334    1384.7597 
   25100    291.60517   -407.68176    276420.73   -76146.944    7388.3667    -83535.31    1386.2328 
   25150    294.98761   -595.70849    276263.26   -76129.816    7474.0672   -83603.883    1386.5664 
   25200    295.93533   -479.23814    276284.74   -76089.431    7498.0794    -83587.51    1388.0657 
   25250     289.5735   -601.24298    276584.98   -76069.868    7336.8906   -83406.758    1390.5868 
   25300     294.0172   -530.33822    276858.12   -76043.214    7449.4802   -83492.694    1394.5873 
   25350    295.52029   -577.09188    276771.36   -76058.635    7487.5638   -83546.199    1397.1811 
   25400    292.65233   -502.60528    276592.55   -76080.046    7414.8986   -83494.945    1400.0661 
   25450    297.64016    -638.3656    276732.55   -76107.036    7541.2747   -83648.311    1401.2956 
   25500    294.38237   -510.63036    276830.87   -76124.571    7458.7323   -83583.304    1404.0232 
   25550    290.06888   -499.13302    276881.33   -76126.654     7349.442   -83476.096    1406.4765 
   25600    295.09597   -423.21389    276870.18    -76139.78    7476.8128   -83616.592    1409.8258 
   25650    295.97303   -704.27285    276858.77   -76113.545    7499.0347    -83612.58    1413.9815 
   25700    291.88537   -580.84261    276631.41    -76081.56    7395.4662   -83477.026    1414.2088 
   25750    295.03778   -208.88497    276174.27   -76107.322    7475.3384   -83582.661    1414.1699 
   25800    295.38186   -216.20813    276053.72    -76086.42    7484.0562   -83570.477    1416.8827 
   25850     295.1231   -597.91987    276490.48   -76090.899    7477.5001   -83568.399    1421.2091 
   25900    292.51101   -508.07482    276851.86   -76110.855     7411.318   -83522.173    1424.1989 
   25950    290.17312   -554.95263    276811.43   -76132.259     7352.083   -83484.342    1425.5402 
   26000    294.55858   -254.87639    276535.58   -76166.988    7463.1971   -83630.185    1426.7458 
   26050    294.73658   -524.96488    276264.74   -76164.856    7467.7068   -83632.562    1427.6949 
   26100    291.16001   -386.48148    276227.75   -76179.337    7377.0878   -83556.425     1430.251 
   26150    296.82039   -475.99561    276232.88   -76119.099    7520.5041   -83639.603    1432.8978 
   26200    294.26378   -578.61762    276541.27    -76110.79    7455.7277   -83566.518    1437.7862 
   26250    290.74832   -918.71225    276974.59   -76082.524    7366.6568    -83449.18    1442.7163 
   26300    297.42372   -836.08528    277153.55   -76080.718    7535.7908   -83616.509    1446.2985 
   26350    294.36889   -314.88872    276881.65   -76029.915    7458.3909   -83488.306    1446.9228 
   26400    297.11243   -577.72694    276427.05   -76032.693    7527.9035   -83560.597     1449.219 
   26450    292.53041   -159.16253    275977.27   -76074.611    7411.8095    -83486.42    1451.0227 
   26500    298.72634   -577.53557     276133.5   -76052.792    7568.7951   -83621.587    1453.5455 
   26550    296.65612   -488.62104     276744.5   -76092.077    7516.3421   -83608.419     1457.767 
   26600    294.83456   -519.18256    277259.78   -76070.486    7470.1894   -83540.675    1462.2613 
   26650    291.62184   -309.96784     277219.1   -76102.318    7388.7892   -83491.108    1465.6909 
   26700     294.0138   -494.43001    276895.66   -76152.624    7449.3939   -83602.018    1467.3248 
   26750    294.13415   -342.09242    276504.63   -76182.113    7452.4432   -83634.556    1468.0879 
   26800    292.20492   -272.27339    276421.59   -76192.198    7403.5625   -83595.761    1470.5992 
   26850    288.84901   -548.64204     276860.9   -76230.132    7318.5343   -83548.666    1474.4151 
   26900    292.18167   -593.96591    276830.57   -76252.822    7402.9734   -83655.796    1475.1422 
   26950    292.77364   -328.36096    276145.14   -76252.736    7417.9722   -83670.708      1475.42 
   27000    288.73386   -461.99711     275685.7   -76267.231    7315.6168   -83582.848    1475.4089 
   27050    296.83899   -172.48953    275773.66   -76272.218    7520.9755   -83793.193    1477.3223 
   27100    287.15363   -520.09072    276530.43   -76300.462    7275.5787   -83576.041    1483.8673 
   27150    288.30599   -800.09449    277029.87   -76194.394    7304.7759    -83499.17    1489.7868 
   27200     292.3994    -469.6537    276795.16   -76195.684      7408.49   -83604.174     1492.308 
   27250    294.42674   -610.38991    276351.21   -76200.919    7459.8565   -83660.775     1492.652 
   27300    293.06221     -473.971    276222.97   -76182.748    7425.2837   -83608.032    1493.3967 
   27350    293.45878    -276.3034    276391.49   -76186.605    7435.3314   -83621.937    1497.9002 
   27400     290.3015   -549.84245    276754.11   -76145.357    7355.3358   -83500.693    1503.2002 
   27450    294.30958   -530.54928    276808.93   -76108.286    7456.8882   -83565.174    1505.1532 
   27500    296.28063   -305.18949    276725.84   -76059.977    7506.8285   -83566.805    1508.2061 
   27550    297.37312   -297.81222    276672.72   -76049.069    7534.5086   -83583.578    1509.6436 
   27600    297.60444   -594.73394    276801.18   -76028.082    7540.3697   -83568.451    1512.3344 
   27650    294.91133   -307.52562    276773.39   -76054.713    7472.1347   -83526.848    1514.1257 
   27700    295.59433   -401.12588    276580.37   -76062.723    7489.4396   -83552.163    1517.2045 
   27750    295.23214   -178.87243    276282.33   -76028.391     7480.263   -83508.654     1520.261 
   27800    288.51681   -545.51968    276335.43   -76081.165    7310.1175   -83391.283    1523.4278 
   27850     295.9601    -307.7539    276308.42   -76051.892    7498.7071   -83550.599    1526.6415 
   27900    300.83115   -543.31035    276562.53   -75981.891    7622.1244   -83604.016    1530.4291 
   27950    298.69185   -655.53135    276773.91   -75992.738    7567.9211    -83560.66    1534.5644 
   28000    301.12392   -189.87267    276724.27   -75998.211    7629.5422   -83627.753    1536.8692 
   28050    294.86589   -492.61809    276781.05   -75965.872    7470.9833   -83436.855    1541.2166 
   28100    295.60135   -266.13801       276730    -75971.14    7489.6175   -83460.758    1544.7714 
   28150     296.1366   -588.54861    276706.73   -75999.813    7503.1791   -83502.992    1548.3005 
   28200    295.61028    -691.7616    276579.88   -76031.828    7489.8437   -83521.671    1550.9344 
   28250    299.54228    -569.7383     276775.3    -75982.48    7589.4685   -83571.949    1555.2719 
   28300    294.59869   -645.79261    276997.69   -75994.958    7464.2132   -83459.172    1557.4036 
   28350    295.19632   -500.86051    276817.08   -76035.629    7479.3553   -83514.985    1559.1867 
   28400    296.33695   -494.38331    276522.68   -76032.482    7508.2554   -83540.737    1560.4557 
   28450    296.15917   -365.75287    276351.96   -76029.658    7503.7508   -83533.408    1563.0458 
   28500    295.16498   -401.37721    276403.15   -75984.338    7478.5612   -83462.899     1565.637 
   28550    298.14748   -418.58262    276618.07   -75950.152    7554.1286   -83504.281    1568.1503 
   28600      300.189   -428.89486    276958.13   -75912.782    7605.8543   -83518.636    1571.7246 
   28650    293.44632   -501.94828    277240.51   -75919.378    7435.0159   -83354.394    1575.8957 
   28700    300.29791   -326.27623    277105.07   -75882.085    7608.6136   -83490.699    1577.6021 
   28750     299.3336   -319.48771    276836.89   -75919.187    7584.1811   -83503.369     1577.496 
   28800    294.38033   -316.16112    276873.63   -75993.646    7458.6807   -83452.327    1581.5218 
   28850    297.45645   -482.77368    277013.99    -76000.27    7536.6199    -83536.89    1584.7978 
   28900    300.87767   -569.54659    276876.43   -76010.251     7623.303   -83633.554    1585.3183 
   28950    299.69693   -428.96621    276778.42   -76019.004    7593.3867   -83612.391    1588.4695 
   29000    289.40033   -511.77093    276749.36   -76056.511    7332.5031   -83389.014    1590.6922 
   29050    296.36467   -496.11584    276743.68   -76057.057    7508.9578   -83566.015    1593.1398 
   29100    291.83159   -346.60649    276333.15   -76045.838    7394.1037   -83439.942    1591.9805 
   29150    293.98285    35.950895    276218.76   -76054.909    7448.6098   -83503.519    1594.6854 
   29200    296.78789   -585.82392    276751.07   -76046.787    7519.6807   -83566.468    1597.6148 
   29250    295.23851   -519.69221    277157.58   -75996.076    7480.4242     -83476.5    1601.3249 
   29300    291.92289   -763.18317    277328.06   -76033.665    7396.4167   -83430.082    1604.7574 
   29350    299.31682   -650.14279     276755.4   -76072.807    7583.7561   -83656.563    1604.6178 
   29400     297.5132   -206.87766    276077.67   -76099.756    7538.0578   -83637.814    1605.0601 
   29450    297.47942   -437.53696     276101.4   -76105.936     7537.202   -83643.138    1607.8696 
   29500    293.93131   -454.85533    276583.36   -76113.541    7447.3038   -83560.845    1610.8415 
   29550    293.12171   -634.27831    276955.62   -76073.361    7426.7913   -83500.153    1612.8992 
   29600    294.30284   -539.23597    276915.48   -76045.723    7456.7173   -83502.441    1615.6002 
   29650    292.38834   -532.03913    276778.77   -76023.615      7408.21   -83431.825    1618.5858 
   29700    294.22243   -441.62148    276580.56   -76064.381    7454.6799   -83519.061    1621.6787 
   29750     298.9529    -400.5662    276283.46   -76048.974    7574.5353    -83623.51    1625.1312 
   29800    296.94097   -301.18138     276169.1   -76017.079    7523.5593   -83540.638    1627.6415 
   29850    296.93455   -256.65165     276523.5   -76016.094    7523.3966   -83539.491    1634.4899 
   29900    301.42457   -932.46486    277155.82   -75969.808    7637.1597   -83606.968    1640.2496 
   29950     299.2782   -453.47205    277329.39   -75957.253    7582.7776   -83540.031     1644.169 
   30000    296.43207   -787.45601    277124.91   -75990.561    7510.6653   -83501.226    1645.2702 
   30050    293.17624   -584.61897    276589.51   -76023.302    7428.1728   -83451.475    1647.2222 
   30100    295.74777   -270.42867    276351.03    -75978.96    7493.3275   -83472.287    1648.9061 
   30150    297.60081   -273.01852    276604.66   -75981.009    7540.2777   -83521.287    1651.3648 
   30200    294.47465   -505.09379    276976.47    -75985.04    7461.0705   -83446.111      1657.87 
   30250    296.25545   -513.79553    276914.61    -75986.03    7506.1905    -83492.22    1662.3273 
   30300     292.2868   -679.20348     276711.7   -75969.543    7405.6371    -83375.18    1665.5845 
   30350    300.14846   -514.30064    276688.55   -75997.909    7604.8271   -83602.736      1668.72 
   30400     297.0801   -707.35403    276852.53   -76070.176    7527.0846   -83597.261    1672.1265 
   30450     295.0594   -530.75973     276734.2   -76093.243    7475.8862   -83569.129    1673.9512 
   30500    296.20599   -298.92528    276488.13    -76043.55    7504.9373   -83548.488    1674.0832 
   30550    293.62465   -544.14166     276519.5     -76038.3     7439.534   -83477.834    1679.1356 
   30600    296.17005   -564.56489    276611.96    -76073.09    7504.0266   -83577.116    1683.7918 
   30650    292.70856    -612.9953    276785.65   -76094.491    7416.3232   -83510.814    1686.9148 
   30700    291.85597   -255.48636    276504.11   -76095.035    7394.7214   -83489.756    1687.0516 
   30750    296.75047   -428.39413     276193.6   -76135.449    7518.7328   -83654.182    1688.5359 
   30800    296.37774   -464.46729     276135.9   -76190.227    7509.2888   -83699.516    1691.4219 
   30850    289.17581   -277.36628    276389.59   -76196.101    7326.8143   -83522.915    1694.7547 
   30900    286.77439   -506.52096    276608.13   -76176.626    7265.9699   -83442.596    1698.6934 
   30950    290.77005    -635.4021    276531.66   -76183.248    7367.2075   -83550.455     1698.904 
   31000     289.6283    -504.1832    276380.69   -76188.864     7338.279   -83527.143    1700.5999 
   31050    294.69387   -488.01113    276156.39   -76176.282    7466.6248   -83642.907    1700.8656 
   31100    291.04848   -427.15999    276266.21   -76147.144     7374.262   -83521.406    1701.6022 
   31150      293.837   -346.47885    276768.79   -76115.431    7444.9144   -83560.345    1706.7227 
   31200    295.14418   -521.15289    277216.11   -76093.581    7478.0342   -83571.615    1711.4054 
   31250    291.85573   -733.32787    277267.27   -76086.808    7394.7152   -83481.523    1716.2084 
   31300    288.95878   -353.94106    276689.91   -76081.685    7321.3155       -83403    1717.8063 
   31350    289.74959   -132.68138    275991.66   -76100.772    7341.3521   -83442.124    1719.0856 
   31400    296.68059   -306.33144       275915   -76144.557    7516.9622    -83661.52    1721.3508 
   31450    295.30981   -514.47481    276327.98   -76127.512    7482.2309   -83609.743    1725.8436 
   31500    295.03136   -637.08493    276634.07   -76122.148    7475.1757   -83597.323     1726.629 
   31550    292.73764   -752.32446    276681.69   -76132.214    7417.0601   -83549.274    1731.0321 
   31600      293.203   -508.89831    276561.66   -76152.103    7428.8507   -83580.954    1732.4444 
   31650     300.5634    -506.3331    276475.92   -76099.512    7615.3403   -83714.852    1736.5909 
   31700    292.40109   -578.26062    276751.55   -76111.496    7408.5328   -83520.029    1740.9746 
   31750    294.25576   -507.94957    277040.14   -76098.346    7455.5245    -83553.87    1744.7979 
   31800    291.60813   -544.33549    277040.69   -76100.677    7388.4418   -83489.119    1747.2032 
   31850    291.01566   -420.33484     276572.6   -76146.632    7373.4305   -83520.062    1749.0508 
   31900    296.80454   -381.34938    275925.64   -76179.967    7520.1026    -83700.07    1747.8895 
   31950    296.63971   -316.91012    275893.81   -76145.069    7515.9264   -83660.996    1749.4817 
   32000    289.93063   -391.61492    276649.16   -76167.402    7345.9391   -83513.342    1756.9468 
   32050    291.49183   -918.88959    277335.31    -76175.89    7385.4952   -83561.385    1761.6576 
   32100    292.91545   -581.89683    277156.84   -76155.568    7421.5653   -83577.133    1761.9779 
   32150    293.65985   -703.00781    276678.44   -76198.532     7440.426   -83638.958    1758.8498 
   32200    302.74684   -251.76864    276144.25   -76175.511    7670.6619   -83846.173    1757.6153 
   32250    293.99886   -562.55675    276281.76   -76156.384    7449.0154   -83605.399    1761.0441 
   32300    290.39955   -585.48706    276631.16   -76175.235    7357.8201   -83533.055    1766.1845 
   32350    299.11005   -704.99034    276458.34   -76182.418     7578.517   -83760.935    1768.5395 
   32400    296.73905   -478.07164    276079.57   -76183.974    7518.4434   -83702.417     1767.663 
   32450    295.05877   -327.00079    275918.32   -76224.502    7475.8704   -83700.372    1767.8846 
   32500     294.3868   -539.74572    276253.97   -76194.297    7458.8447   -83653.142    1771.2219 
   32550    290.00694   -400.80527     276880.9     -76207.1    7347.8726   -83554.973    1776.0573 
   32600    293.35188   -648.31104    277287.27   -76147.685    7432.6229   -83580.307    1780.8856 
   32650    295.17284   -463.84918    276817.17   -76151.618    7478.7604   -83630.379    1779.7029 
   32700    291.22774   -282.47246    276094.38   -76159.485    7378.8038   -83538.289    1777.5726 
   32750     291.5471   -367.18647    275989.67   -76148.065    7386.8954    -83534.96     1778.165 
   32800    297.31319    -737.2943    276432.96   -76173.662    7532.9901   -83706.652    1784.1787 
   32850    288.19294   -363.77251    276736.64   -76157.289    7301.9114     -83459.2    1786.3131 
   32900    295.35024   -398.89832    276469.27    -76184.82    7483.2551   -83668.075    1787.9403 
   32950    293.61604   -664.29057    276492.35    -76222.87    7439.3159   -83662.186    1791.5456 
   33000    295.65925   -485.12255    276657.87   -76162.104    7491.0845   -83653.188    1793.9409 
   33050    294.82933   -637.67738       276649   -76162.338    7470.0568   -83632.395    1798.0443 
   33100    292.44241   -423.39161    276671.42   -76179.028    7409.5798   -83588.607    1800.3235 
   33150    290.62969   -548.24872    276683.82   -76185.043    7363.6512   -83548.694    1803.4499 
   33200    292.94214   -503.75302    276503.09    -76207.12    7422.2415   -83629.361    1805.2601 
   33250    291.27677   -327.81823    276294.14    -76214.32     7380.046   -83594.366     1805.477 
   33300    297.11025   -814.37914    276442.53   -76198.672    7527.8483   -83726.521    1807.7981 
   33350    291.46402   -320.62223    276436.17   -76228.993    7384.7906   -83613.783    1808.6652 
   33400    290.92955   -405.33836    276502.84   -76195.202    7371.2486    -83566.45    1809.5221 
   33450    292.73616   -584.33959    276642.25   -76174.524    7417.0227   -83591.546    1812.6293 
   33500    290.47628   -617.15443    276702.94   -76198.966    7359.7642   -83558.731    1815.7324 
   33550     299.0095   -854.94293    276851.17   -76171.478    7575.9695   -83747.447    1819.3446 
   33600    294.50673   -560.07096    276755.63    -76188.79    7461.8832   -83650.673    1822.3361 
   33650    292.21696   -569.31737    276527.91   -76194.298    7403.8675   -83598.165    1823.8505 
   33700    297.69904   -511.27893    276118.54   -76157.124    7542.7664   -83699.891    1821.7704 
   33750    295.08672   -142.26082    275892.44   -76135.544    7476.5783   -83612.122    1825.6698 
   33800    293.83248   -517.70032    276327.69   -76148.593       7444.8   -83593.393    1832.5267 
   33850    293.05934   -501.97276     276687.8   -76153.589    7425.2108     -83578.8    1837.7324 
   33900    289.37964   -599.85123    276911.98   -76169.111    7331.9788    -83501.09    1842.5101 
   33950     293.6346   -720.73408    276880.63   -76181.744    7439.7861    -83621.53    1844.3316 
   34000    291.49302   -569.52542    276599.38    -76144.46    7385.5253   -83529.985    1846.4548 
   34050    295.21435   -205.40628    276372.22   -76165.849    7479.8122   -83645.661    1847.5151 
   34100    291.08383   -640.01494    276472.74     -76182.9    7375.1576   -83558.058       1850.3 
   34150    297.23401   -800.13104    276711.55   -76189.595    7530.9841   -83720.579    1852.9185 
   34200    288.03652   -554.68434    276767.18   -76190.334    7297.9482   -83488.282    1855.4374 
   34250    294.11909   -411.06684     276594.8   -76187.895    7452.0617   -83639.957    1855.3682 
   34300    295.73257   -683.46762    276451.58   -76149.401    7492.9422   -83642.343     1857.292 
   34350    292.10207   -558.10933    276556.67   -76163.454    7400.9567   -83564.411     1858.496 
   34400    295.50364   -631.54827    276705.63   -76212.132    7487.1419   -83699.273    1860.7663 
   34450    292.43292   -556.29436    276660.28   -76169.456    7409.3394   -83578.795     1864.805 
   34500    294.17402   -313.72751    276250.39   -76220.222    7453.4536   -83673.675    1865.9228 
   34550    295.89293   -703.94822    276282.62   -76272.453    7497.0053   -83769.458    1869.0259 
   34600    286.71847   -9.3993911    276245.38   -76300.633    7264.5531   -83565.187    1871.3129 
   34650    293.12233   -717.15376     276769.1   -76273.048     7426.807   -83699.856    1875.7161 
   34700    293.09795   -836.33945    276947.03   -76233.226    7426.1892   -83659.415    1878.8769 
   34750    290.66748   -680.59566    276544.08   -76263.212    7364.6086   -83627.821    1881.1304 
   34800    295.47524     -477.961    275913.94   -76234.597    7486.4224   -83721.019    1877.7566 
   34850    289.96175   -364.01428    275900.38   -76267.754    7346.7277   -83614.482     1876.973 
   34900    295.40765   -477.01874    276520.07   -76268.438    7484.7098   -83753.147    1883.4572 
   34950     289.6885   -243.92098    277188.89   -76209.445    7339.8042   -83549.249    1889.2652 
   35000    287.70622    -864.7935       277462   -76203.427    7289.5796   -83493.007     1892.117 
   35050     293.6541   -398.64007    276800.02   -76200.653    7440.2803   -83640.933    1890.5871 
   35100    294.30515   -406.32274     275798.4   -76239.964     7456.776    -83696.74     1887.519 
   35150    295.50962   -242.97442    275328.78   -76253.729    7487.2933   -83741.023    1886.4355 
   35200    301.04493   -333.71398    275861.78    -76258.29    7627.5409   -83885.831    1890.8807 
   35250    294.48161   -712.02391    276755.31   -76207.994    7461.2468   -83669.241    1898.6267 
   35300    288.98176   -769.95862    277086.71   -76172.715    7321.8978   -83494.613    1902.1734 
   35350    299.98227   -481.92692    276696.71   -76160.108    7600.6165   -83760.725    1901.1574 
   35400    291.90469    -338.0729    276114.83   -76202.867    7395.9558   -83598.823    1900.6404 
   35450     293.7841   -261.16543       276094   -76187.774     7443.574   -83631.348    1901.3664 
   35500    291.80483   -837.75243    276612.42   -76153.543    7393.4255   -83546.969    1906.5212 
   35550    291.76861    -309.0917    276969.68   -76188.541    7392.5078   -83581.048    1911.0452 
   35600    295.05496    -665.9324    277015.13   -76101.646    7475.7738   -83577.419    1913.0857 
   35650    295.22073   -369.78304    276649.85   -76096.114    7479.9739   -83576.088    1912.5072 
   35700    295.25154   -639.87915    276739.31   -76139.458    7480.7543   -83620.212    1915.7377 
   35750    295.15616   -394.90073    276659.36   -76144.494    7478.3377   -83622.831    1916.6425 
   35800    290.87088   -648.75327    276635.98   -76154.823    7369.7622   -83524.585    1918.9825 
   35850    294.17071   -507.75288    276661.88   -76121.771    7453.3694    -83575.14     1919.166 
   35900    291.78007   -389.82475    276860.51    -76121.09    7392.7982   -83513.888    1922.5949 
   35950    292.97549   -611.39666    276806.85   -76133.724    7423.0865   -83556.811    1924.4015 
   36000    296.96393     -739.135    276564.06   -76167.338     7524.141   -83691.479     1926.317 
   36050    290.21478   -211.97897    276318.52   -76197.825    7353.1385   -83550.963    1928.9415 
   36100    293.09035   -517.37776    276535.27   -76164.954    7425.9965   -83590.951    1929.6956 
   36150    292.42477    -610.7146    277052.58   -76156.094     7409.133   -83565.227    1933.1871 
   36200    292.23899   -473.27799    277138.88   -76157.698    7404.4259   -83562.124    1935.3172 
   36250    297.97125   -640.59053     276451.8   -76147.612    7549.6633   -83697.275    1935.4366 
   36300    294.56488   -306.18415    275809.68   -76198.998    7463.3565   -83662.354    1934.9966 
   36350    292.58282   -423.79719    276092.49   -76121.046    7413.1375   -83534.184    1938.0815 
   36400    295.05485   -370.21098     276964.7   -76168.726     7475.771   -83644.497    1945.9796 
   36450    290.56458   -689.40899     277270.9   -76132.699    7362.0016   -83494.701    1951.4832 
   36500    287.44376    -363.4811    276780.99   -76132.918    7282.9296   -83415.847    1954.4082 
   36550    293.28385   -321.23364    275998.46    -76107.86    7430.8993   -83538.759    1952.6305 
   36600    299.71611   -434.80326    275913.48    -76090.31    7593.8727   -83684.183    1954.2094 
   36650    293.29211   -817.77996    276612.59   -76108.155    7431.1085   -83539.264    1962.2715 
   36700    298.28712   -539.91687    277083.68   -76097.427    7557.6667   -83655.094    1967.7748 
   36750    295.47072   -698.02925    276973.19   -76120.677    7486.3078   -83606.985     1968.994 
   36800      294.789   -624.78527    276465.67    -76085.12    7469.0351   -83554.155    1966.4785 
   36850    296.80937   -310.18942     276333.7   -76090.022     7520.225   -83610.247     1968.461 
   36900    295.94694    -296.4057    276431.75   -76101.736    7498.3736   -83600.109    1971.0576 
   36950    293.94252   -809.10328    276888.57   -76139.728     7447.588   -83587.316    1977.4332 
   37000    290.41726     -163.909    276890.55   -76160.557    7358.2689   -83518.825    1979.7766 
   37050    294.19642   -318.34394    276667.34   -76173.608    7454.0211   -83627.629    1981.1585 
   37100     297.2049   -610.87161    276396.02   -76133.969    7530.2465   -83664.215    1981.3072 
   37150    300.43695   -395.28766    276236.77   -76151.555    7612.1366   -83763.692    1983.0183 
   37200    294.81407   -377.32283     276333.1    -76163.52    7469.6703    -83633.19     1984.328 
   37250    289.68351   -391.40568    276431.69   -76151.368     7339.678   -83491.046    1984.6628 
   37300    291.93742   -555.40931    276560.63   -76168.481     7396.785   -83565.266    1987.9888 
   37350    294.83669   -524.33295    276472.14   -76162.238    7470.2436   -83632.481    1990.7676 
   37400    297.27521   -580.75023    276246.64   -76148.101    7532.0278   -83680.129    1992.9836 
   37450    286.33673   -226.71136    275943.93   -76140.859     7254.881    -83395.74    1996.0909 
   37500    291.54801   -679.45689    276045.89   -76136.254    7386.9185   -83523.173    1998.3258 
   37550    293.68628   -476.54986    276382.69   -76130.117    7441.0957   -83571.212    2000.8953 
   37600    289.93823   -991.92965    277012.31   -76133.205    7346.1316   -83479.337    2004.7607 
   37650    295.31993   -655.53085    277043.56   -76127.732    7482.4872    -83610.22    2008.5884 
[...]
   90850    299.17479   -648.40637    276803.49   -75975.718    7580.1575   -83555.875    4748.5905 
   90900    301.99482   -394.51606    276665.74   -75983.807    7651.6082   -83635.415     4751.601 
   90950    292.68392   -365.58265    276474.05   -76018.494    7415.6989   -83434.193    4749.8409 
   91000    296.28111   -442.45549     276476.9   -75996.225    7506.8405   -83503.066    4747.4931 
   91050    296.78026   -274.49463    276720.57   -76024.631    7519.4873   -83544.119    4751.9083 
   91100    302.61609   -654.99337    277063.01    -75977.23    7667.3492   -83644.579    4757.0779 
   91150    291.72205   -695.39003    277214.79   -75982.603    7391.3281   -83373.931    4761.1271 
   91200    300.22318    -741.8022    276930.51   -76016.669    7606.7203   -83623.389    4759.2234 
   91250    296.50096   -289.80026    276504.73   -76032.057    7512.4107   -83544.468     4758.556 
   91300     296.2723   -366.37811       276284   -76028.922    7506.6173   -83535.539    4758.7048 
   91350    293.41911   -401.78938    276521.13     -76033.8    7434.3264   -83468.127    4764.9494 
   91400    295.89947    -761.9537    276931.36   -76075.414     7497.171   -83572.585    4773.5741 
   91450    296.89658   -632.26978    276895.63   -76097.166    7522.4347   -83619.601    4773.7456 
   91500     295.4556   -550.63451    276552.19   -76100.283    7485.9246   -83586.208    4769.4533 
   91550     292.6996   -154.77976    276400.78   -76092.135    7416.0963   -83508.231    4770.0736 
   91600     295.8725   -447.20441    276542.84   -76121.858    7496.4877   -83618.345    4772.9799 
   91650    297.55812   -596.37965    276583.98   -76180.111    7539.1959   -83719.307    4776.9207 
   91700    293.86674   -768.26056    276501.36   -76187.474    7445.6679   -83633.142    4775.2033 
   91750    295.73673   -303.32732    276114.84   -76141.787    7493.0476   -83634.834    4769.3584 
   91800    296.13582   -402.76366    276250.97   -76144.427    7503.1594   -83647.587    4774.9067 
   91850    295.76709   -528.24751    276817.41   -76179.448    7493.8168   -83673.265    4785.2751 
   91900    290.64774   -683.51941     277140.6   -76155.389    7364.1085   -83519.498    4793.1601 
   91950     294.9245    -627.8708    276805.44   -76210.443    7472.4683   -83682.911    4795.0341 
   92000    295.92117   -399.06681    276075.06   -76171.794    7497.7207   -83669.514     4788.538 
   92050    298.13501   -528.66934     275708.6   -76231.518    7553.8126   -83785.331     4786.871 
   92100    291.24569   -267.99805    275911.43    -76162.08    7379.2587   -83541.339    4789.7621 
   92150    295.23213   -619.53222    276509.04   -76151.026    7480.2626   -83631.288    4797.3852 
   92200     292.3799   -740.11601     276999.9   -76134.859     7407.996   -83542.855    4807.4996 
   92250    296.22207   -746.14777    276957.84   -76115.946    7505.3448    -83621.29    4808.9454 
   92300    296.41418    -512.9339    276514.43   -76126.498    7510.2121    -83636.71    4805.5008 
   92350    294.24471   -267.14051    276136.31   -76143.718    7455.2445   -83598.963    4804.0828 
   92400    298.75353   -672.08814    276216.06   -76149.112    7569.4841   -83718.596    4808.3344 
   92450    296.32497    -791.3511    276423.53   -76136.352    7507.9519   -83644.304    4812.6178 
   92500    292.26355   -413.80754    276405.92   -76152.685    7405.0481   -83557.733    4814.9007 
   92550     295.9529   -546.16293    276465.33   -76161.805    7498.5248    -83660.33    4817.3504 
   92600    295.63692   -334.90075    276260.52   -76204.784    7490.5189   -83695.303     4816.511 
   92650    294.40128   -339.28827    276310.98   -76190.761    7459.2114   -83649.972    4819.6566 
   92700    288.51461   -410.92302    276566.28   -76186.265    7310.0615   -83496.326    4824.5797 
   92750    291.29626   -330.49048    276707.22   -76235.672    7380.5398   -83616.212     4826.224 
   92800    291.10041   -602.17777    276811.39   -76229.717    7375.5779   -83605.295    4830.3581 
   92850    293.60829   -741.19092    276460.87   -76208.107    7439.1196   -83647.227      4826.87 
   92900    295.78793   -423.13306    275860.62   -76218.584    7494.3449   -83712.929    4822.0178 
   92950    293.88663   -210.80824    275864.69   -76210.585    7446.1719   -83656.757    4823.3891 
   93000    295.24627   -548.16508    276503.51   -76176.707    7480.6209   -83657.328     4831.441 
   93050     292.7078   -530.55911    277098.47   -76139.712    7416.3041   -83556.017    4840.7386 
   93100    293.25146   -745.26113     277273.5   -76098.781    7430.0787   -83528.859    4843.8932 
   93150    294.76396   -483.39535    276769.48   -76123.301    7468.4008   -83591.702    4840.0606 
   93200    294.61201   -395.71017    276146.05   -76098.158    7464.5507   -83562.708    4836.3027 
   93250     298.5087   -242.10673    275776.75   -76082.914    7563.2807   -83646.194    4837.0117 
   93300    295.81121   -451.00187    276243.74    -76104.43    7494.9347   -83599.364    4847.3703 
   93350    295.14137   -646.29375    276941.27   -76143.462     7477.963   -83621.425    4859.3737 
   93400      289.472   -585.35069    277119.93   -76150.039    7334.3188   -83484.358    4863.1813 
   93450     291.7831   -347.95367    276925.52   -76146.097     7392.875   -83538.972    4863.8909 
   93500    288.74267   -305.32553    276605.52   -76139.716    7315.8399   -83455.556    4860.6701 
   93550    292.78153    -375.9642    276124.57   -76130.904    7418.1722   -83549.076     4858.907 
   93600    295.94094   -146.13056     275712.3   -76102.681    7498.2217   -83600.902    4857.1571 
   93650    298.32444   -203.82861    275998.61    -76119.95    7558.6122   -83678.563    4863.2188 
   93700    286.93081   -439.84266    276841.27   -76100.874    7269.9331   -83370.807     4874.951 
   93750    293.08019   -891.97261     277580.5   -76079.941    7425.7392    -83505.68    4883.8574 
   93800    295.99124   -749.53252    277354.89   -76077.342    7499.4962   -83576.839    4881.9179 
   93850    296.51548   -290.01184    276552.47    -76090.38    7512.7788   -83603.159    4874.5704 
   93900    294.70577   -156.10431     275816.2   -76077.053    7466.9263    -83543.98    4866.8373 
   93950    295.65573   -99.461205    275735.56   -76081.728    7490.9954   -83572.723    4867.6545 
   94000    297.04557    -392.8791    276286.01    -76070.22    7526.2096    -83596.43    4879.9332 
   94050    298.62617   -620.45043    276995.14   -76026.516     7566.257   -83592.773    4889.4846 
   94100      293.219   -507.30914    277108.62   -76041.571    7429.2561   -83470.827    4892.8106 
   94150    296.85252   -413.09739    276848.24   -76043.113    7521.3182   -83564.431    4893.4379 
   94200    295.92945   -352.09928    276604.81   -76037.639    7497.9307    -83535.57    4896.7861 
   94250    295.53422   -622.58742    276563.94   -76007.478    7487.9166   -83495.395    4895.7336 
   94300    303.36615   -789.07864     276519.5   -75989.827    7686.3535    -83676.18    4898.9366 
   94350    296.34067   -342.37251    276377.31    -76001.59    7508.3497    -83509.94    4898.4482 
   94400    297.11816   -129.94881    276336.12   -76030.928    7528.0487   -83558.977    4902.1597 
   94450    296.29345   -592.00345    276718.05   -76028.848    7507.1531   -83536.001    4908.9324 
   94500    292.17471   -782.86174    277060.98   -75999.633    7402.7972    -83402.43    4912.7675 
   94550    293.74237    -451.8104     276930.2    -76037.22    7442.5167   -83479.736    4914.6473 
   94600    296.08509   -213.51938    276699.16   -76021.039    7501.8741   -83522.913     4915.454 
   94650    289.98339   -262.50892     276660.1   -75990.923     7347.276   -83338.199    4921.3648 
   94700    302.44149   -198.52618    276635.31   -75948.209    7662.9254   -83611.134    4922.4854 
   94750    295.01987   -688.72607    276800.13   -75992.195    7474.8846    -83467.08    4928.9624 
   94800    296.22617   -676.14931    276665.43   -76008.495    7505.4484   -83513.944    4931.2294 
   94850    296.72238   -70.781914     276077.8   -76033.344    7518.0209   -83551.365    4927.9267 
   94900    293.35454    -303.6035    276030.05   -76035.174    7432.6905   -83467.864    4933.1671 
   94950    300.57973   -480.02425    276626.73    -76078.68    7615.7542   -83694.434    4941.8344 
   95000    297.77646   -1006.2373    277154.86   -76093.973    7544.7279   -83638.701    4950.4392 
   95050    294.60793   -551.95746    276714.31   -76056.691    7464.4474   -83521.139    4948.0513 
   95100    296.79312   -481.39473    276261.04   -76083.087    7519.8133     -83602.9    4944.0073 
   95150    297.53242   -244.27695    276048.23    -76101.84    7538.5448   -83640.385    4945.2635 
   95200    295.87792   -928.20652    276505.29   -76105.504    7496.6249   -83602.129    4953.6244 
   95250    294.30207     -556.516    276736.96   -76095.648    7456.6979   -83552.346    4955.9962 
   95300    292.15854   -482.34976    276866.19   -76135.797    7402.3875   -83538.184    4958.2837 
   95350    292.16275   -563.23488     276881.9   -76151.626    7402.4941    -83554.12    4962.9704 
   95400    297.19683   -458.74442     276637.8   -76104.452    7530.0421   -83634.494    4965.5209 
   95450    295.04435   -111.89454    276375.45   -76119.279     7475.505   -83594.784     4966.565 
   95500    294.86687   -453.11967    276457.05   -76110.905     7471.008   -83581.913    4971.2465 
   95550    296.18703   -372.21167    276465.42   -76125.456    7504.4568   -83629.913    4973.3328 
   95600    298.47561   -446.57671    276459.24    -76127.69    7562.4423   -83690.132    4973.4862 
   95650    291.59072   -232.38062    276685.82   -76159.726    7388.0008   -83547.727    4977.5956 
   95700    294.90834    -520.3388    277044.02   -76144.228    7472.0587   -83616.287    4984.4389 
   95750    293.95832   -785.95625     277090.3   -76131.469    7447.9882   -83579.457    4987.2157 
   95800    292.66549   -486.54769    276767.64   -76161.517    7415.2321   -83576.749    4985.9902 
   95850    296.60949   -510.11716    276407.33   -76144.221    7515.1607   -83659.381    4979.2768 
   95900    300.41309   -52.127322     276190.2   -76154.233     7611.532   -83765.765    4977.2466 
   95950    294.32379   -253.15579    276472.03    -76148.64    7457.2482   -83605.888    4980.9425 
   96000    295.02881   -633.58558    276908.64   -76150.124    7475.1111   -83625.235    4988.9756 
   96050    290.70893   -445.66534    276959.15   -76124.129    7365.6589   -83489.788    4989.8301 
   96100     296.1571   -534.74564    276407.26   -76064.168    7503.6984   -83567.866    4986.6049 
   96150     299.4957   -317.75024    276042.91   -76099.695    7588.2883   -83687.983    4984.8732 
   96200    296.48686   -480.49355    276233.68   -76052.952    7512.0535   -83565.005    4987.2359 
   96250    295.77461   -538.52883    276744.35   -76044.273    7494.0075    -83538.28     4996.302 
   96300    292.64461   -662.71494    277233.83   -76039.593     7414.703   -83454.296    5002.4592 
   96350    294.55016   -538.69491     277245.9   -76047.217    7462.9836   -83510.201    5008.6469 
   96400    296.02725   -287.48961    276729.28   -76086.174    7500.4085   -83586.582    5000.9211 
   96450    299.29405   -613.06713    276241.64   -76055.216    7583.1791   -83638.395    4994.1703 
   96500    301.68824   -609.78456    276159.47   -76053.804    7643.8404   -83697.644    4992.1839 
   96550    302.80201   -503.16218     276673.2   -76042.215    7672.0598   -83714.275    5002.9497 
   96600    296.67626   -732.62401    277310.46    -76033.69    7516.8524   -83550.543    5012.6316 
   96650    294.38136     -914.992    277161.89    -76071.39    7458.7069   -83530.097    5013.7278 
   96700    295.99687   -136.70448    276455.81   -76086.514    7499.6387   -83586.152    5007.7515 
   96750     298.9906   -407.01051    276147.96   -76076.467    7575.4905   -83651.958    5005.3301 
   96800    295.21168   -460.16024    276446.57   -76078.413    7479.7446   -83558.158    5009.2257 
   96850    292.82798   -598.71017    276723.75    -76119.47     7419.349   -83538.819    5015.7083 
   96900    294.04032   -729.16611    276846.01    -76071.75    7450.0658   -83521.816    5018.5455 
   96950    290.08962   -582.83587    276735.15   -76074.994    7349.9675   -83424.962    5019.0207 
   97000    297.91428   -778.47129    276570.12   -76085.315      7548.22   -83633.535    5019.5944 
   97050    291.32531   -538.56022    276362.03   -76069.506     7381.276   -83450.782     5016.615 
   97100    295.86814   -621.63467     276316.8   -76112.789    7496.3772   -83609.166    5016.9655 
   97150    295.78201   -718.40567    276580.87   -76113.323     7494.195   -83607.518    5023.9346 
   97200    296.50387   -630.49751    276566.49   -76110.712    7512.4847   -83623.197    5026.1816 
   97250    296.81458   -660.24443     276396.2   -76113.875    7520.3571   -83634.232    5026.5443 
   97300    301.18478    -500.0259    276288.77     -76158.6    7631.0844   -83789.685    5027.4755 
   97350    295.22192   -702.92292    276532.67   -76176.905     7480.004   -83656.909    5031.6032 
   97400    295.84406   -554.21531     276543.2   -76193.978    7495.7671   -83689.745    5036.0257 
   97450    288.77107   -236.52775    276309.53   -76210.053    7316.5594   -83526.612    5037.3443 
   97500    293.46008   -704.18817    276453.66   -76213.418    7435.3644   -83648.782    5041.2225 
   97550    293.35852   -628.95113    276502.58   -76178.093    7432.7912   -83610.884    5046.6053 
   97600    292.89309   -562.54959     276455.3   -76149.063    7420.9986   -83570.061     5053.118 
   97650    296.57577   -373.40053    276144.32   -76138.339    7514.3062   -83652.645    5053.7797 
   97700    292.95433   -483.16786    276001.27   -76141.666    7422.5503   -83564.216    5054.0127 
   97750    291.35748   -353.69807    276226.33   -76141.444     7382.091   -83523.535    5062.2906 
   97800    297.52723   -472.69937    276651.78    -76179.61    7538.4135   -83718.023     5070.296 
   97850     293.5013   -491.07946    276831.84   -76198.919    7436.4089   -83635.328    5072.3353 
   97900    289.60151   -600.34546    276534.61   -76241.019    7337.6004   -83578.619    5070.1367 
   97950    299.75719   -859.30491    276018.41   -76204.434    7594.9135   -83799.348    5066.0698 
   98000    296.82947   -386.28644    275551.29   -76231.857    7520.7342   -83752.591    5063.3865 
   98050    293.74671    -458.7762    275892.54   -76222.688    7442.6267   -83665.315    5071.5872 
   98100    295.23384   -699.01845    276731.15   -76239.371     7480.306   -83719.677    5085.5406 
   98150    291.42493   -1051.9467    277300.52   -76237.963    7383.8001   -83621.763    5099.3856 
   98200    290.89446    -487.8527    276554.04   -76267.727    7370.3596   -83638.087    5093.0398 
   98250    295.28316   -129.64376    275592.49   -76263.136    7481.5555   -83744.692    5081.3229 
   98300    290.89245   -189.98324    275660.69   -76299.389    7370.3086   -83669.697    5085.6616 
   98350    289.84394   -275.49259    276353.38   -76296.829    7343.7426   -83640.572    5096.9709 
   98400    289.92716    -707.3136    276926.17   -76254.091    7345.8511   -83599.942    5106.7493 
   98450    293.15958   -559.68531    276938.36   -76226.467    7427.7507   -83654.218    5108.8325 
   98500    289.51677   -508.25943    276526.14    -76244.02    7335.4532   -83579.473    5103.8462 
   98550    297.83883    -665.1023    276154.79   -76281.776    7546.3083   -83828.084    5102.5237 
   98600    293.52792   -215.75452     275859.8   -76296.193    7437.0833   -83733.276    5100.2349 
   98650    292.07523   -353.06514    276006.03   -76290.358    7400.2767   -83690.635    5102.6009 
   98700    289.41229    -501.5331    276526.67   -76272.726    7332.8061   -83605.532    5110.5369 
   98750    294.79188   -656.21124    276673.52    -76256.76    7469.1081   -83725.868    5116.4623 
   98800    288.18397   -238.96288    276311.53   -76257.268    7301.6843   -83558.952    5114.3571 
   98850    298.56347    -436.5284    276255.61   -76244.102    7564.6684    -83808.77    5116.1406 
   98900       295.98   -522.12851    276460.21   -76252.003    7499.2113   -83751.215     5120.184 
   98950    291.43193   -663.10088    276716.53   -76223.439    7383.9773   -83607.417    5126.9249 
   99000    292.70893   -563.68099    276731.42   -76201.031    7416.3326   -83617.363    5129.1785 
   99050    290.67046   -662.58968    276681.18   -76205.074    7364.6841   -83569.758    5130.8721 
   99100     292.3449    -408.9382    276335.68    -76213.35    7407.1093   -83620.459    5130.5612 
   99150    297.12808   -289.22535    276462.15   -76213.258       7528.3   -83741.558    5134.8344 
   99200    294.61281   -661.00495    277042.92   -76225.286     7464.571   -83689.857    5142.0415 
   99250    286.75595   -964.44597    277075.55    -76243.72    7265.5027   -83509.222    5145.3844 
   99300    290.33748   -424.24657    276366.34   -76284.919    7356.2474   -83641.166    5138.5628 
   99350    291.04184   -638.23406     275914.9   -76304.609    7374.0937   -83678.703    5136.0626 
   99400    291.34979   -532.73895    275842.16   -76282.357    7381.8963   -83664.253    5140.2167 
   99450    289.69641   -381.61705    276143.27   -76279.971    7340.0049   -83619.975    5147.0878 
   99500    289.95179   -512.74235    276608.19   -76305.469    7346.4754   -83651.945    5156.0498 
   99550    291.27614   -568.67066    276892.11   -76249.597    7380.0301   -83629.627    5161.8996 
   99600    291.58025   -758.25585    276912.82   -76254.955    7387.7355    -83642.69    5167.2577 
   99650    291.82921   -587.16722    276659.76   -76261.678    7394.0433   -83655.722    5167.9988 
   99700    294.73699   -504.05789    276340.32   -76255.598    7467.7174   -83723.315    5168.2752 
   99750    290.23671   -658.05947    276109.96   -76265.763    7353.6942   -83619.457    5165.9206 
   99800    289.34851    -432.7842    276221.54   -76257.637    7331.1901   -83588.827    5168.9509 
   99850    290.30947   -13.135095    276504.78   -76241.345    7355.5377   -83596.883    5174.1489 
   99900    293.05124    -579.6189    276639.42    -76262.96    7425.0056   -83687.965    5176.4653 
   99950    290.62963    -414.4114    276341.28   -76255.039    7363.6497   -83618.689    5175.2763 
  100000    293.77446   -490.33768    276410.98    -76205.56    7443.3297    -83648.89    5179.6944 
Loop time of 249.245 on 6 procs for 100000 steps with 8501 atoms

Performance: 346.647 ns/day, 0.069 hours/ns, 401.212 timesteps/s
99.4% CPU use with 6 MPI tasks x no OpenMP threads

MPI task timing breakdown:
Section |  min time  |  avg time  |  max time  |%varavg| %total
---------------------------------------------------------------
Pair    | 72.545     | 127        | 192.54     | 437.7 | 50.95
Neigh   | 33.215     | 39.014     | 43.43      |  65.5 | 15.65
Comm    | 7.0852     | 77.036     | 137.3      | 604.8 | 30.91
Output  | 0.13266    | 0.13474    | 0.14246    |   0.9 |  0.05
Modify  | 5.0034     | 5.0442     | 5.1022     |   1.3 |  2.02
Other   |            | 1.015      |            |       |  0.41

Nlocal:        1416.83 ave        1437 max        1388 min
Histogram: 1 0 1 0 0 0 0 2 1 1
Nghost:        1971.67 ave        2037 max        1940 min
Histogram: 4 0 0 0 0 0 0 0 1 1
Neighs:        0.00000 ave           0 max           0 min
Histogram: 6 0 0 0 0 0 0 0 0 0
FullNghs:      39340.3 ave       39826 max       38621 min
Histogram: 1 0 0 0 1 1 0 1 1 1

Total # of neighbors = 236042
Ave neighs/atom = 27.766380
Neighbor list builds = 22426
Dangerous builds = 0

# Create data file for import to other simulations
#
write_data data.${NAME}
write_data data.coexist_294K_-500atm_ML
System init for write_data ...

Total wall time: 0:04:09
