LAMMPS data file via write_data, version 29 Oct 2020, timestep = 200000

4608 atoms
1 atom types

-0.02064451572349313 57.29115451572299 xlo xhi
-0.018350680642512884 50.92547068064044 ylo yhi
-0.018350680642512884 50.92547068064044 zlo zhi

Masses

1 18.015

Atoms # atomic

5 1 1.478661578502438 1.3281993085153367 1.5388626657043911 0 0 0
13 1 7.876248018218355 1.5882926043580092 1.4645405782234429 0 0 0
458 1 0.35140531868061164 22.064777096221217 16.03958632026509 0 0 0
21 1 14.275079257747988 1.388068197471947 1.7297856567328882 0 0 0
8 1 4.64120905509637 5.028547867369295 1.329605829614676 0 0 0
10 1 6.307511168116634 3.474347911247463 2.8495875042736443 0 0 0
20 1 15.517018633827906 3.264152986196785 0.11365638696079719 0 0 0
16 1 10.793650667128402 4.713746402125712 1.2815088385787656 0 0 0
24 1 17.332131504395246 4.65193289425224 1.522645240230272 0 0 0
29 1 1.2278613081546121 7.933891435195906 1.4605212889894066 0 0 0
37 1 7.985208347333774 7.903943712157286 1.7148108235490591 0 0 0
9 1 6.29256867151369 50.77319669357747 0.13806068958386142 0 -1 0
45 1 14.171127612999948 8.026543230679605 1.230901149824352 0 0 0
43 1 15.634911198173 6.457795249221974 3.101462375044216 0 0 0
857 1 12.920527389469347 18.983200576107887 25.293270113379652 0 0 0
51 1 2.8232960371857745 12.229158911488907 3.185203531855411 0 0 0
32 1 4.650247233375478 10.922741771167528 1.8613753626591243 0 0 0
40 1 10.985055450510092 11.123767963507241 1.5410284078857277 0 0 0
42 1 12.492187557807078 9.67673187875058 3.088770470622753 0 0 0
48 1 17.688421548039127 11.02422166981448 1.2363048797322285 0 0 0
53 1 1.4842378365889617 14.317721571606144 1.6398906326051537 0 0 0
241 1 0.03706482737715078 12.973149548024123 6.56561191332747 0 0 0
61 1 8.09857332497754 13.761665001565351 1.5569109839890334 0 0 0
59 1 9.861501260608433 12.593094510634222 3.322565486236793 0 0 0
940 1 3.108230922589693 47.95436923181038 25.42318496123582 0 0 0
69 1 14.035893202136599 14.640888191786514 1.5448096258838309 0 0 0
67 1 15.995847816696099 12.681101251505657 2.775256513351117 0 0 0
56 1 5.226442841563275 17.71545816005643 1.6709059117678584 0 0 0
505 1 0.00790495571945371 31.651996418774583 13.054641640031335 0 0 0
83 1 9.187816081661623 19.16337384282115 2.979330459959849 0 0 0
64 1 11.033617971938757 17.546343456473586 1.573154994196578 0 0 0
673 1 0.1028218868489584 25.790652904723963 18.862869998516572 0 0 0
72 1 17.68373570810944 17.552864443294702 1.274293568058897 0 0 0
77 1 1.5967457725572114 20.356261096888357 1.7743271832188403 0 0 0
780 1 9.929944119243087 2.599797348010166 25.432764098171365 0 0 0
75 1 3.4719770005287427 19.314202133901304 3.323458593150648 0 0 0
85 1 7.988698482193849 20.993283679060795 1.4223410779913392 0 0 0
93 1 14.584160138947407 20.60908456834141 1.7280769857733163 0 0 0
80 1 4.959844247691143 24.062411182257136 1.6666978069174192 0 0 0
99 1 3.1231658970226115 25.394802568100594 3.1076620305865443 0 0 0
88 1 11.285580328376371 23.795685098421433 1.4293059262075232 0 0 0
90 1 12.745415441107914 22.04910326503524 3.358900510825149 0 0 0
96 1 17.715314573374084 23.62697626726554 1.8730178640874589 0 0 0
115 1 16.106707771868212 25.24356794351241 3.3403051595256725 0 0 0
76 1 3.0986844471108523 22.534628970989452 0.3232021477826888 0 0 0
101 1 1.5423944737108524 27.07184835000573 1.3422691707924448 0 0 0
578 1 0.22662538503498253 3.0103063746765812 22.180596640467293 0 0 0
109 1 8.002743520264616 27.265970846378497 1.2053871732989307 0 0 0
117 1 14.341665422534636 27.056291889252567 2.1068573479107013 0 0 0
313 1 0.05748155580981518 31.870576452637852 6.357079175605569 0 0 0
104 1 5.111004946295406 30.438784134174153 1.3062225326014787 0 0 0
289 1 0.11986928246920328 25.02574702988186 6.49177559575241 0 0 0
112 1 10.822489365849158 30.398250741077007 1.3626159737455845 0 0 0
114 1 12.296044385248079 28.932005300322633 3.292958524149145 0 0 0
482 1 0.2328122843916453 28.71813035321739 15.828284998538459 0 0 0
266 1 0.27571087291885404 22.02580565651368 9.386031488188564 0 0 0
120 1 18.099970144430795 30.4424146147461 1.3945851588144966 0 0 0
125 1 1.5642053654199475 33.088115460047504 1.5928078306036286 0 0 0
123 1 3.4792410780339855 31.71220536950485 2.9563239369295 0 0 0
133 1 7.75535353481331 33.33828825496506 1.4905761057888627 0 0 0
153 1 6.468810661422447 37.80822380862347 0.3041000202262003 0 0 0
139 1 16.17675124040482 31.495195969635258 3.3304912902656993 0 0 0
141 1 14.539478532542002 33.02315844388006 1.495231133947688 0 0 0
28 1 3.1578364340712723 9.509768372171575 0.21746249964972722 0 0 0
147 1 3.2056529322576823 37.98104539280135 3.413881978913668 0 0 0
128 1 4.568660498064692 36.22951032189229 1.4996168697879126 0 0 0
136 1 11.428265644670713 36.6121454552941 1.66604450606931 0 0 0
164 1 15.921897196678126 41.489465231943 0.13621771748296835 0 0 0
144 1 17.71909647058299 36.75462013970781 1.0563352818621972 0 0 0
817 1 0.0803662819805595 12.602690172990467 24.960161795827343 0 0 0
149 1 1.6623317911005264 39.635582481088804 1.8149293150877095 0 0 0
188 1 15.687956626976955 47.80316828509456 0.0678382486869453 0 0 0
602 1 0.18167003226111042 9.635044245727697 21.82825115148093 0 0 0
157 1 8.047123457132393 39.924549861440994 1.8930213471614061 0 0 0
154 1 6.247032797350207 41.571509977238705 3.111773732869259 0 0 0
155 1 9.308338684263244 37.853860825229624 3.399227838427966 0 0 0
165 1 14.327333065668101 39.81889233249939 1.5464248764622952 0 0 0
98 1 0.13200106872376388 28.581350131866767 3.1718207066093704 0 0 0
171 1 3.1860476631985537 44.7072226579584 2.9513038697532297 0 0 0
152 1 4.507088173017713 43.02667156774307 1.5341948973921051 0 0 0
179 1 9.761202241599454 44.55644743285566 3.0051137134924 0 0 0
160 1 11.244182299348077 42.78742950493145 1.5951680854090824 0 0 0
60 1 9.74175520640442 15.64242616508795 0.1757431395107889 0 0 0
168 1 17.71299751076563 43.16448269025779 1.6499417245354269 0 0 0
187 1 16.071332842476604 44.76149411894179 3.3122192771781425 0 0 0
173 1 1.6253724571633634 46.1599774833079 1.158131551306518 0 0 0
338 1 0.1310126439388597 41.05631099789095 9.503646410435454 0 0 0
181 1 7.87476245387191 46.14440203157675 1.9192741249785237 0 0 0
189 1 14.365940781193723 46.21336006395062 1.8394834447087165 0 0 0
185 1 12.804772707328086 44.71328290459867 0.04327366090553518 0 0 0
3 1 2.9151251189522975 50.9164503978561 3.520062664207567 0 -1 0
74 1 0.03587804290857479 22.18512149122216 3.1022334378702086 0 0 0
361 1 0.3295921015114294 44.49259912441379 6.372816710721092 0 0 0
176 1 4.574789728950577 49.40254493549508 2.1057751763710444 0 0 0
11 1 9.251353196144528 0.014693830224407699 3.3256635428259065 0 0 0
184 1 10.974961082000366 49.58200395039134 2.1688441066226365 0 0 0
186 1 12.840336255797174 47.795374922727866 3.584302361537111 0 0 0
192 1 17.613661592382144 49.248394677391076 1.8523382229005243 0 0 0
92 1 15.967447152187086 22.15881821888888 0.11924019482807849 0 0 0
7 1 4.632694589709657 1.8305482148643601 4.48385207377336 0 0 0
15 1 11.045666248196722 1.4553655904438054 4.932229173453468 0 0 0
209 1 12.874448460143597 50.74276366786338 6.7732338351062324 0 -1 0
212 1 15.622817368876577 3.5129300198918387 6.172549367784923 0 0 0
23 1 17.335211831206838 1.4414314047405372 4.775825969304667 0 0 0
6 1 1.713527533843202 4.554923439022265 4.549901143968712 0 0 0
204 1 9.383691544283302 3.0923318529248975 6.328448906001809 0 0 0
14 1 8.001875474956295 4.675552189801961 4.641688246541146 0 0 0
18 1 12.315703115026574 2.8663990080459736 2.9632173814875236 0 0 0
22 1 14.267473830895616 4.698483717854601 4.440551456745004 0 0 0
27 1 3.2903568096595746 6.332978233857844 3.0177732035556435 0 0 0
225 1 6.258606312871269 6.584622462800042 6.172681948298714 0 0 0
31 1 4.820211203478577 8.029576725230001 4.4611355211820625 0 0 0
35 1 9.791604528700049 6.4820977055131275 3.144343943366733 0 0 0
39 1 11.116586160133334 8.211469632201402 4.661701251767625 0 0 0
47 1 17.325719422377123 8.035217659831027 4.3904226479838755 0 0 0
30 1 1.364431648702683 10.934629122658698 4.9654107490333566 0 0 0
34 1 6.632550405262678 9.463133884072162 3.393619585331468 0 0 0
38 1 8.08468859154797 11.39556822341427 4.984852110148023 0 0 0
228 1 9.18736365294608 9.535722569379326 6.641809784555165 0 0 0
46 1 14.42943748220188 10.93964280340531 4.488364087862377 0 0 0
236 1 16.069004243621364 9.38748193294643 6.474044963398927 0 0 0
601 1 -0.011906072142380708 6.431527337965236 18.986627641116467 0 0 0
249 1 6.000877358980988 12.691592543847353 6.200423882327898 0 0 0
55 1 4.588192940739516 14.087538762018431 4.311447177050559 0 0 0
58 1 6.424057234585227 15.68300872192255 2.693314763001746 0 0 0
252 1 9.707452082443265 15.931610275714407 6.368861934483737 0 0 0
63 1 11.314736660441891 14.12376030763836 4.973413054705975 0 0 0
71 1 17.432683984900386 14.211850294559017 4.7407681846563285 0 0 0
244 1 3.5340127154298835 16.042904735418233 5.810053851797585 0 0 0
54 1 1.4202404658116743 17.52188271356838 4.447025881604319 0 0 0
62 1 7.935172778919615 17.028192423623207 4.233398313879402 0 0 0
273 1 6.664492419412845 18.78756875846672 6.6159108122790595 0 0 0
66 1 12.577775600990144 15.936775293351964 3.575507992226815 0 0 0
260 1 16.231394615839463 15.875841669434587 6.300732476719437 0 0 0
70 1 14.157078568388794 17.38432721895846 5.003443791298249 0 0 0
79 1 5.434585984834454 20.589789102266582 4.7257471343003905 0 0 0
82 1 6.515328661779218 22.52286050752744 3.249006959498276 0 0 0
87 1 10.8385929374377 20.424220299417915 4.707262173343203 0 0 0
91 1 15.744355523175006 18.65599877473608 3.395669668863297 0 0 0
95 1 17.49569801213895 20.294900804884584 4.750982120728227 0 0 0
194 1 0.2830230362470552 3.1698494320606465 9.333682471573894 0 0 0
766 1 14.426675558313336 49.31717337268409 23.82639600713936 0 0 0
78 1 1.92977737025517 23.354194641901877 4.91467742864741 0 0 0
86 1 8.07199808681499 24.14768266652402 4.80874556755142 0 0 0
107 1 9.567553962102158 25.75975149285585 2.7907197443681997 0 0 0
305 1 13.053937787103372 25.635915237055794 6.348489114427023 0 0 0
94 1 14.470018384653832 23.612354485102998 4.780472753877537 0 0 0
292 1 3.0284836530445185 28.5673342076565 6.342804066870429 0 0 0
103 1 4.496245367014287 27.17863005274973 4.395714901400164 0 0 0
106 1 6.455322596432949 28.799926044805268 3.0230901300129056 0 0 0
297 1 5.9938211479650265 25.53862379985348 6.132786809144624 0 0 0
111 1 11.134290170339662 26.97373655430289 4.752546102452914 0 0 0
308 1 16.142462284222503 28.899433284057395 6.598693698697917 0 0 0
119 1 17.74115042210166 27.180480208337478 4.839277268624296 0 0 0
102 1 1.8027187860921359 30.26907005710759 4.6405076813507256 0 0 0
110 1 8.043639871260275 29.933221387440497 4.992660272084531 0 0 0
118 1 14.221164696444616 30.249524824042282 4.787987362865757 0 0 0
146 1 0.10354235872630113 41.375741253297996 3.220318165019836 0 0 0
316 1 3.290093097063614 34.583070042878596 6.550918388429944 0 0 0
127 1 4.705470350170187 33.054797647184 5.036186048245127 0 0 0
130 1 5.978349040498149 34.60691060972341 3.17390882721021 0 0 0
131 1 9.362118639088905 31.920948791451412 3.3633295416911766 0 0 0
135 1 10.806967033984035 33.49393728016931 4.9106788809130855 0 0 0
143 1 17.55199379889279 33.61884549860711 4.49664821060518 0 0 0
132 1 9.910895326226639 34.86626027017262 0.19667617431678122 0 0 0
126 1 1.3203558963086388 36.09577319541438 5.125745625381315 0 0 0
345 1 6.147730343262853 38.01529663522067 6.436210919303664 0 0 0
134 1 7.539962824462574 36.39393105988943 4.701608528976562 0 0 0
138 1 12.84623953366435 34.57263388125028 3.323424282084258 0 0 0
142 1 14.44362907430597 36.56169488381507 4.463853537944652 0 0 0
340 1 3.3274982838711966 41.2020106476624 6.262461655790881 0 0 0
151 1 5.001876341395831 39.45175785445149 4.749304515462058 0 0 0
159 1 11.238359945751021 39.77924916193628 4.666975783253525 0 0 0
163 1 16.14877135097608 38.23084180719902 2.771323524055601 0 0 0
167 1 17.63282532081239 39.96631420110764 4.66008137750631 0 0 0
150 1 1.8545980811182659 43.00939636930333 4.857745770620798 0 0 0
158 1 7.920070424336707 43.18738132979816 4.863324389472174 0 0 0
162 1 12.892995591275893 41.47137780471549 3.206445736635944 0 0 0
166 1 14.585562305172305 43.169891633995384 4.924990885746974 0 0 0
175 1 4.7336596254331 46.49301878277121 4.883529124834408 0 0 0
178 1 6.339618014997438 47.931437316114355 3.5818749828251164 0 0 0
183 1 11.050898651096457 46.19612018351707 5.0951298808063665 0 0 0
191 1 17.86851887266491 46.24637500419992 4.580222966209314 0 0 0
174 1 1.0298620055647383 49.20367084460021 4.715389346397986 0 0 0
201 1 5.85644838831804 0.05926792063438063 6.507991325788015 0 0 0
182 1 7.802016267742908 49.358792193048956 5.533282284041379 0 0 0
190 1 14.563714746879029 49.06725033842807 5.231812646876309 0 0 0
19 1 15.88962663352328 50.7723061744305 3.2452492727856854 0 -1 0
577 1 0.04266402786834078 50.59913326979634 18.966718861175018 0 -1 0
197 1 1.375891660576962 1.1923823709628592 7.943805750764257 0 0 0
205 1 7.6954764429192535 1.5466363966564083 7.872485359380215 0 0 0
210 1 12.801649378890344 3.047193026900064 9.274292996904435 0 0 0
213 1 14.608304971323873 1.702070155530516 8.055925108343468 0 0 0
196 1 2.738068190174645 2.9370242629993584 6.405353473158232 0 0 0
200 1 4.650094991165813 4.678528114467005 7.444682694536069 0 0 0
208 1 11.002982575019475 4.771135525276819 7.914140092433087 0 0 0
235 1 16.168530335415088 6.4847447893857275 9.194472631837211 0 0 0
216 1 17.69804263235541 4.866993906268321 7.452463619243443 0 0 0
219 1 3.2138573036334495 6.0784204305579586 9.413497459939878 0 0 0
221 1 1.4646153211845554 7.805370912227436 8.059281720171215 0 0 0
229 1 7.604634067827575 7.666899070891874 8.213312036036058 0 0 0
233 1 12.589466064604599 6.203502838109532 6.043209432505628 0 0 0
237 1 14.19188652288994 7.734745173049106 7.612710071490376 0 0 0
217 1 0.10143818987769855 6.071277213549493 6.39033598216103 0 0 0
220 1 2.9407443517494563 9.269092877868681 6.42121113130043 0 0 0
226 1 6.002099546503068 9.034957759579436 9.768446264006345 0 0 0
224 1 4.577383153780883 10.786820391641674 8.084555349103901 0 0 0
251 1 9.151656655675652 13.011960470398781 9.500515168359453 0 0 0
257 1 12.792222499947046 12.249871404632467 6.200997121896554 0 0 0
232 1 10.85128151172784 11.024933276983827 8.289772049530516 0 0 0
240 1 17.48750780450439 11.337214877932709 7.912538761645101 0 0 0
243 1 2.9520657001930295 12.704971177042452 9.679829083599166 0 0 0
245 1 1.8214318267459257 14.418629287800458 7.849333564544494 0 0 0
253 1 7.737139050992941 14.434691073647475 7.678718530813286 0 0 0
258 1 12.86303671207073 15.943059911249662 9.419943739650737 0 0 0
261 1 14.23853963318931 14.22931368759124 7.462803443772985 0 0 0
259 1 15.817796914014446 13.015321182433333 9.27526817646338 0 0 0
57 1 6.166947904264617 12.505190896173106 0.010283512897721652 0 0 0
248 1 4.911946113411774 17.44717218941545 7.817570172714018 0 0 0
250 1 6.25039268706309 15.904873218769678 9.483639015108547 0 0 0
256 1 10.906029083409388 17.42873964629194 8.055444678370272 0 0 0
281 1 12.492725256101656 18.925719667571133 6.406349241574328 0 0 0
275 1 9.504211600536127 19.11595837622289 9.774104497247745 0 0 0
89 1 12.62456819456111 19.518614564777756 0.024417208295135585 0 0 0
264 1 17.590382300169917 17.57778395109756 7.990742627051068 0 0 0
269 1 2.0987625352163866 20.381577610991954 7.914487892365139 0 0 0
277 1 7.986283592299809 20.635379980906535 8.089740705422003 0 0 0
276 1 9.619294764187527 22.39326712072829 6.359560630624118 0 0 0
285 1 13.90543898917026 20.687519254453395 7.770708872117009 0 0 0
283 1 15.570281713516755 19.06430611060586 9.382339554319847 0 0 0
921 1 6.172139651396016 37.90604907072782 25.28649804975329 0 0 0
268 1 3.7554428091338834 21.978675469817038 6.472305160161697 0 0 0
272 1 4.966226415888371 23.8529705441984 7.932754386335251 0 0 0
280 1 11.009160748734496 24.128812528640548 7.871331077725477 0 0 0
284 1 15.82530657123526 21.794986700862054 6.323407103582876 0 0 0
288 1 17.118059033022984 23.56496538669597 7.732802659161583 0 0 0
52 1 3.1542043869881518 15.962666926462383 0.46748092753660697 0 0 0
293 1 1.3376994835853309 26.54990219712208 8.141053664869762 0 0 0
301 1 7.772210804241735 26.997998451544014 7.748390839621554 0 0 0
309 1 14.57576795060587 27.171216313871515 8.03690616956907 0 0 0
306 1 12.668450831254571 28.8311778777346 9.438796452413966 0 0 0
321 1 6.404888626205611 31.510760419067232 6.549248165160637 0 0 0
296 1 4.786031004951779 30.303973725182672 8.19800928123854 0 0 0
300 1 9.697598808385562 28.298325326758288 6.4861009773305724 0 0 0
304 1 11.13815565961505 30.5784257768073 7.981657602585006 0 0 0
312 1 17.974682831472457 30.69066501320315 7.795517273398532 0 0 0
317 1 1.7037825342505897 33.05848688456896 8.227371364098696 0 0 0
325 1 7.882314983349234 33.193614023856234 8.066642218066606 0 0 0
329 1 12.780798696121733 31.86352522785539 6.214602499396466 0 0 0
333 1 14.406751297219264 33.43136010488452 7.543186515379665 0 0 0
331 1 15.841334891010302 31.909132337772554 9.34485947142478 0 0 0
339 1 3.288197075387853 38.13077931892613 9.926214237141707 0 0 0
320 1 4.634670483159325 36.46033366080454 8.211400283330736 0 0 0
324 1 8.936698086536355 35.02093850060605 6.52416399776841 0 0 0
328 1 11.142664552753963 36.61685471688945 7.698257308078478 0 0 0
332 1 16.008322903296403 35.1168572169755 6.232675234363418 0 0 0
336 1 17.296841516144696 36.75784034336719 7.848958363474453 0 0 0
762 1 12.8042758717399 47.75982426085024 22.250613613419446 0 0 0
341 1 1.6911163621023426 39.54570388383958 8.132779834425792 0 0 0
349 1 8.130310817700163 39.637045667027046 7.851275330511552 0 0 0
348 1 9.67111079355436 41.49159036545979 6.454767849121369 0 0 0
353 1 12.947491316080713 38.342455109329244 6.206743806424815 0 0 0
357 1 14.388383070106304 39.79021523845442 8.013886848881354 0 0 0
356 1 16.02706532703923 41.50245010351989 6.479004382464996 0 0 0
4 1 3.1092683089013957 3.191952141369506 0.04838654751702928 0 0 0
344 1 4.4575686400444505 43.178590221905395 7.785292881307851 0 0 0
369 1 6.277875504462054 44.65487226239956 6.5679710453750495 0 0 0
377 1 13.136483149356904 44.552312018921434 6.552363517020876 0 0 0
352 1 11.267584120250728 42.997145310805266 8.131960830639384 0 0 0
360 1 17.727472194160708 42.93534027918197 8.051489762992066 0 0 0
364 1 2.897000601841604 47.84520791852614 6.293639756209666 0 0 0
365 1 1.6435568501090094 46.36901226011957 8.112486576764999 0 0 0
372 1 9.601399007315624 47.71972365813747 6.715637226686851 0 0 0
373 1 8.070729898657898 46.02344901507068 8.353377560883033 0 0 0
381 1 14.685668887223544 46.2049331166739 8.135710627815525 0 0 0
218 1 0.011880268449234191 9.450365412360389 9.722115248461545 0 0 0
368 1 4.721228141000725 49.15236723155574 7.942493569345802 0 0 0
203 1 8.89738211245595 50.76377912983063 9.681242388211091 0 -1 0
376 1 10.855920812457 49.32547479512062 8.145197273209286 0 0 0
380 1 16.45747376797141 47.718033573495106 6.6444731031634205 0 0 0
211 1 16.055827720289265 50.819431817457684 9.851532826479966 0 -1 0
384 1 17.96550422711542 49.16576263283502 8.59713620735349 0 0 0
199 1 4.5256616288367635 1.6302624969787227 10.758826681181516 0 0 0
207 1 11.259406734917192 1.3177416345487731 10.676750890148295 0 0 0
401 1 12.573699135545418 50.73500374938478 12.67501241736389 0 -1 0
215 1 17.48399872095995 2.039186094814374 11.027066147148433 0 0 0
404 1 15.64751039226778 3.366569599527595 12.862908260951041 0 0 0
388 1 3.3451396419456643 3.3802918736327756 12.84993091522872 0 0 0
198 1 1.460162705522431 4.764280671394958 11.096061152571075 0 0 0
202 1 5.918919445461959 2.9703811515248755 9.146067915420632 0 0 0
417 1 6.407729190363005 6.006939477252573 12.838225283814253 0 0 0
227 1 9.327123963494767 5.9514049516592005 9.612284370211178 0 0 0
206 1 7.486741156642345 4.219696371181774 10.718002776298851 0 0 0
214 1 14.547196897388249 4.83915204555578 10.676152564109733 0 0 0
386 1 0.14777523385359553 2.933401552138602 15.94796637844943 0 0 0
223 1 4.699614032667263 7.480745404350902 11.666636860746271 0 0 0
231 1 11.153115276604902 7.637332026701172 10.8810894946337 0 0 0
239 1 17.50338104874724 8.117134709571014 11.006960464183273 0 0 0
758 1 8.381301875916403 48.84151423887407 23.931168837189105 0 0 0
222 1 1.5366993096056696 11.050445512875411 11.13586650687493 0 0 0
412 1 3.531962833872027 9.56991429667733 12.595007168214618 0 0 0
230 1 7.982394791797315 11.02873391146828 11.08034871247817 0 0 0
234 1 12.598273170667955 9.335143721579879 9.457726826755218 0 0 0
238 1 14.296384317193555 11.236987737102538 10.956497114777322 0 0 0
247 1 4.708486649246763 14.269571394079067 11.2787901594355 0 0 0
441 1 6.682783628565743 12.73171120428587 12.808656732625135 0 0 0
255 1 10.928731997389042 14.329963064980513 11.182515721871482 0 0 0
263 1 17.43341190568293 14.377612507724772 11.025080624541454 0 0 0
579 1 2.9904742681075445 50.57796523400618 22.184682264358102 0 -1 0
246 1 1.8354419591210729 17.304149061721404 11.305198376809434 0 0 0
254 1 7.720082933086872 17.488763113947524 11.245421273228413 0 0 0
465 1 6.364791799519276 19.1510849303002 12.917773454830941 0 0 0
444 1 9.635000383182579 16.04428085881585 12.64514699026108 0 0 0
262 1 14.190719640794633 17.457664536504886 11.252440680569565 0 0 0
452 1 15.961851507824415 16.08451105182788 12.556804904829738 0 0 0
267 1 3.447613412762915 18.7165079196182 9.716994731476229 0 0 0
271 1 4.759148725989616 20.723401534759322 10.93234725727228 0 0 0
460 1 3.450414805700499 21.985795586835927 12.898534898003529 0 0 0
279 1 11.182779218113662 20.984936575869096 11.482215817092214 0 0 0
468 1 9.456223857311645 22.243499361920026 12.955322533826964 0 0 0
282 1 12.426400995887077 22.66075840721176 9.568760918046868 0 0 0
473 1 12.931432833083687 19.1329306917937 12.867627608133025 0 0 0
287 1 17.24432445691926 20.65020337572235 11.040604036735362 0 0 0
291 1 3.2041996700478967 25.15194031990456 9.637893223267167 0 0 0
270 1 1.9625296697651509 23.57888550212824 11.242774298198743 0 0 0
274 1 6.408819064867427 22.307978559900562 9.686548452515098 0 0 0
278 1 7.918439657661325 23.857427490338164 11.064217348566318 0 0 0
299 1 9.126732388182644 25.628673348536015 9.567456346784063 0 0 0
286 1 14.369997898931972 23.92207637027264 11.01593582740741 0 0 0
295 1 4.911694273978547 26.97185644879796 11.085265530345808 0 0 0
298 1 6.400436306262743 28.586061826363103 9.445669302131785 0 0 0
484 1 3.3067949672426087 28.460246990851143 12.703167851398554 0 0 0
303 1 11.242715328739251 26.961028704178823 10.855190971093698 0 0 0
307 1 16.111406763417214 25.458131465269247 9.316634654447556 0 0 0
311 1 17.87147550607208 27.23073556738742 11.102131469789912 0 0 0
294 1 1.4615146014945157 30.13103701903627 11.381544735258041 0 0 0
315 1 3.20060209847411 31.775326817759467 10.03831177173818 0 0 0
513 1 6.382673604401592 31.901474672959317 12.662874110090732 0 0 0
323 1 9.583432268832098 31.874301262723737 9.737121782755487 0 0 0
302 1 8.08022775267154 30.038419728584433 11.154165446411604 0 0 0
492 1 9.626279453743726 28.30633856812395 12.789320595287496 0 0 0
310 1 14.407194198597296 30.479504694270965 10.925519805704775 0 0 0
820 1 3.2823181392058207 15.959927438564145 25.14533104378098 0 0 0
750 1 1.343282183970131 49.19456072735934 23.89814763403834 0 0 0
319 1 4.703496601459507 33.50799985660013 11.57106070177187 0 0 0
322 1 6.237842839537668 34.63341174345835 9.679915907325146 0 0 0
327 1 11.245477578627357 33.44223331894763 11.163348705324728 0 0 0
521 1 12.85334997766976 32.00100039188677 12.430242584767283 0 0 0
335 1 17.31067458321253 33.88955501744755 11.043641745006077 0 0 0
318 1 1.541299922045934 36.488147433317174 11.458027708579543 0 0 0
326 1 7.984171653326934 36.440626840350745 11.26567372068976 0 0 0
330 1 12.84135384453556 34.9160393782681 9.321294092790149 0 0 0
334 1 14.161487290227589 36.498570950803874 11.094881105197862 0 0 0
355 1 16.070773547551138 38.080723530033865 9.82494836092694 0 0 0
113 1 12.840596038451947 25.641025920969142 0.3295139114706876 0 0 0
343 1 4.873484993261703 40.159541882621745 11.440735985726066 0 0 0
347 1 9.419252666323779 38.00264965795142 9.400915355989824 0 0 0
346 1 6.127416584285241 41.26006122762416 9.121406489664205 0 0 0
351 1 10.853241617680004 39.56142194905478 10.817921865023592 0 0 0
359 1 17.769447799849008 39.732283775022665 11.177883215332642 0 0 0
674 1 0.1290093939726836 28.855477455540328 22.321480263839195 0 0 0
145 1 -0.017653490975052435 37.99197923194751 0.268431848611986 0 0 0
342 1 1.6311664133843669 43.10206035443987 11.022027375123406 0 0 0
363 1 3.1130170593236164 44.763096780306874 9.571170862788575 0 0 0
350 1 7.967227804990686 42.92224999736083 11.02889038972573 0 0 0
371 1 9.857508520329082 44.46420837610022 9.672330271431 0 0 0
354 1 12.91320705154727 41.257400633759254 9.74819719739106 0 0 0
358 1 14.686596179613469 42.72697375157647 11.150486037083143 0 0 0
379 1 16.184285207200396 44.516321281892104 9.776755192008519 0 0 0
367 1 4.736684122015488 46.28513524318804 11.24872532303477 0 0 0
370 1 6.452919308563431 47.669858647720396 9.73460260949145 0 0 0
375 1 11.313905336613935 46.06409119741837 11.271727965217073 0 0 0
378 1 12.729368072488585 47.91488240730516 9.643321825099992 0 0 0
383 1 17.314000408855048 45.89316588687478 11.675607303099218 0 0 0
804 1 9.560357045909484 9.099716008643076 25.402219397445407 0 0 0
366 1 1.2902090647020894 49.10021822114511 11.466385977726043 0 0 0
195 1 3.1392882182275335 50.41169718284924 9.519942146656138 0 -1 0
393 1 6.2064565523231385 -0.009382658062882854 12.438652169440157 0 0 0
374 1 7.882590848311422 49.05324319414438 11.400748052292593 0 0 0
382 1 14.426576015042903 49.26882375416094 11.338019554246623 0 0 0
389 1 1.7610810445224527 1.3708111761470345 14.10748800096662 0 0 0
767 1 17.41918913117498 45.95723665348246 23.842566519901787 0 0 0
394 1 6.466013544850205 3.0992973111466364 16.12918054266012 0 0 0
397 1 7.5699004537509404 1.520023452255893 14.07953671413664 0 0 0
396 1 9.689439026967017 2.961866710865906 12.509630451687325 0 0 0
405 1 14.019704684212494 1.3628296826974733 14.450662705757518 0 0 0
392 1 4.874596627311688 4.826523373125655 14.58585185635498 0 0 0
411 1 3.2027728492610468 6.512904327571949 15.862546858240288 0 0 0
400 1 11.383559064505631 4.8182305728786705 13.850093241567931 0 0 0
425 1 12.925584063995936 6.352346264553993 12.318621120393368 0 0 0
408 1 17.810616141521407 4.7385824697132755 14.224562333454069 0 0 0
2209 1 18.934319689925953 25.376086977736012 19.29732076579222 0 0 0
413 1 1.505209056710146 8.317542764778159 14.114973503682178 0 0 0
421 1 7.851097520183581 7.862120087107855 14.056271714044556 0 0 0
418 1 6.152563738262802 9.390998540349392 15.815692122844084 0 0 0
429 1 14.691039069398313 7.910265469588408 14.168977550099179 0 0 0
428 1 15.811827630672742 9.766721830928837 12.551935071209725 0 0 0
435 1 3.0735223772691618 12.845425582317091 16.028166790604267 0 0 0
416 1 4.801110707102613 11.317513162404538 14.210226585955771 0 0 0
420 1 9.816788862374946 9.246802933627032 12.466560519502 0 0 0
449 1 12.65538142898227 12.58383482193314 12.628715078697303 0 0 0
424 1 11.175163701458615 11.029308342946566 14.209200755018799 0 0 0
432 1 17.421167472146553 11.259649214329619 14.072606142289931 0 0 0
451 1 15.706868770361533 12.580066125007988 15.502994269761233 0 0 0
437 1 1.3131074668109437 14.503126017184844 14.509045993143669 0 0 0
445 1 8.223638483151387 14.550488740272899 14.463321655609558 0 0 0
443 1 9.67719721188867 12.366099582356924 16.030291775290895 0 0 0
453 1 14.08249993907831 14.427452709584081 14.035249717941488 0 0 0
436 1 3.3342164136100405 15.94331746348669 13.064083947226763 0 0 0
440 1 5.0891916469548955 17.542959239862046 14.805183877862948 0 0 0
448 1 11.30627642676145 17.378276493755127 14.393030698314318 0 0 0
456 1 17.43125412260301 17.654060028539014 14.314688395224636 0 0 0
461 1 1.788020509418085 20.46888927596679 14.342482733544388 0 0 0
469 1 8.01474234587 20.832230249332593 14.624173956124642 0 0 0
477 1 14.383097654885262 20.519433717391955 14.716441215565476 0 0 0
476 1 15.927971632937375 21.922449085038654 13.080684790651587 0 0 0
763 1 15.675762840006014 44.31492238214442 22.518339294329184 0 0 0
464 1 4.74972916508796 23.948404393868906 14.4065437780518 0 0 0
489 1 6.436403131414398 25.474384909166844 12.86612542205096 0 0 0
491 1 9.67925017534269 25.967629883440985 16.219590919607903 0 0 0
472 1 11.079347432930195 24.020918265931904 14.399473506607187 0 0 0
480 1 17.62905528036692 23.749332902768998 14.733953731735667 0 0 0
485 1 1.9638722938712545 26.929819877638725 14.284834212457795 0 0 0
337 1 0.024173765966339508 37.79657378490628 6.690920563732692 0 0 0
490 1 6.509305744198423 28.819343498715348 15.861953371331037 0 0 0
493 1 8.123423165516936 27.079816201456186 14.56584141378635 0 0 0
497 1 12.912359673407957 25.49359235177025 12.74690197020631 0 0 0
501 1 14.592066378937865 27.374766806574375 14.162737920111017 0 0 0
488 1 4.883306607698703 30.259190578716535 14.206073377891252 0 0 0
507 1 3.351430445157064 31.70613522529262 15.796460903491496 0 0 0
496 1 11.156402418348106 30.144792109042253 14.226996451521117 0 0 0
498 1 12.747166312323412 28.80441486109898 15.697670818435139 0 0 0
500 1 16.041989103156407 28.71013115328488 12.272950124482584 0 0 0
504 1 17.494044632490404 30.323732905430187 14.197206340694319 0 0 0
509 1 1.4010928764674362 33.241819088435875 14.601487999607615 0 0 0
508 1 3.0392634444214983 35.03483259864607 13.313560992760666 0 0 0
517 1 7.874229843153383 33.49880663176589 14.223115268065813 0 0 0
514 1 6.120831796476984 35.15290595506459 15.977584079941584 0 0 0
525 1 14.011282515196823 33.326871261518 14.399277509854468 0 0 0
522 1 12.608312377867566 34.85211693605126 16.05426982185305 0 0 0
523 1 15.738486856496928 31.90547154137327 15.8434361818357 0 0 0
759 1 11.541961589742325 46.175371512865354 24.06530595917579 0 0 0