LAMMPS data file via write_data, version 29 Oct 2020, timestep = 200000

4608 atoms
1 atom types

-0.3702679004835119 53.770267900481095 xlo xhi
0.09990317476745858 50.80721682522954 ylo yhi
0.09990317476745858 50.80721682522954 zlo zhi

Masses

1 18.015

Atoms # atomic

1643 1 1.2554757518655453 47.49026684064525 0.9956178803705622 1 0 1
2985 1 2.4957345658021697 50.189987042555586 1.754863839905273 1 0 1
109 1 8.569347446617861 1.901458774964151 2.4060514014508154 0 1 0
3388 1 13.115732646307887 3.329013079420455 0.5074845148225651 2 0 -1
2863 1 15.344880193338971 0.8991499849696528 2.4699268012171207 0 0 1
3461 1 0.954783199655012 42.773130582971774 16.44318164001667 2 0 1
1330 1 0.17408510115584797 30.26524196263898 21.75268329140622 0 1 1
3973 1 5.123700155455744 6.177724104220962 2.4529364601618737 1 0 1
1241 1 16.511447044811682 12.889247242152607 6.381570044187252 -1 1 2
1759 1 0.2730139381386252 28.615283989837824 11.123505712897106 2 -1 1
4488 1 5.396855085852056 39.26473700651489 0.49924580358286685 1 -1 1
1832 1 2.205344927100134 42.125297937290924 4.514749129597908 1 -1 1
194 1 0.912653902125435 7.923379813397716 2.406462599167831 1 1 0
933 1 6.613454426572296 8.21524449217973 0.8362040729561604 0 0 1
4297 1 0.32189523259456654 9.756076342423649 0.48907968012154307 1 0 0
1542 1 2.152197559015986 39.61411140866021 5.500396509919051 1 -1 1
3623 1 4.406277385930671 12.283996626842047 2.8310711551294294 0 2 0
3059 1 9.806871650522096 31.972605352919313 0.3390193555530091 0 1 0
1481 1 6.54989177416318 12.025569813854563 5.424997680006602 0 1 2
1320 1 1.8837092398997766 41.255823131993054 24.345050282324383 0 0 1
2512 1 16.544411045019274 9.370428674629814 2.781700371567146 1 0 -1
2087 1 0.24342736035378765 34.93491262279251 10.80565501415657 0 1 -1
722 1 5.850149157572988 15.069881269995513 2.5684967426423766 0 1 -1
1099 1 2.2962188046490963 11.014756894821339 18.550978117739202 0 0 1
1426 1 11.181049370875918 21.349466808766643 4.03593539616892 0 1 2
298 1 0.7992732176528885 4.297329290689415 15.410789971954948 0 1 0
2672 1 0.9929137689501444 2.4107616062156088 6.2447995984288305 2 0 1
2559 1 3.665877223059793 39.08676418356606 24.87383687214231 1 0 1
2787 1 10.843364865174623 25.941397729951856 2.10836615993606 1 1 1
1539 1 3.5918949529917175 15.823746839134643 0.7645042993688843 2 2 0
1400 1 4.882665540407235 35.827724995821555 24.61893944693488 -1 0 -1
3696 1 2.1019435205699897 23.846901720054177 23.313397592775903 1 -1 0
3116 1 8.689119953390138 16.888827556307444 4.176017220076887 0 0 1
246 1 0.3505163168011015 17.637288597550057 7.8716876302213645 -1 1 1
1035 1 0.24133059032620752 25.647129955709648 22.060503519763905 1 1 1
4343 1 3.2601932536645877 18.363001642853895 3.4375811066065887 0 0 0
2400 1 0.950705710449633 12.261592701872488 24.391410066049882 2 0 0
2158 1 6.9900541071252205 19.924947280134532 4.580215407679882 0 1 1
1324 1 5.7969046343641715 17.78494848875273 2.764936704448203 1 0 1
1183 1 15.904238705781083 16.967276418504788 0.8567236536399396 -1 1 1
2360 1 12.254124160555275 19.15086006905257 1.2390204248628236 0 -1 1
4580 1 13.34728653373652 48.966571450783974 22.90666843575625 0 -2 0
864 1 1.1561981961771088 21.309257071264618 2.2607508620484422 1 0 2
4147 1 -0.10886192389059945 13.322619894708165 18.08558525349068 1 1 1
435 1 8.333339728516918 22.950784650975194 1.5331767862669958 0 0 0
3468 1 3.3608284172391953 23.31269460366104 2.065032633121083 0 0 0
4360 1 0.6824798065460449 43.595799393326786 2.9455145410033374 1 0 2
3746 1 15.893253340823254 35.24022335757866 23.05872999824678 -1 1 0
2744 1 14.370498306628438 20.98289575437837 0.7028031960938299 0 -1 1
2333 1 1.5373438041999483 25.696183235185718 1.3113062878573505 0 0 1
514 1 5.62851765940011 26.48953975539211 5.334193855617971 1 0 1
4389 1 3.9320148078400914 27.515297218560377 1.4914192913870898 1 0 0
2750 1 6.2076334138543645 31.69384928295507 1.9841411380473912 1 0 1
105 1 16.46727315856138 27.972605232188137 0.48638293479261036 0 0 0
1558 1 1.685471452588073 50.43676002574364 16.104243387473343 2 -1 -1
2552 1 2.3417549029857194 29.250634383249743 2.328597035217865 1 0 1
4528 1 6.019381473963781 29.059516996902016 3.9718390127108285 0 0 1
2796 1 3.647411399947626 29.60758255456505 7.169879269814195 2 -1 1
609 1 8.980752644317779 31.600086347217175 2.868495438932613 0 0 0
2720 1 10.537709564392571 29.6976274362972 3.8834957187972456 1 0 2
42 1 2.9347864924244864 10.722386922456362 6.709222764664281 0 -1 -1
1656 1 2.7070101231476404 35.21368087026106 4.196622967443838 1 0 0
469 1 -0.08857533137310236 6.658124997219813 16.277611609295064 -1 1 1
1549 1 3.7405386951056876 31.406783894277858 3.1080256439150107 1 0 2
634 1 13.942026923198961 31.704841454405017 2.95283044175077 1 -1 -1
4134 1 16.073035932933276 6.8653116106478524 1.9136226435838106 0 1 1
2732 1 0.8066661297330859 36.0395064742812 13.944599382373054 0 -1 2
2079 1 16.765537486067206 25.277066833928096 20.954832622435163 1 1 0
3504 1 5.74011500494212 37.409044821855304 3.254287372861658 1 2 0
394 1 0.045308538199587634 41.61560909362882 0.727947004552529 0 0 1
314 1 3.0621081171662814 33.857259778569826 1.9504435668620241 1 0 0
1655 1 0.9111789709040157 17.764886313240943 0.13890314091257178 0 0 1
2120 1 2.563310814908897 38.548092481402975 1.1489838161747628 1 1 0
3962 1 8.447742618836568 5.224004678448368 0.5237435011967083 1 -1 1
3778 1 -0.24930596529224508 39.58021930222253 23.65235723443501 1 0 0
2226 1 0.7106933734134411 18.65795933202323 19.386783327957957 0 1 -2
2631 1 7.7822928240187235 37.74642372074169 0.7753785097018241 1 -1 2
4129 1 2.2350286375998567 44.193316181553655 6.447636638060163 1 0 1
3550 1 -0.29368001834590984 38.837557345664266 3.170672332487764 2 1 0
3562 1 16.649144803507927 39.74918515295852 13.771690425254924 0 -2 0
3831 1 15.397663993288495 43.367563523785904 1.9745754961322814 0 0 0
1633 1 14.396170990258646 28.288407362363245 23.133560192967316 0 -1 -1
2435 1 -0.2207183449107199 28.116132017205253 23.66276816942875 1 0 0
2976 1 5.936034105713615 43.84267526267138 2.4608177603109826 0 -2 2
4363 1 10.346351019325597 49.35519519808118 0.4631041003465106 1 -1 2
3445 1 7.97470575887988 47.24453486461556 4.256916016920993 0 -2 1
3502 1 10.742287253120985 48.44019204371175 3.1184244696797827 2 0 0
2343 1 16.677513041292652 42.69318073530137 5.920569560366844 1 1 0
1186 1 3.449396524671604 48.916602358452266 3.9017907675428702 1 -1 1
104 1 17.05929730486043 26.594941874305587 9.093805847851653 1 2 0
3906 1 6.713775944141649 46.40656450526136 1.2192835453387827 2 0 0
1149 1 6.067699711273276 48.843030516768735 3.218780778716626 0 -1 2
3015 1 9.682283067843212 44.45134727520009 23.93992260778559 -1 0 -1
3323 1 1.5969656538337142 44.04167892147002 22.991554555006644 1 0 -1
179 1 0.49016356359036084 4.304180745448077 4.2836251545803705 0 1 -1
3619 1 6.407188320290789 3.9839287724318755 2.4040733123735762 1 0 1
3786 1 4.37811932963281 2.533649539718431 5.143315105019613 0 0 1
3794 1 12.477261039639899 50.134359327096476 4.425923969489269 1 -1 0
1805 1 14.934578213244325 3.7057730006311904 5.1582440856704865 0 0 1
4421 1 16.37130111239104 1.6799250092167226 6.702843524341021 0 -1 -1
1976 1 5.260126477496744 5.155966655152838 6.016064356579897 1 0 1
1852 1 7.821246160182106 5.229573062200932 4.714340153543451 0 0 0
4162 1 10.079787683132917 6.65883661853924 2.3701278156528476 1 1 0
4531 1 13.167344031270753 1.9732942185902584 3.219943134759345 0 0 0
4165 1 13.684354913222055 6.348470212555215 0.5534428671822547 1 -1 0
3937 1 3.509427360586983 7.178127747642463 4.648711081336696 1 0 1
2297 1 15.862475865756714 32.01319406492455 19.70398066138139 0 1 0
2760 1 10.276561383031776 12.026809460809117 1.4445989470648777 0 0 1
455 1 7.952527596777175 7.758848017963835 5.866614872793205 0 -1 0
1732 1 11.23335588972511 6.797642627939655 5.458629236245409 0 1 0
1210 1 13.122057448990285 12.104168543554389 3.8826086695953332 -1 1 1
390 1 12.961502862664405 49.40261031758071 17.18629731618272 0 0 0
2643 1 -0.28912043518103303 32.48664469042269 9.048962278205193 1 1 0
3554 1 3.39844897837111 14.525009174267126 4.485066060806007 1 0 1
1551 1 10.47350183899538 13.448196593241864 4.603199263909482 1 -1 0
2350 1 11.296252673242657 15.431902976007775 6.584206536780099 1 0 1
3597 1 11.549295409118113 9.464584651400724 5.981830897977888 1 0 0
2410 1 14.881615417620717 31.621091643059465 23.079097800713832 0 0 -1
4223 1 15.313070219797144 10.835513846195356 0.20751635964549336 0 -1 2
3405 1 0.717402056581846 43.14196955169416 20.637811882819495 0 1 0
183 1 1.7160786069970455 44.85281253610421 17.999216559840903 0 -2 0
1764 1 5.169386340181671 16.8078516452871 6.3885453399420165 0 0 1
4051 1 4.430060653601227 20.062940973447507 5.546954694668506 0 0 0
488 1 13.234616421406743 13.289875969187788 1.0023169231068663 0 1 -1
554 1 14.252045878273536 15.190027796235478 4.084549600659884 0 1 0
1584 1 14.172730365314354 14.81122598264861 9.159256095450402 -1 0 1
301 1 1.0396673883578809 19.034783199487517 5.357512244494413 -1 1 0
4339 1 1.5407006077769783 16.45244916652064 3.2194551619108216 2 0 0
1943 1 7.605093161548133 14.48716388486207 4.735530511338764 0 0 0
3933 1 8.564522629531975 18.630471779740223 6.377082111703175 1 1 0
3186 1 -0.2798206144707662 26.41933839106883 15.685623342030327 0 0 -1
2482 1 12.963826002059855 13.419258195251295 13.933013485373655 1 1 0
450 1 5.545461372000155 2.313931489514691 0.3618898547097777 0 1 1
966 1 0.1459672459108824 21.063360776780467 7.888576946896682 1 0 2
460 1 11.824342651783892 17.064774606882168 3.6961625883315516 -1 0 0
557 1 14.292787386499473 17.838178857425934 7.992889481822837 -1 0 1
2044 1 15.72786859129966 19.780446451816605 4.981356818043003 0 -1 0
3990 1 11.16710820528373 22.857880524796347 1.5787269290843746 0 0 1
3013 1 0.8217193166469474 25.206696665969776 6.3771095912726645 0 1 1
3317 1 1.966857574277805 22.8431053407064 6.88818586075819 1 -1 0
86 1 3.914778021201898 22.789338494932522 4.976731826340459 0 1 -1
2382 1 5.203566804725292 25.42895719308585 2.6951105640446897 0 -1 0
4358 1 -0.24749436190448457 11.51727042899387 3.4879517224789094 0 1 -1
4128 1 9.941808732487466 20.881030739500346 7.231288767571157 0 0 1
2696 1 14.70424653069944 27.29795860730216 4.268347774043916 0 -1 0
4503 1 0.3445440114495778 29.13463365780537 16.824982985094834 0 0 0
3269 1 6.596678892921158 23.597090145228076 6.093447088914915 1 1 0
4399 1 7.604991057503115 25.7269498991922 1.3802135749156983 0 0 0
2997 1 6.893513126495221 29.86682176253268 6.8185502639246405 1 -1 0
4575 1 11.902490654628211 23.35690436119779 5.5863627115699614 1 -1 0
672 1 13.194995854677932 24.989661019892015 3.6754327063847962 0 0 2
1888 1 1.354923649768 7.096438881281185 24.638644492176777 1 2 0
597 1 3.101549670606605 27.10710420054049 5.903574829598777 0 -1 -1
2356 1 5.113895929463215 31.321610569759503 9.91698191693735 1 -1 1
902 1 9.787149190097237 28.770534613151174 6.567769882946723 1 -1 1
174 1 10.449004917567816 33.70619177931623 5.057325220449008 -1 -1 0
1783 1 12.234051272733453 31.327042067652894 4.986090445073041 1 -1 -1
527 1 10.928483391878888 48.2394185536005 21.717823329412038 -1 0 -1
1666 1 2.966755313080227 31.945267287880476 5.898326746469287 0 0 0
838 1 9.702737330954381 31.647587701981845 8.048544346262931 -1 0 0
4178 1 7.595472983499904 22.95189082086109 24.7607853795408 1 0 0
2143 1 14.130856278243185 35.12431864742135 1.0399100968468344 1 0 0
3532 1 16.39510147136524 45.36649040420755 5.870049680321884 0 0 1
3120 1 15.472723254838263 34.00283685151591 3.462675134591554 0 1 1
3844 1 16.284031209628772 43.582783525592234 10.384845091811638 1 -1 0
3113 1 8.63714106133338 8.971139049521089 3.0759412291019443 0 0 0
3257 1 4.607478902598766 34.337364941210254 5.611095055586597 1 1 0
1797 1 17.31504951716336 20.55720804907746 20.11923466009784 0 1 0
3477 1 6.240553967925796 39.65796848608592 5.433616701199206 2 0 1
730 1 7.207016485560325 33.673291021527874 4.641585058702438 0 1 0
2716 1 10.349283013660255 38.01022012890142 2.2943842092205116 -1 0 1
1575 1 14.824719466895747 34.61455969941365 5.8696637268733705 0 0 0
409 1 6.924871238681847 15.596058048703991 22.48615550573949 0 -1 2
3394 1 3.111676405313584 37.823745897300995 3.68300865573387 1 -1 0
2800 1 0.1804944881945727 12.83592426676964 0.6743438570570094 1 0 0
585 1 5.045163632690254 42.458362471325444 4.8644044155361446 0 1 0
2598 1 9.745567240531832 45.79190523768031 1.5800683894963221 1 0 2
1412 1 8.77563206894634 40.57116095036686 5.920132303507984 0 -1 0
804 1 12.12352757872915 40.410342696305875 2.7604322404722503 0 1 1
1174 1 12.921024920700843 16.807346855090525 0.5280913191199088 -1 1 1
3308 1 5.049890083969347 50.55612548329779 25.227551012498996 1 -1 0
2835 1 -0.05543910041823524 33.39496802944096 1.6723051365581028 1 0 2
2572 1 0.003257044438636114 6.4093214965758545 22.282293428178395 0 0 -1
3150 1 -0.1925341801016763 44.47048983570649 7.2717336190984465 1 1 0
4529 1 6.357017394660778 43.10557137068986 7.372860505946272 2 0 0
4175 1 8.995635634924152 48.77248091656159 6.315494117878427 0 0 0
2078 1 12.859298232121187 44.527904340889364 1.886264659043257 0 0 -1
753 1 2.3107751716235465 9.903172807946921 3.8823544271561614 1 0 0
621 1 5.094883647663175 24.966071502082524 23.318729373775277 0 -1 -1
2056 1 6.341424461661002 50.16895081196435 7.28895762776095 1 -1 0
4300 1 13.217684862205097 47.02475950622667 3.288980452639221 1 0 0
3298 1 1.2690433499098284 50.36025336109239 6.153487972754395 1 -1 0
596 1 2.663989754576935 1.9962972335120264 3.1264751581733656 -1 0 2
3798 1 7.413167543231804 0.4055585685245081 4.630288258902299 0 2 0
2342 1 14.306140858073393 1.6962515949628059 8.772036763612867 0 1 1
3822 1 11.06679492261961 50.548278919855576 6.537667051045795 0 -2 1
1817 1 16.032938619890174 49.23278781377583 3.4293602128660217 0 1 0
3428 1 17.29875189867284 45.57550932497112 2.191227177205608 0 -1 0
1293 1 0.20479359023450727 30.112186834405193 0.7479476261220178 0 0 1
1914 1 1.369415497224594 35.24670713483435 24.137322263237152 0 -1 0
3390 1 13.247683522916729 41.43457865276655 24.254064180943473 0 0 1
2337 1 8.024497218955029 2.779267268858493 6.206378677706946 1 2 2
2634 1 6.2390075879590885 1.6738100274048677 8.600089551418357 0 0 0
4106 1 10.172531893573561 1.2542506269028793 10.670695910916884 1 0 1
3080 1 17.30734313782768 49.76692122171819 6.6641959425082105 1 0 -1
2629 1 16.09348252813347 1.3869415344562768 10.480636205269228 1 0 0
2916 1 9.150850950488891 47.35702251481332 23.985221663014205 1 -1 2
2628 1 1.50139761161494 4.297031540382918 8.63159068631166 1 1 2
492 1 10.760919674760107 2.6651105274094484 5.899026675879215 1 0 0
2730 1 12.675422358387257 8.233253934812073 2.632551423212312 0 1 0
4485 1 1.0830329739238351 28.488948606312697 4.43324022057667 1 0 2
558 1 0.3347668513077269 6.979093875132625 4.822258578274248 1 1 -1
413 1 0.7568463516306134 7.977728066865722 7.2944538895382856 -1 1 1
923 1 10.59123595607884 3.8025764732820204 3.154845913022829 1 2 0
3491 1 9.84505717960251 9.90084212639168 9.047152279934549 1 -1 0
398 1 14.387968999069718 9.863636731063588 4.241235514784968 0 0 -1
2451 1 12.074815094979598 4.650971163931901 7.278771265780897 0 -1 0
687 1 15.271438531352567 8.115378961038411 6.178226930064009 0 0 -1
2116 1 12.942186778840515 28.836006580468883 2.287463776003944 0 0 0
952 1 13.724192027692242 15.29895924635075 22.412186410985356 -1 1 0
252 1 9.095750869072852 10.896116383716771 4.998296844246041 0 0 1
2054 1 3.147936979820166 6.618588753312604 7.985144368361068 1 -1 1
1829 1 7.896768239706313 12.433080980746718 8.061491694696873 1 2 0
626 1 5.386484403067021 9.51504047432436 6.067376547239841 0 1 1
642 1 1.7844273738374667 10.754523242134793 9.204256991501772 0 0 0
3980 1 3.900469686068641 14.356701608716325 8.876083440884516 1 1 0
4259 1 13.80145731723061 13.562182633100239 6.539779676674952 1 1 1
118 1 7.103603782803156 15.235782066678237 7.614855975178414 -1 -1 0
4049 1 16.775954808612088 11.595505048674378 8.882589989857225 -1 1 0
4549 1 1.0378189146772783 14.214822327988369 14.845762974196836 2 0 0
3959 1 7.318612469896574 17.9835340266387 8.73400898944475 0 1 2
2973 1 9.304154299320682 22.386707521720346 9.364907260560452 0 0 1
3129 1 12.605792674056882 19.399132035364936 6.212033934276243 0 -2 -1
3130 1 9.600625683653728 20.477958686055672 11.436861090921647 0 0 -1
2088 1 16.80630101839572 15.359887791300576 9.609824972517089 0 0 -1
1935 1 14.482857496896681 18.923005421311412 10.875307846225697 -1 0 1
304 1 0.7576246549939618 21.906211797131945 10.497831325643334 0 1 0
1401 1 6.493808988943884 22.744572943307745 8.550577164053276 0 1 0
4445 1 8.302696502637378 22.0152303291533 3.961346999826514 1 -1 1
1767 1 4.9791888925024015 41.90938207552081 24.40683866300535 1 1 1
3910 1 4.222456363119459 44.1012599310605 22.68286213486714 0 -1 0
1129 1 6.5705927548700735 27.12437508261143 8.393271660411697 -1 0 0
2005 1 3.3683660914655214 22.82169086737641 9.069726635224503 0 1 0
1713 1 10.609211271466398 24.5267148911794 9.367020153415544 1 1 1
266 1 8.91248217093019 27.072662144763374 3.8071556773901025 0 0 -1
3240 1 13.43156123439839 24.20511153956435 8.684349028872143 1 0 -1
2669 1 11.878922420784052 27.78133729721597 8.632554588147526 0 -1 1
985 1 14.173951998380739 21.785879407588364 7.194537122687124 0 -1 0
2867 1 7.646006794388052 27.876729589183455 10.753602102786932 1 1 -1
3418 1 9.379282190792749 24.937437057550703 5.182170713810494 2 -1 0
921 1 16.564478411124714 29.802218895118656 4.798152611264547 0 1 0
4084 1 -0.25012225582970954 30.612230815506532 6.0303723129527675 1 0 1
1050 1 3.674618093661018 27.305797089423717 8.967294940279732 0 0 0
1742 1 11.337011326864685 30.919455778598326 12.141618937674856 1 0 0
4277 1 5.417222047880249 30.23829348424223 14.111363194525165 1 0 1
1707 1 10.608380465485425 29.021123727482742 10.390897575578657 0 0 0
3803 1 12.197915193588662 33.66644126661319 7.574473790987756 0 -2 1
3134 1 12.696933339925936 30.51116098717068 7.810076810618711 0 1 0
3320 1 0.6682688900067557 33.510253404289486 6.473416331574527 1 -1 -1
693 1 9.043562593655087 31.96601788628542 10.856577201530815 1 0 0
2624 1 14.168915715246753 32.4675110627299 9.192599463975071 0 1 1
2510 1 15.118066221025575 47.36448694444071 21.890071860144555 0 -1 -1
125 1 4.315264679863686 39.52331954201759 7.405424282560264 1 1 0
142 1 5.75492743924135 36.93650828270168 7.685902133982041 0 0 0
3542 1 7.527393429410096 36.510686859625054 5.426924650995526 1 -2 0
1869 1 8.22755103625116 33.91315094760607 7.357229520494194 0 0 -1
986 1 13.036067663441706 36.56930188538861 5.620613625117869 -1 1 2
2231 1 17.33524342399414 36.09428739075378 5.759498905319406 0 1 -1
540 1 17.57963043383953 16.591322512420405 19.68388557093747 1 2 -1
651 1 10.126923888614096 37.848126231308754 5.137130592196458 0 0 2
1325 1 8.589975762893006 41.52158974469879 8.593404298286035 1 1 0
794 1 14.629818496700727 41.75345388240336 4.168928223039207 0 0 0
1691 1 1.8313655581422141 44.24339247403802 10.042901486506254 0 1 0
2043 1 2.130254600956526 41.57288075537818 8.39713823150481 -1 0 0
1120 1 8.210729716117283 42.53752308878167 3.9234858522980045 1 0 2
3681 1 10.653268436070608 44.11725083598239 4.27605550450714 0 0 0
525 1 12.18388254506686 42.19798088210797 5.102567791467602 1 1 0
2190 1 0.6923146224572487 48.98409861617378 8.189181769601078 1 -1 0
4553 1 7.580192843723394 45.178642811458985 5.828511807580999 0 -1 0
3545 1 13.231565268716816 49.943523088378896 8.237119092883711 0 -1 0
502 1 14.60569373478112 48.843596370856886 5.858065445901641 -1 -1 1
264 1 13.182324653144601 45.851291992633634 5.968131482498501 -1 -1 0
3574 1 10.772355577639088 42.42475070982135 1.2818035530221463 0 1 0
4264 1 8.619637411577276 49.47010315329763 9.484138288427037 0 0 2
3335 1 14.045929019892492 48.64942956915982 11.090328310645129 2 -1 1
3758 1 11.634858548191504 50.12474401033778 11.943787816636101 0 0 0
3142 1 11.730280354628425 28.42016479500548 21.938645390935925 0 1 0
3648 1 14.745242428471258 47.07566285211854 13.217371626877053 1 0 1
847 1 17.214960963622996 18.168663461567093 10.350695610507103 -1 1 0
4496 1 2.9119090499078535 2.57130212856528 12.206816276905991 1 2 0
2583 1 7.536404315483803 1.1240190345857943 11.307675577953573 1 1 1
2402 1 11.768996902202426 3.2288615168589834 9.664690485675045 0 0 0
1679 1 11.131328313362124 0.49643135754526324 14.743704993811317 0 0 0
4507 1 2.6796105506091386 6.157198490063394 1.0959420003230966 1 0 2
542 1 11.664443973101735 35.254993670589016 3.3962671758969214 0 0 0
2354 1 3.5939301295690567 2.2486387990830994 8.332798987083153 -1 1 2
472 1 4.660412356229815 4.270798662427366 10.527896791197337 0 -1 -1
3736 1 7.72269784003155 5.610150757777885 8.33013407066291 0 1 1
2492 1 14.737011633224059 5.673257999917924 11.479026929899707 0 2 0
127 1 3.0789197731915703 6.2162137669689335 12.109242853641751 0 0 0
3203 1 5.40324703516027 6.985944900958119 9.38128424824346 0 0 -1
79 1 9.980006751388025 7.4208153423630625 7.962940580649596 -1 1 0
1859 1 12.569315946761144 6.4840091137298685 10.249291069693836 0 1 0
1474 1 16.345139773575124 5.549188354819008 9.098044680420722 -1 1 2
2291 1 2.898436822240857 9.387883885311354 11.819345516548953 0 0 0
473 1 6.472144422731594 7.394979577932352 12.225909103164517 0 0 1
2946 1 6.592385455051342 9.88405330533755 8.636496206793773 0 1 1
815 1 12.892235097735261 8.925071305136006 8.809655049640872 0 1 2
3620 1 15.12162237701793 7.591764082800151 13.348637950995181 1 0 0
3424 1 16.65986285342818 9.447670862028806 12.38794953790957 1 0 1
4585 1 14.888869724243918 10.570859083882489 10.237249322061192 1 0 0
846 1 4.584737912089926 13.073782500341325 6.568220260841881 1 2 0
2778 1 15.235660582857307 14.239679284464168 1.6832634240735636 0 0 -1
3382 1 3.3645632358098276 14.448082462358071 13.005422407515475 2 0 1
910 1 6.087200839493013 14.06125877584766 10.540089869289243 0 1 1
2339 1 13.514861423420424 12.783301602445075 10.769347995178437 0 0 2
444 1 10.989247272834204 12.598286730620455 9.709494279747618 0 0 0
1632 1 10.065034749537595 14.966541733701028 9.172502427079099 0 0 0
1421 1 13.745881480151807 25.830081836846546 25.28851113018945 1 -1 1
535 1 3.187890505192408 16.99615234432837 8.66945838528317 0 0 0
3911 1 9.097296360866494 14.940785860597945 11.770779708089565 1 0 1
3028 1 6.278693128785356 15.53714604850667 13.196114483852742 1 1 1
2178 1 12.203554892388462 16.737521269768845 10.22446345808622 0 1 1
414 1 17.02870742706226 12.339048597937467 12.91099692429449 1 -1 0
2445 1 14.829060404398424 17.57698582513256 13.165217785735011 1 0 0
2320 1 4.365295807770539 18.47128044279856 10.178119194912913 0 1 0
2907 1 9.23292009318686 26.094148300981793 7.743264115468527 1 1 0
2712 1 5.791498148495582 20.14238870999037 8.05036709674538 1 0 1
3916 1 12.271438709435753 20.59954389368493 12.215945082813663 1 1 0
4275 1 3.218221174393298 20.889772599503555 11.618528097389861 1 -1 1
3881 1 15.802562498961205 21.2080724397954 9.838756268626826 0 1 0
4393 1 0.21379177137900596 25.670689200803874 10.196951332005314 0 -1 2
273 1 17.484522856894372 32.67451306795027 22.84699727253096 0 -1 0
3638 1 4.378749352770712 25.783234117084206 12.7120562905704 1 1 0
354 1 2.711939147065481 25.017187276644428 10.434210344287122 0 0 -1
3045 1 11.110255384597176 24.301794930042366 11.816060977589405 0 1 0
3072 1 14.401865725437156 27.450601011751306 9.842098796753136 1 0 -2
3275 1 3.0475565616792317 29.240869133291305 10.78139286263029 2 1 0
2473 1 15.909790292750195 9.744861154125614 19.588622752647744 1 1 0
3816 1 7.058273529679479 28.17563727022113 15.422812115064021 0 -1 -1
894 1 7.068888268613293 26.226998340284464 13.055206223126223 1 1 -1
830 1 11.714204739627665 27.07170475553863 12.14839194406349 0 0 0
3024 1 17.277087869045364 24.72616098278503 6.056083268779878 -1 0 2
238 1 2.201380919311768 31.99422360419667 9.700018082358646 1 1 0
716 1 1.0067159976599283 14.731494398429646 23.529163873170262 0 1 1
343 1 4.798978210185537 32.763405439676376 13.632546808608833 0 1 0
3408 1 10.82308865485515 36.903141472972365 12.847412371691671 0 1 0
1246 1 13.431813380713187 33.97536921393453 11.614194355410964 0 0 0
362 1 1.0417366130236683 13.17971669645757 5.8231596219881965 1 0 1
2846 1 14.937220921267597 26.05343740655249 7.071289400210001 0 1 1
3212 1 6.913143002278154 30.333998615792495 11.664364850575739 1 0 0
2888 1 4.627002030357366 36.55462545675198 11.70381749030896 0 0 1
485 1 5.716916021928547 34.090392309219595 8.212200046370453 1 0 0
4502 1 9.086259541939162 36.93915287190933 10.119731751693271 1 0 1
1772 1 10.495088164744693 36.13628412643632 7.62625208408258 1 0 0
186 1 12.28627475851206 36.44952504248265 10.478704017393836 -1 -1 -1
1983 1 14.327116071133489 38.023314712907904 9.922697003876175 0 0 0
162 1 15.683493039814866 19.376160925282534 15.701484705964303 1 0 0
4384 1 5.177686633132334 40.39894384608354 12.764714799178323 0 0 1
2332 1 6.427841906458251 38.01472010339613 10.277180306253333 0 0 0
569 1 5.028563402857679 40.945953453386 9.336119254946425 -1 -1 0
10 1 13.199454733311127 40.77368098223846 10.534515721816941 -1 0 1
3595 1 15.694783962473782 43.10988327309143 25.327777275462537 0 0 -2
1723 1 1.552362145310213 41.00719080255513 13.594142905433635 0 0 0
4357 1 2.121141885756254 39.76553999349112 10.934237924391557 0 0 0
3128 1 8.729772251352513 44.33098004314476 9.155421179366776 1 0 0
1176 1 12.794702955585736 43.35914750662438 7.852498590494678 0 1 0
2245 1 13.868456385788361 38.76367422102874 7.32541144633445 0 0 1
1151 1 13.739137724924525 45.89071404510875 9.522212459830643 0 0 0
2588 1 14.853680391522355 47.80235087779769 1.1630537448231733 0 0 1
3812 1 4.373592261162876 45.13311090432869 8.85720327865096 1 0 0
2187 1 6.3480797922903145 47.338805116156564 9.140954693486172 1 -1 0
1335 1 10.093752598223954 46.08542984332422 7.306660717619887 -1 1 1
1701 1 9.085487407926646 46.47599920813575 10.881306336975019 1 -2 0
1287 1 6.037851932480621 44.86060969659249 11.262747556257537 -1 0 0
4082 1 11.24612657474283 47.25753870519263 12.614321461880255 -1 -2 0
1941 1 11.235235875520424 44.17509009659686 12.085939634535789 0 0 0
2869 1 1.9648628616624118 48.65268908089344 11.53748075355725 2 -1 1
1224 1 2.8192327706403084 47.91465573053601 9.244070420701066 1 -2 1
1799 1 4.00374549106167 50.56581633698197 5.9517849266693466 1 -1 0
870 1 13.328432760000405 44.66804522583779 16.234203269004574 0 -1 -1
2166 1 3.1715064787472156 50.22046527157812 13.941987628763846 1 -2 0
358 1 4.981576310691262 3.2264487195551803 14.134845381574241 0 1 1
1960 1 2.9011946750678894 0.5455709632637964 10.383101288678699 -1 0 1
463 1 12.113605041314734 2.765444744859598 13.048747266102911 0 0 0
46 1 17.264945955618415 2.651012867122816 14.087596913261914 0 1 0
4481 1 14.95913811302585 3.0408499350635636 12.695833248874864 0 0 0
3427 1 0.709944982900983 39.61317774658097 18.597935472087897 0 -1 1
2544 1 6.989532076627807 4.638760053538638 12.977531605083168 1 1 1
685 1 10.177888732843206 5.9497564362612625 11.553789862264798 0 -1 0
3799 1 7.971008221396998 3.8671752279384974 10.674057795700175 0 0 0
3448 1 13.370510883782046 5.750200369229826 15.764120286145133 1 -1 0
344 1 9.460346834515214 21.236216687043154 25.029701980400784 0 0 -1
736 1 1.543319336548078 10.447317650048486 15.548177985201162 0 1 1
3088 1 0.4909390999661494 5.667749452502507 11.678345063496653 2 0 0
1315 1 6.308561685467088 7.9896198587706095 18.51482040964119 1 1 0
3968 1 6.824291104446452 7.595861309437747 15.916526045301044 1 2 0
4208 1 15.734285342130867 6.76561130317774 18.281384626211942 -1 0 1
2036 1 10.22017970338265 8.708422448683633 16.721971921801465 -1 -1 -2
3417 1 0.9833875221924793 16.756088199043045 15.774960832346983 0 1 -1
2966 1 0.5487035983789256 3.2880371969683457 12.900518936014205 0 0 0
50 1 6.367199817013584 11.225547275521546 11.529050470244453 0 1 0
1972 1 8.459663353532543 9.090350025415578 12.008379299971866 0 0 0
1334 1 13.338301354773682 10.163549809501447 13.334095251454832 0 1 1
676 1 14.214015993476997 44.500438813430975 11.84178283754458 0 -1 1
3680 1 16.83392775674368 6.978649667186975 15.38313474273033 1 0 0
141 1 5.182434378921285 9.76326936788439 13.958436507888184 1 2 -1
3926 1 9.457443583526814 12.709967424928738 14.24293406872483 1 1 1
3050 1 0.23711587535165923 32.519298336712836 23.221572445617912 1 -1 0
1931 1 16.85821864998039 39.26435746842789 6.562248321407603 0 -1 1
2667 1 0.6758996710757277 18.78878995362804 11.799720818747574 1 -1 0
2604 1 6.045735922081315 18.470074601287756 12.773633209460439 0 -1 0
637 1 8.435515473213224 18.034443009850357 11.163231755297463 0 0 -2
983 1 15.770812621753432 14.810240566120356 12.890385202669847 0 1 1
2240 1 8.342792499279678 15.299866038114779 15.264040839176989 0 0 -1
3224 1 12.482044183439434 18.647308550728496 14.010279200846083 0 1 0
3485 1 3.7908184808437726 23.020573319279812 13.003075456105863 1 1 0
1987 1 4.732453030996555 22.7107015967029 15.680619284549152 1 1 -1
893 1 11.687472573469819 16.043314475213666 13.070561052788037 1 1 -1
426 1 13.955514268205206 22.467462745507362 14.82851314039387 0 0 0
576 1 14.204406464133301 17.496746669340226 23.947279071284004 0 0 0
992 1 1.2227199972311653 23.791529251162615 13.501991706781997 1 1 1
3077 1 10.40528531341548 16.892480839501896 15.821241311862805 1 1 1
1096 1 13.850620678084448 23.207850598941103 11.44178454691743 1 1 0
3473 1 15.641814676362259 28.193756486740167 14.063130156748318 0 -1 0
2666 1 5.778632316855772 11.09790061430524 0.447405448412145 1 1 2
3233 1 2.7323952365765916 26.72897152275174 14.399946761729643 0 1 1
4434 1 4.973960541001355 27.23286555599416 16.523243407165303 0 0 1
1468 1 9.54052266285766 27.786388371914654 16.03763192103794 -1 0 1
4141 1 4.56375251392129 28.869817235597367 18.74486874077644 0 0 1
4333 1 10.352883712083383 25.265569791383168 15.89019973999562 0 1 0
1472 1 14.979824968722586 30.195254826066524 10.165024508422029 -1 1 1