LAMMPS data file via write_data, version 29 Oct 2020, timestep = 200000

4608 atoms
1 atom types

0.4572953715241077 56.81321462847261 xlo xhi
0.4064847746856053 50.500635225310475 ylo yhi
0.4064847746856053 50.500635225310475 zlo zhi

Masses

1 18.015

Atoms # atomic

5 1 2.361692536746145 1.552766442839942 2.0206873009938575 0 0 0
3 1 3.4021836113305914 49.85840989506322 3.741391604964256 0 -1 0
625 1 0.5398693274977325 12.912784877493946 19.157493427707763 0 0 0
13 1 7.838264559648985 1.8518808423185622 1.610270925682336 0 0 0
11 1 9.908578107409037 0.5509594048995952 3.40718536571343 0 0 0
21 1 14.579278800689615 2.0516522936221793 1.698516835516514 0 0 0
18 1 13.17428506995095 3.5384645562734476 3.389277822234631 0 0 0
19 1 15.879228208368772 0.5418094281193772 3.073573675479124 0 0 0
595 1 15.809963817177495 0.5967254448487581 22.340640787333612 0 0 0
27 1 3.6995862719025037 6.137694724601125 3.3393063359626405 0 0 0
161 1 12.667156783606192 38.233394454014686 0.6785910331822425 0 0 0
10 1 6.391383490084392 3.2638172259104095 3.458699340558469 0 0 0
8 1 5.2933954829236365 4.677177777578915 1.5440122496207997 0 0 0
16 1 11.587876414304684 5.089116435080543 1.9941438687362212 0 0 0
35 1 10.061535690741568 6.534381239051038 3.4918276024660897 0 0 0
809 1 12.52710389064855 6.499392197719444 25.416587045819977 0 0 0
24 1 17.73251799607362 5.209457322247865 2.0372056304002957 0 0 0
43 1 16.44642040315978 6.654235574387879 3.6631990085600514 0 0 0
626 1 0.6396016087072447 16.12708604103049 22.16858457482577 0 0 0
29 1 2.0602913671765526 7.885495520713615 2.064672445062765 0 0 0
932 1 15.90144692471666 41.147916032247835 25.451881412186317 0 0 0
34 1 7.473371177108316 9.718135120858543 3.5624333029092714 0 0 0
37 1 8.451073035100666 7.89183896468984 1.9164982083205189 0 0 0
45 1 14.819936345275028 8.027239061068032 2.131455734102931 0 0 0
42 1 13.438761922965176 9.759281006101203 3.712505311277396 0 0 0
241 1 0.6998829601888797 13.088290919251158 6.622935000613293 0 0 0
785 1 12.59592567582259 50.33138348373066 25.12736343766367 0 -1 0
32 1 5.3396906238643975 11.340096914921793 2.044494940562248 0 0 0
812 1 15.872747360045928 9.40900693345313 25.050953599970764 0 0 0
59 1 10.32510030553032 13.100376899884889 3.644132900141258 0 0 0
40 1 11.65708523507639 11.442022245116066 2.1367585862663923 0 0 0
529 1 0.48550384290645354 38.14102028006492 12.825009807124562 0 0 0
48 1 17.972221514823236 11.445696445071393 1.8184127677317161 0 0 0
67 1 16.20027318060398 12.604495628434886 3.7367982869628293 0 0 0
53 1 1.4650018694412665 14.696434325250648 1.9257446498084827 0 0 0
26 1 0.5220036151030072 9.917098441496806 3.441894613468014 0 0 0
58 1 6.621091978533354 16.29192728933951 3.808711618820254 0 0 0
61 1 8.353992299050628 14.446086553973156 2.250380076231859 0 0 0
868 1 3.7281763711331752 28.513182853273417 25.17413301027612 0 0 0
69 1 14.855938359182687 14.439038752512365 2.122374364244807 0 0 0
66 1 13.171717648317442 15.638084634859602 3.5665079295503963 0 0 0
766 1 14.472548552727034 48.53566605140878 23.676631451230985 0 0 0
156 1 9.77787929901996 41.00844520087222 0.481551479061552 0 0 0
75 1 3.8856547815233937 19.229573329545286 3.8555013810960967 0 0 0
758 1 8.23571656443278 48.90319486318728 24.31259745928136 0 0 0
56 1 5.365438299641442 17.970704082555944 1.7958207991503878 0 0 0
64 1 11.650945058374855 17.477071823037658 2.352979874732051 0 0 0
83 1 9.91030856888267 18.799943464655197 3.7860172985856044 0 0 0
2329 1 19.00623698906051 6.523743400844747 25.25232214872696 0 0 0
72 1 17.667539329908738 17.900903571898276 1.9792953481945756 0 0 0
91 1 15.680503031004369 19.052010619194252 3.675844254459869 0 0 0
129 1 6.539468662569897 31.581364736908636 1.0552853081244358 0 0 0
77 1 2.460178378911818 20.568679200052777 1.8578826802367596 0 0 0
82 1 7.094053247922212 22.178052832454867 3.461839360688497 0 0 0
85 1 8.739218083709398 20.587174942587872 2.185972794458237 0 0 0
217 1 0.4748481656157062 6.48911886966148 6.584094360515414 0 0 0
93 1 14.490311071975642 20.627602698350305 1.6089536029902232 0 0 0
90 1 13.239140069603131 22.35213571350415 3.5454824361914112 0 0 0
602 1 0.48637036284213764 9.730049057843067 22.19072490347954 0 0 0
99 1 3.8688913101029754 25.484541950260823 3.881913987916449 0 0 0
101 1 1.9318992602730105 26.845013160824582 2.4018708614355857 0 0 0
80 1 5.256145307116811 24.02421497177788 1.820178234295994 0 0 0
113 1 13.18352710673609 25.485422831467027 0.6392664735104746 0 0 0
88 1 11.708740642673371 23.93145185866351 1.7392095832098122 0 0 0
107 1 10.44098028675144 25.372604228851504 3.478649234088313 0 0 0
96 1 17.34682865366933 24.301147607914306 1.978451506453242 0 0 0
115 1 16.225693655535505 26.00303560542056 3.750748132384115 0 0 0
788 1 15.570366945141654 3.5982344151347094 24.958957569617812 0 0 0
104 1 5.225123732068488 29.872676002929044 2.3682031982756278 0 0 0
106 1 6.881885880105845 28.470008428628898 3.7516512896416496 0 0 0
109 1 8.654160627420529 27.156447634461973 2.130623007839425 0 0 0
112 1 11.652310219246301 30.28941752291013 1.949651339731749 0 0 0
117 1 14.794232035123684 27.17805951598782 2.1227936435866597 0 0 0
114 1 13.117166818417942 28.53918961730914 3.5397043653918083 0 0 0
120 1 17.64687662970853 30.294077042562023 1.6617151614472958 0 0 0
125 1 1.431720186435943 33.528433120675146 2.2038080759878764 0 0 0
123 1 3.1866276330778027 31.53564482114022 3.2728829031730258 0 0 0
506 1 0.8693314158599674 34.96322241494592 16.356435414506358 0 0 0
133 1 8.387831261491463 33.408380181349514 2.250943273019457 0 0 0
131 1 9.986073250155885 31.901621751346504 3.5375272273648304 0 0 0
141 1 14.271114396897644 33.42680981378594 1.9695848954677062 0 0 0
673 1 0.5894586805159747 24.943219363230448 19.315376560791208 0 0 0
139 1 15.838553773477546 31.88360689714432 3.2005523249231005 0 0 0
172 1 3.690520921314116 47.13383641840214 0.42142399386523394 0 0 0
128 1 4.713150103191011 36.015471374900784 2.143653493367722 0 0 0
130 1 6.524806981485203 34.75586870203287 3.5603320942672583 0 0 0
136 1 11.352083122812505 36.50870592949438 1.8936677136516846 0 0 0
386 1 0.5606776048984436 3.734938224711528 16.079678768472796 0 0 0
138 1 12.9490692281142 35.05628851353774 3.520300996491425 0 0 0
144 1 17.441260465770924 36.76072169563619 2.1578172353498006 0 0 0
242 1 0.6683336012403633 16.30109838569274 9.795003402419272 0 0 0
587 1 9.494298091229036 50.09786057202004 22.40915205087767 0 -1 0
149 1 1.5645276698836978 39.042105662223264 1.9898955703677066 0 0 0
147 1 3.288183695291762 37.72853652655786 3.7218491665060105 0 0 0
266 1 0.6581137606390464 22.083799592809612 9.514647237674264 0 0 0
157 1 7.675381032753802 39.711332802328585 1.7871609080284552 0 0 0
155 1 9.41395148074071 38.362554572277276 3.5664451103152746 0 0 0
165 1 14.581168398412792 39.79107104410784 2.5243389293794523 0 0 0
163 1 16.215702741653466 38.176162405140644 3.7653404510091755 0 0 0
698 1 0.6059933119734122 34.904883202940326 22.52077475953788 0 0 0
754 1 6.712447452470655 47.082490710354506 22.471338751793954 0 0 0
152 1 4.70523258334738 42.54599885161613 1.939196582063814 0 0 0
154 1 6.202540772979856 41.57315458483083 3.7276245497155815 0 0 0
160 1 11.320178847522131 42.736178283791816 1.9263919583179596 0 0 0
162 1 12.788959152862462 41.379615660938114 3.8378668986750992 0 0 0
168 1 17.788951836885897 43.080607012968926 1.9271193296272513 0 0 0
820 1 3.7639241135537658 15.889401810938113 25.113100124118457 0 0 0
194 1 0.8021661159933193 3.6476899621526364 9.97085322582403 0 0 0
173 1 2.017454778609217 45.78656512281323 1.6271520028853825 0 0 0
171 1 3.4223433053247354 44.30944991970867 3.2747510962628206 0 0 0
181 1 8.162259889066071 45.771832488715106 2.456517810325265 0 0 0
179 1 9.888735128684987 44.2906002559771 3.9648121292376186 0 0 0
650 1 1.0395033045887367 22.194110132500533 22.163512959376234 0 0 0
189 1 14.456930697099333 45.578933494176724 2.059528816976421 0 0 0
187 1 16.308302129564687 44.35198660485331 3.547847530797798 0 0 0
579 1 3.509675583588482 0.5053561544148386 22.335647922182485 0 0 0
314 1 0.5651081865181143 34.54308124337449 9.789974429379305 0 0 0
176 1 5.062247954372032 48.74494779752516 2.0129371046196454 0 0 0
178 1 6.562519576265257 47.16322674486844 3.798845888269845 0 0 0
184 1 11.432801840201131 49.03167824661166 1.7436261250810956 0 0 0
186 1 12.991009473466518 47.374723872219334 3.5246955589643134 0 0 0
192 1 17.47401555352443 48.930034936844805 1.7109201103201386 0 0 0
905 1 12.88966018233781 31.848391122137873 25.344110937010566 0 0 0
196 1 3.5170237786158465 3.433663115154275 6.783964261317675 0 0 0
7 1 4.986300498093567 1.6151518176243387 5.429472567811091 0 0 0
201 1 6.6810380370934395 50.314751074354334 6.535315688439714 0 -1 0
15 1 11.392296738806449 1.9970775807861487 4.949048138070204 0 0 0
209 1 12.951261176758832 50.44345308551033 6.3366271192552714 0 -1 0
23 1 17.762525272849434 1.9789536146005757 4.92762119992505 0 0 0
212 1 16.355701745733576 3.594315455442783 6.625973566946076 0 0 0
6 1 2.059889834249154 4.8467840841219445 4.986970692811649 0 0 0
225 1 6.746844588093709 6.599583321849611 6.2818436237974105 0 0 0
204 1 9.922541525081723 3.1125103689808205 6.648772454863809 0 0 0
14 1 8.338423270126096 4.5959802121980955 4.8536188690650794 0 0 0
22 1 14.929240619017111 5.085886286841197 5.052038531425317 0 0 0
233 1 13.225672834327934 6.530789390490313 6.625702131245079 0 0 0
74 1 0.8013914266104403 22.316929079661563 3.6952510902588225 0 0 0
220 1 3.7013528287965034 9.826261587777946 6.233216771626807 0 0 0
31 1 5.346315933307102 8.207112977695207 4.832151917317671 0 0 0
228 1 10.229677347765865 9.591561231301492 6.706121346385538 0 0 0
39 1 11.85964961911056 7.934495248236851 4.718486707225969 0 0 0
236 1 16.179488578251757 9.909729943062246 7.036704606567226 0 0 0
47 1 17.578709063666576 8.634243144112354 5.229374080202283 0 0 0
51 1 3.4758709150042613 13.039955636749278 3.3045738308158894 0 0 0
30 1 2.0791769940556692 11.46890939103205 5.1145463991713305 0 0 0
249 1 6.760797433789703 12.952954121010281 6.393993769775547 0 0 0
38 1 8.566406070596852 11.498368583759863 5.450650947767242 0 0 0
46 1 14.5956091623457 11.3904427565659 5.53135662415696 0 0 0
257 1 12.903981037040667 12.901946134676733 7.203353283947676 0 0 0
948 1 9.881519309885952 46.94614991557522 25.439006774369552 0 0 0
244 1 3.6193994799317823 16.31364899031557 6.731441402303773 0 0 0
55 1 4.981543943532369 14.685049736278092 4.903298836662269 0 0 0
252 1 9.785142903749643 15.93385310294446 6.563772180307926 0 0 0
63 1 11.715536739640857 14.3803631935619 5.406082074185815 0 0 0
71 1 17.837653941093297 14.742437581996274 5.005329538908495 0 0 0
260 1 16.33463350111586 15.971933036146858 6.713449850261275 0 0 0
54 1 2.1117689705168297 17.715415527011913 5.119600963702824 0 0 0
273 1 6.971646991166387 19.402552115055332 6.964405921071981 0 0 0
62 1 7.941358392074666 17.569360132952802 5.499681664597614 0 0 0
70 1 14.573752877773678 17.344217547546034 5.1716548368948 0 0 0
281 1 12.680443645462015 19.147413287408867 6.749522198722315 0 0 0
268 1 3.795914405306534 22.290667978229987 6.740001989809294 0 0 0
79 1 5.595383976667535 20.991622063794537 5.2828739739693 0 0 0
86 1 8.397072536736673 24.267536467136377 5.094702879548804 0 0 0
276 1 10.059901975141633 22.394413108110818 6.51562755237031 0 0 0
87 1 11.588352265938212 20.660513332847035 5.0427823249211325 0 0 0
284 1 16.357002844603812 22.407272615554202 6.429323590557386 0 0 0
95 1 17.653558118041243 20.57264478272747 5.1302576517791625 0 0 0
78 1 2.232779459930656 23.832068056462756 5.376672395642353 0 0 0
297 1 6.727872142472253 25.322820252032702 6.9173805415990195 0 0 0
111 1 11.508681856052773 27.07643704485181 5.126829314068675 0 0 0
94 1 14.57702740342963 24.188557579125288 5.308320075908188 0 0 0
305 1 12.915159796218528 25.603348485915568 6.781250830474036 0 0 0
119 1 17.897292685183057 27.215767903237218 5.351231845460158 0 0 0
292 1 3.6535418075715396 28.388555429896513 6.951895286608636 0 0 0
102 1 1.9124387714330824 29.910484556645116 5.257583852977471 0 0 0
103 1 5.3795627075125925 26.95785014137043 5.43359524421454 0 0 0
300 1 9.870303956938663 28.797095071081912 6.7258810260212245 0 0 0
110 1 8.14891601007346 30.522563853385257 5.237435381655654 0 0 0
118 1 14.703594803811374 30.47833660796243 5.41284195542499 0 0 0
308 1 16.188079571721914 28.589886140222312 6.791423655405216 0 0 0
321 1 6.099309211883184 31.912146080116568 6.657937598275439 0 0 0
127 1 4.688508567711263 33.101853400812885 5.012002047730676 0 0 0
135 1 11.496857798114464 33.580375515174666 5.3019639340626625 0 0 0
329 1 12.834984631442245 31.918193690374814 7.002057272510523 0 0 0
143 1 17.406869083164295 33.59110268054329 4.8611898624254435 0 0 0
140 1 15.833122101429835 35.43513940798577 0.5524296062679326 0 0 0
316 1 3.3324586698595806 34.5573852125119 6.685938651212047 0 0 0
126 1 1.5040670018394435 36.053033149756644 5.229319080520924 0 0 0
134 1 7.810270454456338 36.52137863571821 5.132027966219943 0 0 0
324 1 9.392328698675616 35.02114563795392 6.626806005169386 0 0 0
142 1 14.489449488881649 36.647164468485386 5.00948195177765 0 0 0
332 1 15.930608367453027 35.32104559840694 6.657066355076043 0 0 0
132 1 9.545161749601403 34.937308606277625 0.676251934031209 0 0 0
151 1 4.548173154683824 39.88746793605523 5.160258470203879 0 0 0
345 1 6.046387391019853 38.23629948508005 6.625168831354028 0 0 0
159 1 11.235703732590274 39.60290828829592 5.244442863373734 0 0 0
353 1 12.762542944551862 37.99200539214429 6.407350401312408 0 0 0
167 1 17.539556276897383 40.21776890568218 5.01483899793499 0 0 0
750 1 2.1008529994000753 48.67098259285606 23.586613290374668 0 0 0
340 1 3.0653472264787482 41.56309218955985 6.756979662456507 0 0 0
150 1 1.6976078583632928 43.00877698447965 4.828571971598577 0 0 0
158 1 8.407456610447166 42.42827929195731 5.374980030573953 0 0 0
348 1 9.703701905024904 41.103289048491774 6.78372779108222 0 0 0
166 1 14.493729560379247 42.6931394646446 5.1558954122755605 0 0 0
356 1 15.884398035988648 41.296342485354245 6.827818477894201 0 0 0
369 1 6.536099530257614 44.17559186749325 6.451289039510364 0 0 0
175 1 4.923293499180177 45.53890813858254 5.100102637429035 0 0 0
183 1 11.560422291226207 45.770237544522416 5.174940873158861 0 0 0
377 1 13.176265769003708 44.35197561285932 6.850486373494071 0 0 0
191 1 17.65056937705594 46.041062827163415 5.252334267698641 0 0 0
364 1 3.5187406572409974 46.92742341035833 6.804463699200609 0 0 0
174 1 1.5712913362661252 48.21308333942909 5.001546358081814 0 0 0
372 1 9.945907738418803 47.32644496231465 6.555707111886845 0 0 0
182 1 8.235310149637666 49.01287600229412 4.944188862180008 0 0 0
190 1 14.792538075454555 49.043691015274575 5.014329501668223 0 0 0
380 1 16.003095388473707 47.70529170919052 6.865604461449773 0 0 0
197 1 1.7155287712502272 1.7974208152200735 8.10631549217609 0 0 0
202 1 6.821648109445197 3.388998718763095 9.4906390877111 0 0 0
205 1 8.276506007369527 1.6144679248507081 8.010046329138529 0 0 0
203 1 10.087435485105702 50.434397118963695 9.720300698624985 0 -1 0
213 1 14.547495786261702 1.9946564937787423 7.808139129810433 0 0 0
215 1 17.756853174355495 1.9369055658611611 11.332160846229517 0 0 0
219 1 3.5098829592284386 6.6899233557847495 9.802013272371592 0 0 0
200 1 5.21654401844999 5.150408633188595 7.870045029456401 0 0 0
208 1 11.42673357667319 4.843233177222738 7.924819682120526 0 0 0
227 1 10.150082165295732 6.531677141805038 9.598666467177498 0 0 0
210 1 13.012583271634385 3.5675201785702324 9.807948454661634 0 0 0
216 1 17.89334424699852 5.1302639331794815 8.340216655463228 0 0 0
221 1 1.9215090761656186 8.098412994529863 8.057832914601594 0 0 0
226 1 7.259787642456973 9.739388222821542 9.624563288658972 0 0 0
229 1 8.539824338411453 8.041052191728106 7.922146815503503 0 0 0
231 1 11.609347642298227 8.272969844871408 11.25028166533714 0 0 0
237 1 14.858234237056111 8.241940431438167 8.162836963478346 0 0 0
234 1 13.416363148543955 9.671005823077676 9.773467257041188 0 0 0
235 1 16.1548462423492 6.405592725784132 10.027547737693311 0 0 0
239 1 17.762396744735117 8.023350805278763 11.478775738699456 0 0 0
243 1 3.803721540559873 13.021102308739712 9.79486185607514 0 0 0
224 1 5.447483965358934 11.455823377146922 8.16136955433247 0 0 0
251 1 9.72718360894127 12.847308090628097 9.502682238556707 0 0 0
232 1 11.747982208867013 11.124778576212902 8.45469079187199 0 0 0
238 1 14.738186193171604 11.334777162886727 11.432035557556361 0 0 0
259 1 16.234663865212966 12.984870225831685 10.138829176465267 0 0 0
240 1 17.875401700838214 11.640484351387824 8.442022774468604 0 0 0
245 1 2.2206128384725954 14.610177889080973 8.400475789050542 0 0 0
250 1 6.923433622197362 15.904972036494952 9.593479765569668 0 0 0
253 1 8.160921188965599 14.415222736761 7.662828824015503 0 0 0
261 1 14.600074993226167 14.449180660108702 8.587416967254887 0 0 0
258 1 13.032106215811083 16.192789733433415 9.781546110500042 0 0 0
263 1 18.12446211554399 14.447108558851596 11.466888963740129 0 0 0
267 1 3.819815061819263 19.127709193417733 9.748196050885518 0 0 0
248 1 5.3761918689941535 17.636918595266078 8.398708550649658 0 0 0
275 1 9.847680871678506 19.393146353945397 9.825358879108922 0 0 0
256 1 11.40146637519111 17.54837366167373 8.440939656386371 0 0 0
262 1 14.561370919582835 17.76567804863709 11.20135899683776 0 0 0
264 1 17.959847075221006 17.683017243937833 8.174518579957542 0 0 0
283 1 16.72329431455623 19.257920176211154 9.688577473367843 0 0 0
269 1 2.2380774915161785 20.579100975519786 8.024223847269727 0 0 0
274 1 6.936558557713942 22.390480420318788 10.104066514239898 0 0 0
277 1 8.424284681149658 21.07256416874013 8.602683512152145 0 0 0
285 1 15.08261334599682 20.40743163728284 7.966875304997852 0 0 0
282 1 13.368009775341 22.161417835388512 9.468227089993059 0 0 0
279 1 11.767988079222215 20.61623238738781 10.875101556554895 0 0 0
286 1 14.445728410609927 23.308796629406075 11.444010362602013 0 0 0
291 1 3.450324434472041 25.015048685562732 9.990300325214786 0 0 0
293 1 2.0123652716199505 26.86074610302246 8.49610974517098 0 0 0
272 1 5.40253233595973 23.664958634771025 8.449078698766023 0 0 0
280 1 11.822065038763563 23.683946218225834 8.303522034388287 0 0 0
299 1 10.341554214810959 25.083880078399385 9.756517349004033 0 0 0
288 1 17.55926702752964 23.91375473616566 8.215526402696346 0 0 0
307 1 16.032308933497255 25.1233077369873 10.204224799511943 0 0 0
298 1 6.371718074667844 28.46864156438319 10.28890858158682 0 0 0
301 1 8.44350518656887 27.077720984718024 8.771304978427949 0 0 0
304 1 11.556152694382291 29.921484621446993 8.637811408873288 0 0 0
303 1 11.349943999718192 26.84615148320979 11.560355175976456 0 0 0
309 1 14.46107175613742 27.17242384491736 8.336845862710007 0 0 0
306 1 12.770782282081933 28.44247060419137 10.030119507114287 0 0 0
312 1 17.547709838526984 30.63331865767263 8.186568050035563 0 0 0
410 1 0.47785607637754973 9.888245351273033 16.192668754410512 0 0 0
315 1 3.4595147182921537 31.828588939084657 9.67710941609077 0 0 0
317 1 1.7915198183204137 33.10358794834359 8.072810293201645 0 0 0
296 1 5.107400060039087 29.991216693713394 8.223535557437835 0 0 0
325 1 7.858746430271108 33.230463625759626 8.062719826791486 0 0 0
323 1 9.314216488662717 31.694279423421346 9.794275529616153 0 0 0
333 1 14.348451927361767 33.58389297034212 8.54007306113463 0 0 0
331 1 16.075990806988028 32.05116005412221 10.028758704513892 0 0 0
318 1 2.053825536593866 36.12816743426431 11.663967933138737 0 0 0
320 1 4.855209874200629 36.64029576152322 8.327806634692099 0 0 0
322 1 6.560582323778215 35.102987335427855 9.694289759779636 0 0 0
328 1 11.053084531833349 36.51885026634599 7.915079486532381 0 0 0
330 1 12.673012603321407 35.193520057638 9.885088203425063 0 0 0
334 1 14.457908604719895 36.80930089084994 11.303176079504498 0 0 0
336 1 17.558900444867472 36.75786549141455 8.333072721386932 0 0 0
339 1 3.2267451202366013 38.093090095083355 10.104446938508172 0 0 0
341 1 1.8673458624138213 39.3303882862737 8.294478528830762 0 0 0
349 1 8.063938304378318 39.318030686751214 8.219587725566665 0 0 0
347 1 9.826112363359382 37.901292369171784 9.69206349777053 0 0 0
357 1 14.4078460448087 39.71453484468333 8.27654814145793 0 0 0
355 1 15.96516423025808 38.173239430511344 9.725565359319267 0 0 0
763 1 16.344850220652845 44.43373386676812 22.091021405898932 0 0 0
344 1 4.738924186980028 43.07407175742024 8.091500163938129 0 0 0
346 1 6.385732032291613 41.300841034752494 9.33636627104087 0 0 0
352 1 11.451022086636973 42.69748837700007 8.113022362531796 0 0 0
354 1 12.862273302435723 41.341468046051546 9.707242815740681 0 0 0
360 1 17.646063118131813 42.6038598993768 8.314425294057592 0 0 0
900 1 9.87733441301318 34.69889763907929 25.354525698359442 0 0 0
363 1 3.4741168207367985 44.48360524924759 10.103076093829243 0 0 0
365 1 1.8689699313003438 45.77868474691998 8.56057500539076 0 0 0
373 1 8.47472856487676 45.93632737258015 8.42352156163131 0 0 0
371 1 9.761415746136304 44.00908534485306 9.733640792126172 0 0 0
381 1 14.789433701678714 45.87832279829341 8.804654794923458 0 0 0
379 1 16.625229518550473 44.02197383434715 9.967887995040824 0 0 0
767 1 17.795171363303908 45.83601956425025 24.164934319058265 0 0 0
195 1 3.3131292885581387 50.2236521751048 9.659935995124075 0 -1 0
370 1 6.641165624815103 47.818121425242865 9.809864795268993 0 0 0
368 1 4.831217710072804 48.98596795549703 8.104804532988997 0 0 0
376 1 11.572552576318119 49.027808183200435 8.1639999950512 0 0 0
378 1 12.967692740885303 47.23220456952197 10.073000992342935 0 0 0
211 1 16.068136537439464 0.5149510292199383 9.591955170090626 0 0 0
384 1 17.702704754525634 49.095034139932906 8.234846034572321 0 0 0
124 1 3.485666823621739 34.64789231591523 0.589319637319969 0 0 0
389 1 2.1608517813250785 2.030556988377583 14.35790281255746 0 0 0
199 1 4.885901912800646 2.136454932037002 11.234694586874388 0 0 0
393 1 6.515350276853964 0.5175096436093155 12.945138699113443 0 0 0
207 1 11.770138433430326 1.70122994263641 11.097538091273854 0 0 0
396 1 9.879588980493555 3.387101726031361 12.619207515086677 0 0 0
401 1 13.19603523258099 50.35056237880262 13.144726937764473 0 -1 0
405 1 14.653267948066668 1.8843987636920507 14.343837865916768 0 0 0
404 1 16.51866119517371 3.6046203837508988 13.084908032668482 0 0 0
762 1 12.885047671683665 46.99735140477647 21.995751488484668 0 0 0
388 1 3.7185092208939623 3.916303854709574 12.814186912218926 0 0 0
198 1 2.2206455691718814 5.3869916126511175 11.458821760088744 0 0 0
417 1 6.484343402752134 6.274089564235308 12.839092637222405 0 0 0
392 1 4.9050540938175295 5.17672037775485 14.757571856726011 0 0 0
206 1 8.356184164774838 5.0110506547055556 11.139857301637198 0 0 0
400 1 11.579091753839915 4.809344365894379 14.449818097944584 0 0 0
214 1 14.52796981294939 4.933390219158049 11.657727553708687 0 0 0
425 1 12.923115889057188 6.675302349082526 13.158007724478619 0 0 0
408 1 18.117689444895742 5.007502054629838 15.018930168483298 0 0 0
759 1 11.672182139119087 45.80525276001897 23.81948329974032 0 0 0
412 1 3.691300216595864 9.685777451926574 12.570560791624874 0 0 0
413 1 2.044528259067591 8.40271302922042 14.446468289099643 0 0 0
223 1 5.5948539730205 8.342428854563044 10.928815372091709 0 0 0
420 1 9.831133939348065 9.563936227083333 12.69992536183526 0 0 0
428 1 16.29104522763972 9.769542745328762 12.867572760133502 0 0 0
755 1 10.139379752590168 44.288071675067386 22.089253464429333 0 0 0
222 1 1.974901662430819 11.417931425698386 11.125546615690396 0 0 0
441 1 6.913447515894394 12.53027750357931 12.773247679306472 0 0 0
416 1 5.115671432886435 11.34490359962987 14.375655188023725 0 0 0
230 1 8.63799194290017 11.175846903181878 11.201411513825608 0 0 0
424 1 11.32216560837663 11.095261634253754 14.246251455140424 0 0 0
449 1 12.922040849263823 12.996113712080405 12.775260251206173 0 0 0
432 1 17.679737277582962 11.321941491206706 14.375258623640658 0 0 0
436 1 3.6557591343126914 15.839287909327721 12.850624829014057 0 0 0
437 1 1.9466161487349154 14.39076201872318 14.439473989803641 0 0 0
247 1 5.481076594196368 14.430022193053736 11.25059089304527 0 0 0
445 1 8.22050957330202 14.261681341862571 14.143579122636316 0 0 0
444 1 9.517042510485439 15.858705677210395 12.819127406029057 0 0 0
255 1 11.27206479596203 14.430570786370003 11.125820200254724 0 0 0
453 1 14.693268604583306 14.589594945366468 13.914586166972361 0 0 0
452 1 16.50278883560249 16.038484289290473 12.452801557004129 0 0 0
246 1 2.33402952932877 17.617612853351947 11.342863586834284 0 0 0
465 1 6.903880364562276 19.1294584180383 12.939480303298954 0 0 0
440 1 5.056496484735352 17.28044956312301 14.597128710346526 0 0 0
254 1 8.338683713373111 17.5224497953009 11.311331546965217 0 0 0
448 1 11.292825178498099 17.482740268200946 14.284122089686152 0 0 0
473 1 13.045814014816534 19.171427196570374 12.938839614745829 0 0 0
456 1 17.56971540539043 17.55382203401814 14.241938314554039 0 0 0
461 1 1.8255819392203065 20.458044511272792 14.382156619637037 0 0 0
460 1 3.1926367683766212 22.177876844310916 12.700453489098804 0 0 0
271 1 5.370034254421256 20.66387927976114 11.434210014200163 0 0 0
468 1 10.40078488231961 22.16341495301136 12.98703504714996 0 0 0
469 1 8.384829030071362 20.774785563382924 14.290890065787027 0 0 0
477 1 14.384431498649379 20.62293141694063 14.524368150061626 0 0 0
287 1 17.638914152057325 21.029351275389978 11.74728780558583 0 0 0
476 1 16.018661387552804 22.404905452300873 13.126784111814926 0 0 0
148 1 3.137710555061034 40.81199630428232 0.6721173004535635 0 0 0
270 1 1.69493201477434 23.710654007968923 11.463034043578006 0 0 0
485 1 1.4898173164209987 26.632426770022246 14.676431530782276 0 0 0
489 1 6.529058711474764 24.935218599243875 13.11949463743183 0 0 0
464 1 4.8989049903576785 23.29686784773857 14.446090412649733 0 0 0
278 1 8.63162309258813 23.850604088803063 11.436959430771722 0 0 0
472 1 11.907174653816607 24.161403847014338 14.575606197074165 0 0 0
493 1 7.693016275844587 26.75872423732774 14.707019334518499 0 0 0
497 1 13.313799408918634 25.38668640366226 12.94243921203451 0 0 0
480 1 18.06172095177122 23.96432157485083 14.576633405498505 0 0 0
311 1 17.823002601076276 27.003363119708485 11.16186469685425 0 0 0
294 1 2.0708273530396974 29.588729089715518 11.056574366646 0 0 0
484 1 3.282858681150243 27.809015704181512 12.82235241512025 0 0 0
295 1 5.024011377823702 26.572777921431026 11.652629474742774 0 0 0
488 1 5.194739828937833 29.890352537342356 14.59076340350736 0 0 0
492 1 9.657116777987357 28.15921793809478 13.180266581164599 0 0 0
501 1 14.92426797468974 27.245224936370636 14.166496483758085 0 0 0
310 1 14.339309823194327 30.41856934514699 11.434087122254388 0 0 0
500 1 16.588802776017275 28.86062400609223 12.744007015490519 0 0 0
504 1 17.86811230808677 30.203896132308373 14.9057890052405 0 0 0
509 1 1.638545281824307 32.88401363235357 14.635392983595622 0 0 0
319 1 5.204492851217 33.27235769432174 11.053502016243604 0 0 0
513 1 6.460480383933209 31.5332537833012 12.954079374226534 0 0 0
302 1 8.201590493933079 29.83597079268844 11.762448851544555 0 0 0
327 1 10.883950579139773 33.39594092052012 11.172576768866293 0 0 0
517 1 8.273978561301046 32.943706817952716 14.25456170377933 0 0 0
521 1 12.85204939330211 32.18775214909412 12.730813651364596 0 0 0
525 1 14.523793226518626 33.41492461651163 14.400175681707449 0 0 0
335 1 17.871849500604885 33.291134852844266 11.395817002433825 0 0 0
865 1 0.820928968262995 25.24714436363831 25.006309364441126 0 0 0
508 1 3.5426657382445415 34.2588655805294 12.749911707692073 0 0 0
512 1 4.998885360101857 36.24053955680942 14.657304868025049 0 0 0
326 1 8.393920352405763 36.12858977180929 11.244142422058006 0 0 0
516 1 9.818315880552184 34.78252919597405 13.192916352717072 0 0 0
520 1 11.537837060154674 36.290950867198745 14.380726561651244 0 0 0
524 1 16.341191287563404 35.06150161432623 12.89727184229386 0 0 0
533 1 2.025813567036494 39.47641489988257 14.801754150163092 0 0 0
697 1 0.6084394951989919 31.712100165120226 19.17784741006625 0 0 0
343 1 5.110731520014045 39.61026968688037 11.285423542408136 0 0 0
537 1 6.308974693964037 37.63478483929637 12.670980363043318 0 0 0
541 1 7.865106641667591 39.497661356118286 14.173765650816268 0 0 0
351 1 11.290540808977635 39.52643572323706 11.237458943858181 0 0 0
545 1 12.924985072288607 38.35225164706536 12.827993928847679 0 0 0
549 1 14.648708230290655 39.75317962761662 14.365548422187802 0 0 0
359 1 17.587526316619883 39.586180616794394 11.03455186180415 0 0 0
433 1 0.5845412635508419 12.659535504862816 12.756574358779847 0 0 0
342 1 1.7349619995872065 42.99359096025928 11.505552009202841 0 0 0
532 1 3.4185620206499916 41.064636059337545 12.642574414085162 0 0 0
536 1 4.648683482095796 42.855435176656414 14.207246533192073 0 0 0
350 1 8.01426713569716 42.29962364963572 11.000409037697496 0 0 0
540 1 9.308901603720805 40.70880800378994 12.67593331181348 0 0 0
358 1 14.563832556992145 42.845879046687315 11.302061346908957 0 0 0
548 1 16.333275021334074 41.20639966333634 12.751989943342384 0 0 0
557 1 1.9413666993053273 46.06781309319024 14.474599703535663 0 0 0
751 1 4.85258457369018 45.55986927252762 24.15242851174804 0 0 0
561 1 6.3265850668320995 44.06574745460587 12.306130850496812 0 0 0
367 1 4.998525802956731 46.14207808251075 11.197152652972601 0 0 0
375 1 11.111626036636169 45.69559462831013 11.4624795191004 0 0 0
569 1 12.445445658946992 43.830369363397466 12.867237184276577 0 0 0
383 1 17.556128178593084 46.02963611041139 11.688855621640975 0 0 0
572 1 16.07905428853458 47.67979701613254 13.45101112591802 0 0 0
505 1 0.7253433831196189 31.081791140630916 12.665305665258462 0 0 0
556 1 3.794542806466409 47.39750126584251 12.975015538204687 0 0 0
366 1 2.112570335683546 48.89857053697497 11.568363393201146 0 0 0
374 1 8.279497160373221 49.04899573539279 11.245593246042125 0 0 0
564 1 9.517398648402262 47.356199657183254 13.009748322958636 0 0 0