LAMMPS data file via write_data, version 29 Oct 2020, timestep = 100000

8517 atoms
1 atom types

0.29099933210022755 104.43719916521552 xlo xhi
-0.3879682226834831 50.582021848074504 ylo yhi
-0.3879682226834831 50.582021848074504 zlo zhi

Masses

1 18.015

Atoms # atomic

212 1 3.3109264909934675 1.0830348541910773 0.1847384737420149 0 1 0
316 1 4.627608382486184 3.1481744462063523 1.4892452648699077 0 1 0
214 1 9.758684561222063 1.4833347684970486 -0.06481506564995632 0 1 0
309 1 8.282792108272677 0.08876359980263104 1.8089833808379936 0 1 0
317 1 11.390540750503288 3.1901487192321483 1.5486303739560472 0 1 0
217 1 15.83527788145936 1.863395242838061 0.24607511525625647 0 1 0
311 1 14.617727935002241 0.030573193790753184 2.191337666909961 0 1 0
1001 1 20.537625163134855 0.15957835086789973 1.6219246151289055 0 1 0
912 1 22.1061941967318 2.0035857947984153 0.17021437727635402 0 1 0
1002 1 26.85519421536939 0.171510298191901 1.7307404233303898 0 1 0
922 1 28.269927683933215 1.7056572029981623 0.16743379171329575 0 1 0
1011 1 30.060547374954147 3.105721235592854 1.7048835836756049 0 1 0
917 1 34.65855903017415 1.9603993033147833 0.24059558847462104 0 1 0
126 1 6.483355057712698 4.4812146441638 -0.08527181797005418 0 0 0
128 1 12.77366637843657 4.610328983437485 -0.2845969341900362 0 0 0
320 1 17.540332358460013 3.257590050624319 1.6197033859527612 0 1 0
533 1 19.047084587349858 5.611824447544034 0.03005896843550937 0 0 0
1010 1 23.93754299613104 3.393091539946259 1.720605783963586 0 1 0
920 1 25.47323046563062 5.4855617834209385 -0.18948448425406697 0 0 0
923 1 31.841174280495004 4.654437683989962 0.23636246130784655 0 0 0
124 1 3.3092041119311273 8.419921816540361 0.164173360935977 0 0 0
218 1 1.5019375782455164 6.778437417426673 1.4907610647811536 0 0 0
220 1 8.083934496711247 6.594898393086813 1.3941834801235566 0 0 0
133 1 9.735243488551928 8.09774017962922 0.02854843473124541 0 0 0
130 1 16.189013898731496 8.581088845577113 0.005676505044953428 0 0 0
222 1 14.37501491277627 6.9763049883330845 1.1916294220974002 0 0 0
925 1 20.546040878124096 7.285721745781101 1.5712931348149388 0 0 0
844 1 22.264174168608694 8.707360257071075 -0.33309449870123803 0 0 0
927 1 26.908126053015565 7.043099057665493 1.5786159937039796 0 0 0
840 1 28.650044758714678 8.446505653945886 0.1649576442785512 0 0 0
842 1 34.64594342846811 8.832852702047436 0.24053181686967662 0 0 0
929 1 33.22632603348473 7.044892353223703 1.8820770496249786 0 0 0
132 1 6.549372435964895 11.595984816707954 -0.33955594186600624 0 0 0
225 1 5.014169177177015 10.142167345344575 1.253733652312181 0 0 0
136 1 13.048957180325674 11.526970487298842 0.005404199733513526 0 0 0
226 1 11.244254584315238 9.83400777828098 1.3086837888648144 0 0 0
735 1 18.99320116280822 11.993301146529996 0.2763641781071825 0 0 0
229 1 17.73158261079953 10.12195810690132 1.725411587192153 0 0 0
933 1 23.575897417431456 10.123824712868009 1.6751940370153888 0 0 0
846 1 25.617292353031235 11.148556356516062 0.19042643478753185 0 0 0
935 1 29.889307446609873 10.310513603736688 2.2547235511294774 0 0 0
849 1 31.718012076451334 11.717540238941519 0.49740769331593315 0 0 0
3555 1 0.4970566192468482 32.23469950783386 10.60308053708865 2 3 1
230 1 1.708577791040853 13.099616353878377 1.442123161507012 0 0 0
140 1 10.04336329535905 14.597548253281618 0.08608105734038529 0 0 0
232 1 8.348096431910447 13.04207178182789 1.3060023590712544 0 0 0
142 1 16.012236189615074 14.916736295701742 0.41772342119987893 0 0 0
234 1 14.6867488895864 13.243603615751173 1.5474636163295277 0 0 0
936 1 20.644021936972788 13.263947467056228 1.7149998898408256 0 0 0
850 1 22.149021457774094 14.98899261935657 0.32852601123994174 0 0 0
939 1 26.851077929244994 13.234523388962039 1.6975891345734384 0 0 0
852 1 28.404617914606426 15.180629527019597 0.06955087451047992 0 0 0
854 1 34.52117842503095 14.45291996524754 -0.18892822439747292 0 0 0
940 1 33.13501020191431 13.399863823629723 1.8603728272197868 0 0 0
26 1 0.4830378994206476 18.10548056313501 0.002628203928277728 0 0 0
146 1 6.563369982986804 17.969710180626393 -0.22704649568681606 0 0 0
239 1 5.245848996234798 16.467783015202794 1.5459915059823253 0 0 0
149 1 12.726234765320125 17.91853877783353 0.5849059980493422 0 0 0
241 1 11.56653241444128 16.135677631934104 1.8402524692697466 0 0 0
803 1 19.126548818895547 17.95453666471825 -0.13202964758807884 0 0 0
244 1 17.713582581337697 16.6530355956751 1.8275438667984032 0 0 0
944 1 23.56701814114329 16.294660568595503 1.9132885975584348 0 0 0
856 1 25.170341498487453 17.93866444180033 0.290738588135534 0 0 0
946 1 30.265111518288936 16.55611641219645 1.5607380540591762 0 0 0
859 1 31.612900076530998 17.86792567702304 -0.35501824892883643 0 0 0
151 1 3.411907798643576 21.341171851290948 0.11148223220121983 0 0 0
245 1 2.008639804816226 19.632243267100222 1.7858637755334272 0 0 0
153 1 9.597404677402132 20.960159195650608 -0.0567241588253401 0 0 0
247 1 7.967979374299334 19.43666352865093 1.0458535794838957 0 0 0
156 1 16.167878156879127 20.998361127157185 0.0934330398564539 0 0 0
248 1 14.427762569986637 19.47073024444444 1.9734038651565742 0 0 0
948 1 20.507325759527344 19.467475736540713 1.4371344198792568 0 0 0
861 1 22.24240273668942 21.021074526403883 -0.19254489624814497 0 0 0
957 1 24.088677950099584 22.243198098834263 1.4615660191974673 0 0 0
951 1 27.087597889958715 19.470313508321322 1.2542520087825206 0 0 0
864 1 28.65967068334152 21.084827943135398 -0.17991045399473798 0 0 0
866 1 34.30033341192695 20.719468763887566 0.005884159999090477 0 0 0
953 1 32.581200215348396 19.423646055148293 1.5811555095081857 0 0 0
158 1 6.774895048075076 24.439971026593337 0.3451931093257141 0 0 0
252 1 5.174328498342952 22.6686808714603 1.7840908753557279 0 0 0
161 1 12.501981217474398 24.184014799813113 0.129620954837401 0 0 0
254 1 11.218906433223804 22.579852262691475 1.8264572786850772 0 0 0
261 1 14.911846851439027 25.44806992416522 1.3508741471333428 0 0 0
809 1 19.513536613863067 24.137006479888598 -0.15616865316835113 0 0 0
256 1 17.79829849696644 22.714927208338157 1.5591826577011396 0 0 0
868 1 25.029248515026186 24.2789294646403 -0.029968316815904783 0 0 0
959 1 29.83642272215273 22.70514566480631 1.67244888419933 0 0 0
872 1 31.561672570330817 24.088509659423003 0.1944442469144969 0 0 0
258 1 2.0261604101131923 25.620289246778324 1.4084064193740269 0 0 0
162 1 3.588988232406594 27.337339669627887 0.12007024562568458 0 0 0
165 1 9.873044006138533 27.441417172201813 -0.10502302976047428 0 0 0
260 1 8.232186615325215 26.115333369056746 1.9887193201339253 0 0 0
167 1 16.190319165986402 27.454317878196598 -0.19160348725176987 0 0 0
962 1 20.80037356501052 25.600249274497497 1.5806773073172784 0 0 0
873 1 22.16181282976193 27.596236014090735 0.007661431949533115 0 0 0
964 1 26.498737902495776 26.0942255778062 1.5484211553946718 0 0 0
875 1 28.447510953354637 27.157168342406294 0.02845696699722966 0 0 0
878 1 34.48624690931593 27.487843676747335 0.02668557997883153 0 0 0
960 1 33.03006998828075 25.92460373025742 1.5102064579345322 0 0 0
2377 1 25.450287861568395 49.64181860801337 24.823963702679244 0 0 0
170 1 6.530339207510674 30.37920617887441 0.2980170726395249 0 0 0
267 1 5.200753353384974 28.71603319970665 1.8346223964619397 0 0 0
173 1 12.737449338365055 30.6606331530124 0.16145123695930552 0 0 0
268 1 11.64085258665687 28.735081614491733 1.6885994059960154 0 0 0
270 1 17.39643509390645 28.965626379772402 1.6003218589491244 0 0 0
1068 1 19.28057328496409 30.470372977291436 0.1279671481456699 0 0 0
969 1 23.67052176819157 29.251694395986625 1.321504183515845 0 0 0
880 1 25.177591271054844 31.10509766928392 0.07219739898774374 0 0 0
965 1 30.001374402186947 28.88388792249075 1.565082645308035 0 0 0
883 1 31.78999216927368 30.568161107053292 0.15410137438284277 0 0 0
175 1 3.4461595095133304 33.45476318316293 0.33264239400898665 0 0 0
266 1 1.7997250663600814 31.922059148447623 1.8818041182340512 0 0 0
282 1 4.904675549615796 35.062558961166616 1.60835667296067 0 0 0
178 1 9.682838564686088 33.86461168020962 0.10590404190362712 0 0 0
273 1 8.251468698297625 32.139729161819815 2.1578810061866602 0 0 0
274 1 11.374088327566739 34.99260348528879 2.0239597575945907 0 0 0
181 1 16.0208547064178 33.65673890526628 0.17165665300174449 0 0 0
276 1 14.288314002303744 32.23473542560633 1.7220299952864608 0 0 0
968 1 20.51924541386501 32.18457939598651 1.8101489836516986 0 0 0
884 1 22.17817632594316 33.64972083981716 0.35865923897943175 0 0 0
970 1 26.91336149100708 32.5179382964643 1.5866088077426002 0 0 0
887 1 28.162517358685992 33.93267542551273 0.017095410121713228 0 0 0
890 1 34.7331047828097 33.98107079953378 0.022806084556418582 0 0 0
975 1 33.32376519872031 32.43115846273735 1.7163113454589864 0 0 0
281 1 1.5781720810712467 38.184901452207264 1.4571485237729578 0 0 0
182 1 5.899762523076904 36.98964251089782 0.03774294090289637 0 0 0
185 1 12.657017312996965 36.99570949614288 0.38296508600278967 0 0 0
278 1 17.38484087864438 35.70671805454844 1.5712707311797431 0 0 0
661 1 18.97641257982718 37.1518578528753 0.020193281005357666 0 0 0
973 1 23.992514831779225 35.320936549521186 1.9991172948149591 0 0 0
891 1 25.320375345594318 37.04323798289475 0.06236953330774142 0 0 0
974 1 29.990207762318104 35.217680081196775 1.1363177568909775 0 0 0
894 1 31.9330154256163 37.295832686692435 -0.1055577555839805 0 0 0
188 1 3.124047704071286 39.64335630861793 0.06583370200647826 0 0 0
283 1 7.664836525453835 38.31218360663563 1.4470257301055232 0 0 0
191 1 9.203331996720348 40.108602503097785 0.0065116101866835585 0 0 0
193 1 15.762558630680749 40.40946326583727 0.036868906465494344 0 0 0
285 1 14.175333368583452 38.66674524787207 1.925908281346576 0 0 0
979 1 20.587650727071907 38.61617196000838 1.5324856789705323 0 0 0
896 1 22.33343013469175 40.14590685050389 0.24123357458163253 0 0 0
981 1 26.715522473372328 38.84785140822645 1.5461672212584654 0 0 0
898 1 28.37590338698633 39.798758888933186 0.13527276124840726 0 0 0
900 1 34.83857392769328 39.92278955941956 -0.03192888225401885 0 0 0
982 1 33.32525361427252 38.573728510100544 1.4217305227524524 0 0 0
295 1 1.6542410522931654 44.431650855712746 1.6795269273742628 0 0 0
196 1 5.8466711543209104 43.334056875607736 0.004869191288028596 0 0 0
288 1 4.6516774113326385 41.73293996691221 1.7129618079086795 0 0 0
296 1 7.870685781512133 44.41925366562539 1.6043961932527964 0 0 0
290 1 10.869408464109167 41.61110539162859 1.2989123881974525 0 0 0
198 1 12.584343541586824 43.088980127275526 -0.2136470729406056 0 0 0
293 1 17.396067336808454 41.85088635996103 1.718244765789517 0 0 0
739 1 18.79426177523631 43.72288166567103 0.13631035583178852 0 0 0
985 1 23.916861457825703 41.566015467130754 1.406570705184939 0 0 0
902 1 25.240595212777347 43.39678486554772 -0.30832612933902015 0 0 0
991 1 26.269170730623305 44.567498998665734 1.9485595532952322 0 0 0
904 1 31.472298049306456 43.211401925142276 0.05891847595585342 0 0 0
987 1 29.69267929197933 41.71275310291111 1.4409146221979385 0 0 0
201 1 2.856080504377147 46.67150776763475 0.13710231036577336 0 0 0
204 1 9.515702762679174 46.21023153565287 0.16393613311092725 0 0 0
303 1 11.268620908413581 47.80953826848172 1.497489422223104 0 0 0
206 1 15.71620025320786 46.40390346603668 0.20816807513530344 0 0 0
298 1 14.234917769496178 44.81702812082257 1.6615390956554554 0 0 0
305 1 17.483509256842538 47.71560982931269 1.6995375969028412 0 0 0
989 1 20.822058261695002 44.71968885604872 1.6057554570806478 0 0 0
906 1 22.093751059688632 46.491481805072496 -0.14653948723877885 0 0 0
908 1 28.283356366865235 46.18055132690582 0.43665513664787803 0 0 0
910 1 34.845278588841865 45.98469745033644 0.3192820759749826 0 0 0
993 1 33.054151488303795 44.70723549429158 1.7545218596764847 0 0 0
308 1 1.6558703242783746 -0.06938407225243992 1.9464759085550876 0 1 0
2351 1 28.267545348172167 33.88661007514294 24.842774976703595 0 0 0
207 1 6.3379522052065225 49.292377222110765 -0.16956766665481315 0 0 0
301 1 4.5350191747010875 48.187328125123464 1.4758982720445342 0 0 0
210 1 12.999391827481494 49.469326055597506 0.2309085928385861 0 0 0
514 1 18.920638802699653 49.579842414828384 0.21113725180861742 0 0 0
997 1 23.595779533545972 47.98189790820024 1.3474360464039241 0 0 0
913 1 25.560513189289534 49.570648612381206 -0.03208172346075938 0 0 0
916 1 31.09683530619334 49.7112499543099 -0.1538414089712429 0 0 0
998 1 29.896854718576634 47.92410379110392 1.6429646697793836 0 0 0
1005 1 32.83088436037199 -0.010659667698619812 1.40163397201828 0 1 0
440 1 1.900251161657363 3.060497028851822 4.963900476190369 0 1 0
1606 1 9.442595927699648 1.4135388349069238 24.910500809402272 0 1 0
315 1 6.443354904488132 1.9765864362592733 3.1997681013671575 0 1 0
433 1 4.795452487436863 0.29517348205217875 4.5915004722960004 0 1 0
441 1 8.086935232599142 3.2114041508865063 4.6400962565576025 0 1 0
318 1 12.790150585064943 1.3887924537397032 3.463747319088668 0 1 0
443 1 14.522089760704732 3.085074910058573 4.6499436040777615 0 1 0
436 1 17.39328618890544 0.18237127481418658 5.084778730717297 0 1 0
536 1 18.901746903893617 1.633670182739953 3.4871739835100657 0 1 0
1110 1 23.523135577521234 0.13212651493680572 4.864044013702957 0 1 0
1009 1 25.313536116626203 1.5343117459036815 3.1586563799518315 0 1 0
1012 1 31.850852299506467 1.5231952926146155 3.222440268972074 0 1 0
314 1 3.10465639640716 4.389823887489075 3.0493589679371103 0 0 0
2336 1 31.440786411466895 24.295331239339834 24.82858367790923 0 0 0
221 1 9.900665726381884 4.601244003904822 3.109917064410525 0 0 0
319 1 15.900527405525645 5.49185892832456 2.9811603498375514 0 0 0
1115 1 20.994086069860092 3.3489312487216636 4.362973329579804 0 1 0
1007 1 22.349544446256193 5.726990879389671 3.097007788375148 0 0 0
1117 1 26.847268330779528 3.279940733748926 4.230987847832592 0 1 0
928 1 28.669275130898235 5.736155856548929 3.295285817659853 0 0 0
1013 1 34.61385701591766 5.723768749591731 3.5020577296912156 0 0 0
1120 1 33.20458681247309 3.4091032682035207 5.009667125002242 0 1 0
108 1 0.5856487441297997 8.634634350469588 3.3612722974177647 0 0 0
219 1 6.6244156085453145 8.375114326919308 2.879519676807462 0 0 0
323 1 4.682467779324682 7.118557712290845 4.629162680891032 0 0 0
228 1 12.835184933520777 8.554207723534617 3.1978456212980286 0 0 0
325 1 11.58875962184508 6.6819383740458145 4.491566771181101 0 0 0
223 1 17.59465425589065 6.918369041307448 4.726941197054498 0 0 0
813 1 19.230039256848258 8.270921984703097 3.2720766432074946 0 0 0
1016 1 23.51653028437161 7.040110604971034 4.968621274124244 0 0 0
926 1 25.399096794537876 8.682858224953375 3.3441548952683307 0 0 0
1017 1 30.488872436767007 7.402449247569087 5.238536877177085 0 0 0
930 1 32.01533601320719 8.887195474036737 3.595378717739493 0 0 0
224 1 3.302040415196227 11.686614276858243 3.1918914242119 0 0 0
332 1 2.0086726403765933 10.379508275779516 4.854007899880242 0 0 0
227 1 9.96351311041095 11.527861082739713 2.9878931481925433 0 0 0
335 1 8.163867922424801 10.002362899767789 4.534021561402053 0 0 0
236 1 15.987514906011995 11.401372724703197 3.418148443910515 0 0 0
337 1 14.355426383270428 9.924453660174132 5.053550936467482 0 0 0
1022 1 20.43558841324913 10.254389663207736 4.8392889329395254 0 0 0
931 1 22.22038212539784 11.69810272406925 3.064511640748464 0 0 0
1024 1 26.935221120811182 10.390092963149877 4.877219083662453 0 0 0
934 1 28.4092651821553 11.93042445157343 3.5182615985929466 0 0 0
3063 1 34.9765221195195 12.21843882130032 3.2914574523355418 0 0 0
1026 1 33.64179651162219 10.452794662197524 4.720041803906951 0 0 0
231 1 7.063958827848691 14.7458488444325 3.013872936424858 0 0 0
343 1 5.3936911394696185 13.344413977920013 4.322303507833342 0 0 0
235 1 13.240258417227471 14.677247365081456 3.1632539547959078 0 0 0
233 1 11.427453698404241 13.274732439439491 4.644799696341146 0 0 0
237 1 17.60021558644293 13.024313684692446 4.874025805903279 0 0 0
1384 1 19.130012368033043 14.919227538418854 3.0317040138397884 0 0 0
1030 1 24.078516868788544 13.351426537404674 4.632319118922392 0 0 0
938 1 25.48968928758605 15.105110387553943 3.079043088953768 0 0 0
941 1 31.514559692148964 15.139838049720563 3.2650838219014267 0 0 0
1032 1 30.356424430388447 13.151413356866998 4.926351707347084 0 0 0
238 1 3.596820379711598 18.03807669760744 3.18471709661837 0 0 0
347 1 1.7621414334098462 16.42976966769481 4.519665027701054 0 0 0
240 1 9.539259695931465 17.863725687555057 2.891601410808881 0 0 0
350 1 8.446578540137669 16.186909568677883 4.595772977442805 0 0 0
243 1 16.06758824399518 18.00172853643206 3.529786399769813 0 0 0
242 1 14.566316242668462 16.346349000027928 4.8271358812497684 0 0 0
1035 1 20.461929929378567 16.300983948974736 4.865120226947578 0 0 0
943 1 22.26602879948422 17.984930686573545 3.4193328235337486 0 0 0
1039 1 27.283162152919203 16.527009216339344 5.136010147079833 0 0 0
945 1 28.333042474208156 18.135334812955264 3.1029640126984948 0 0 0
947 1 34.736028322747984 18.057963843998742 2.8442820977466305 0 0 0
1041 1 33.45604941981219 16.763989570184705 4.544039195990298 0 0 0
91 1 0.45138746444646494 21.32858103776017 3.1848590964402677 0 0 0
246 1 6.7265272158816245 20.931185601697425 2.9826898297279865 0 0 0
356 1 5.279549247208627 19.45151039859215 4.64510991473526 0 0 0
249 1 12.854770424185347 21.21992539245489 3.1713586908215454 0 0 0
359 1 11.08909028464088 19.45206074946038 4.519939488759369 0 0 0
949 1 19.426819433216203 20.997677565697604 3.211666502707353 0 0 0
250 1 17.963440921507924 19.468651504709037 4.862100948776401 0 0 0
1045 1 23.9949656201791 19.549450285476887 4.679387518136949 0 0 0
950 1 25.551906046684802 21.027449435715724 3.1795239060201204 0 0 0
954 1 31.444530346754018 21.318260429016227 3.3439672916149457 0 0 0
952 1 29.670527320846055 19.795041717530165 4.700317421625291 0 0 0
251 1 3.6129654604712065 24.16424757897723 3.137901786199735 0 0 0
362 1 2.122419853557827 22.64931327891881 4.7376782264851265 0 0 0
253 1 9.660143000883608 24.430535131845136 3.215311824264154 0 0 0
365 1 8.146311404080958 22.55384534292315 4.706045166076465 0 0 0
257 1 16.557784139531524 24.294875724244363 3.078092206104745 0 0 0
255 1 14.388934498452995 22.797852836978805 4.595720292203784 0 0 0
1050 1 21.03183081340143 22.642339718608778 4.830473576518262 0 0 0
956 1 22.384497079192116 24.0543255618502 2.993290692560212 0 0 0
1054 1 26.89316996879039 22.708204725509972 4.865689516827682 0 0 0
958 1 28.446070568190084 24.592806564881403 3.4995755074412744 0 0 0
961 1 34.80984307514734 24.525335463798623 3.0997123312532473 0 0 0
1056 1 33.065370216177875 23.015958038886193 4.784980885043269 0 0 0
95 1 0.4411348821063332 27.12980853114458 2.903604742703716 0 0 0
259 1 6.7396942003136004 27.437471885089163 3.4949123669214983 0 0 0
371 1 5.168151156357957 25.705339158884847 4.829317304292764 0 0 0
263 1 11.586602378455657 25.65753961813114 4.2684176070574695 0 0 0
262 1 13.19175013226218 27.207675442594645 2.857035876817721 0 0 0
375 1 17.47633738732079 26.071982032719895 5.143398116339906 0 0 0
264 1 14.272921500646206 28.358730142948552 4.839149050488654 0 0 0
836 1 19.290268880416008 27.33814073119727 3.329504902144587 0 0 0
1061 1 23.81810731015308 25.869212652389137 4.8384387671974345 0 0 0
963 1 25.073312469629123 27.76022562928329 2.9380438178874635 0 0 0
966 1 31.51811492470235 27.32329131479825 3.3058945016745542 0 0 0
1062 1 30.092194939311838 26.346857719920585 5.342430671966129 0 0 0
265 1 3.2422910802562117 30.07044859152304 3.380781700309395 0 0 0
378 1 1.4812748350631089 28.761874969118445 4.858233678442294 0 0 0
390 1 4.821019711525779 31.63316839092319 5.048436524568822 0 0 0
269 1 10.15559858709024 30.139500502426692 3.146249743615667 0 0 0
382 1 8.440189285667852 28.902273413989477 4.8320755292875495 0 0 0
271 1 15.864585019161966 30.179054477083298 3.595391533560826 0 0 0
1059 1 21.044545263361286 29.076361103549324 4.79634173129103 0 0 0
967 1 22.286563037606005 30.733688744195888 2.9839298899815887 0 0 0
1072 1 26.74745406548408 29.44281173268941 4.4344287688146204 0 0 0
971 1 28.46075611760244 30.653779961204 3.137788209548893 0 0 0
3105 1 34.96783430254301 30.570130049479644 3.3568531162532294 0 0 0
1065 1 33.1200882802452 28.987196930546613 4.595071506160887 0 0 0
388 1 1.8583744452412756 34.65878189047761 4.450471809323673 0 0 0
272 1 6.173044113743136 33.5351058930138 3.6803466206767057 0 0 0
400 1 8.00877897325141 34.90681569223298 5.158607734387047 0 0 0
277 1 12.592609275833613 33.50885108780138 3.4207284526186372 0 0 0
275 1 11.1672189933202 31.907417771229376 4.955866602699466 0 0 0
387 1 17.6610156083494 32.06513307334759 4.5560994626492235 0 0 0
687 1 18.76787013300644 34.01214099710097 3.225792397319824 0 0 0
1071 1 23.615337291484803 32.29531372812872 4.693253885910347 0 0 0
972 1 25.399258049987036 33.936554681544756 3.5477998088411353 0 0 0
1073 1 29.99642336463829 31.979134860648763 4.669698978279477 0 0 0
976 1 31.417792059922807 33.70820541205868 3.0828112049723506 0 0 0
280 1 3.251510807380211 36.90581767429437 3.0665874081241644 0 0 0
284 1 9.124969535291955 36.771077865508005 3.184128891720047 0 0 0
394 1 14.1661619754674 35.49128074049765 4.829194018633419 0 0 0
286 1 15.908406838131944 37.12910184989179 3.4193632903571682 0 0 0
1078 1 20.780553872774117 35.097483058060696 4.785781775150814 0 0 0
978 1 22.038336678286857 36.9273558860457 2.9182659275251326 0 0 0
1079 1 27.010235745329584 35.45198125747737 4.838663137441371 0 0 0
980 1 28.340404654430607 36.89042583032029 2.8169716956682365 0 0 0
1086 1 30.10620982842643 38.23558822034837 4.477889246387281 0 0 0
983 1 34.57894721036203 36.881225495635064 2.914350883084635 0 0 0
977 1 32.778541861054585 35.46673079016304 4.580996970920114 0 0 0
1388 1 0.37168873243287004 49.104104503925754 25.024922041774538 0 0 0
287 1 1.8413181593516548 41.21917091230749 5.059811308467104 0 0 0
398 1 5.0020794011061405 38.354211893012476 4.447389615900793 0 0 0
289 1 6.362513435296163 40.190706400305956 3.083822793212132 0 0 0
401 1 10.69973264976385 38.47819104805771 4.566845853382737 0 0 0
409 1 8.201725007088157 41.219594602915336 4.638640784507089 0 0 0
291 1 12.494526368187682 40.281529166052955 3.275232505961769 0 0 0
405 1 17.710019000771215 38.37304920871535 4.790801291198611 0 0 0
670 1 19.074654383401345 39.90316661161315 3.1737627862160123 0 0 0
1089 1 20.753269495943954 41.3502352276805 4.423149134955682 0 0 0
1084 1 23.544763645335827 38.74862148055692 4.622939499142168 0 0 0
986 1 25.29632756445323 40.29420796868019 3.202985253898993 0 0 0
988 1 31.308950390814484 39.954394566508604 2.7133067206119326 0 0 0
1094 1 33.21884493586875 41.3279989564622 4.5348555825830745 0 0 0
294 1 3.0179954754445366 43.19038867959016 3.495294009971477 0 0 0
297 1 9.638505392614823 42.997976483128646 3.0815893988323784 0 0 0
299 1 15.797225201576381 43.270794792856854 3.1151985917229648 0 0 0
292 1 14.285140716963207 41.9024865451702 4.697863570597324 0 0 0
990 1 22.479465074927127 43.11999769061152 3.0272862066701873 0 0 0
1096 1 23.356033470368303 44.5839134235756 4.848568036492713 0 0 0
1091 1 26.85198457417433 41.479786024900996 4.93718556524786 0 0 0
992 1 28.35271526791208 43.188487138722394 3.3781925197131444 0 0 0
994 1 34.55480524758793 43.139602661689345 3.2044271219319067 0 0 0
2379 1 29.758334925289084 -0.005951274532038364 23.89378485464895 0 1 0
415 1 4.908017682731135 44.7124289242913 4.680054158941442 0 0 0
302 1 6.187102968479685 46.408416427629206 2.7247526097408885 0 0 0
426 1 7.82085547919101 47.41039888493686 4.394126541116992 0 0 0
418 1 11.107625490046036 44.62832637820491 4.631935894162624 0 0 0
304 1 12.684393409868365 46.449173597413235 3.0968173474307266 0 0 0
421 1 17.424784918485877 44.688262679022955 4.4283787500439615 0 0 0
932 1 19.27353371536914 46.17293415332353 3.330992509163097 0 0 0
996 1 24.596441987034062 46.39873886844339 3.2260755742573615 0 0 0
1098 1 30.187535771508262 45.01042012062265 4.907807674844236 0 0 0
999 1 31.577521452898484 46.4602689744302 3.4673344970052336 0 0 0
307 1 3.266159691202749 49.60137739946055 3.493918773459452 0 0 0
423 1 1.5214330656440642 48.106589488200406 4.9008878606855815 0 0 0
310 1 9.573601504082657 49.1253372554281 3.123299896138173 0 0 0
434 1 10.928137520825018 -0.1527403902175182 4.857677377410213 0 1 0
428 1 14.391404022315882 47.95840434367708 4.696745266685211 0 0 0
312 1 16.459405169158288 49.13826703632318 3.3582975667980524 0 0 0
1102 1 20.53107120708356 48.00926863418353 4.494241840319016 0 0 0
995 1 22.267735229135607 49.4297172749845 3.042946041837283 0 0 0
1104 1 26.44715580555765 47.9089057811134 4.7498643418299835 0 0 0
1003 1 28.417461195475227 49.62937340866094 3.2644861469920987 0 0 0
1004 1 30.23299665426932 -0.02472343875626315 4.65383004728178 0 1 0
1006 1 34.37058515845166 49.69981781522625 3.192281488967456 0 0 0
1000 1 33.06848878689005 48.11935997668932 5.11677093998651 0 0 0
439 1 3.587612239316838 1.554618718129289 6.375059172610873 0 1 0
430 1 1.728499032894009 0.22067056682281583 7.879447619632677 0 1 0
442 1 9.328802638374656 1.5131847897497046 6.409903232267657 0 1 0
437 1 15.911480134285659 1.8378188713455939 6.852579727672213 0 1 0
1108 1 20.345903544730984 0.18499158203004484 7.503867310468324 0 1 0
1109 1 22.116358810379776 2.0072126263210723 6.285888790644654 0 1 0
1118 1 28.43012297788549 1.5643833941103107 6.222516790016163 0 1 0
1119 1 29.782549667709418 3.147502310659683 8.189815581613123 0 1 0
1121 1 34.501951684604535 1.5639262883428255 6.39113044173826 0 1 0
324 1 6.317136476535591 5.494425739855643 6.345086615817384 0 0 0
545 1 5.246832590078928 3.3127692650937948 8.18020372748254 0 1 0
547 1 11.236062233488711 3.2180508412121416 7.7124590721333455 0 1 0
327 1 13.0192246273315 4.517140678814384 6.5453142838131715 0 0 0
1177 1 19.253441046210064 5.584077770270355 5.904583892385484 0 0 0
444 1 17.74924388164069 3.4241535428153833 7.676090279084052 0 1 0
1206 1 23.917335432568667 3.5681146691384678 7.490554646389774 0 1 0
1116 1 25.704864302882573 4.664428181425871 5.9446240767222545 0 0 0
1020 1 31.63969521328863 5.44463884674912 6.717963329541534 0 0 0
331 1 3.5113350617063395 8.904108812799441 6.2137152931032436 0 0 0
322 1 1.9486872886236224 7.012320498876536 7.762376861852719 0 0 0
326 1 9.692153335066047 8.373211256711345 6.0181112321680645 0 0 0
447 1 8.097817840811565 6.9399972806219035 7.780751779824136 0 0 0
329 1 16.352495428303214 8.591426788223252 6.485303734342558 0 0 0
328 1 14.481125941362597 6.865694020858607 7.748266854742727 0 0 0
1014 1 20.973334948246716 6.911231286462376 7.84945646523814 0 0 0
1015 1 22.016135550600964 8.94280293337273 6.295737058189978 0 0 0
1019 1 26.694967654256562 7.125630366520254 7.608326175472768 0 0 0
1018 1 28.457760095148974 8.870585228784668 6.435593011746889 0 0 0
1021 1 34.91557120828637 8.44871702214065 6.494927727368805 0 0 0
1125 1 33.32040726638429 7.256257274004061 8.121640607243494 0 0 0
2326 1 22.52678625750503 20.83602625392496 24.62554201383173 0 0 0
333 1 6.286030264390395 11.269448260872169 6.238700809639542 0 0 0
334 1 4.7016813190000315 10.16856338596811 8.163326342768057 0 0 0
338 1 12.745430920477355 11.6719464282146 6.558637618749817 0 0 0
336 1 11.397100877866746 9.800010395923955 7.854586620155578 0 0 0
555 1 19.071353516143063 11.546187507750261 6.396898402528841 0 0 0
339 1 17.956646552966582 9.99880293089008 8.425521979286145 0 0 0
1129 1 23.733486211710872 10.223266756460388 8.165519703665952 0 0 0
1023 1 25.35671037035853 11.655372229234313 6.497136904473209 0 0 0
1025 1 30.323696332553602 10.208601077663523 8.030965365903757 0 0 0
1027 1 32.03534534854006 11.610792475256178 6.514370327528082 0 0 0
341 1 3.484038886761649 14.69206631842787 5.969308657125152 0 0 0
342 1 1.8319910957410999 13.404891287556492 7.851226079385379 0 0 0
344 1 9.643543056441183 14.569834745659312 6.0990876781213474 0 0 0
462 1 8.15748504502881 13.175383658633457 7.629985368420579 0 0 0
345 1 16.124150237795753 14.776099974269389 6.267272175533867 0 0 0
464 1 14.787415700759663 13.330894217611627 7.835942915273369 0 0 0
1029 1 20.699991934630095 13.270429115388234 7.638220079623602 0 0 0
1028 1 22.21762171494231 14.734452315164583 6.28644903668761 0 0 0
1136 1 26.910434990557576 12.858794247041699 8.172493615667351 0 0 0
1031 1 28.455279760208708 14.17880690124556 6.296528784330406 0 0 0
1034 1 34.84238727995043 15.025558958151509 6.208809990932432 0 0 0
1033 1 33.58718740425768 13.54253281657929 7.981855163966189 0 0 0
422 1 0.3673266776742421 17.675351526755257 6.155918163871805 0 0 0
348 1 6.716509116664259 17.54567941610587 6.1726449014254126 0 0 0
349 1 4.912973421812716 16.356507879268054 7.780186111360294 0 0 0
351 1 11.139351607162954 16.10606612529059 7.650367802223792 0 0 0
352 1 12.744352436532951 18.01300804391772 6.174663921087817 0 0 0
353 1 17.517291299634515 16.333472206158895 7.779788276487007 0 0 0
1008 1 19.250242125376616 18.155594527331434 6.540352026847897 0 0 0
1038 1 23.865637360709297 16.3597313329969 7.590800430581456 0 0 0
1037 1 25.62009619020417 18.0531583824434 6.256045751036764 0 0 0
1042 1 31.32828909833989 18.35491687834649 6.109143363989653 0 0 0
1040 1 30.133461918939638 16.378096713839135 7.76260800961116 0 0 0
354 1 3.4483839399986014 20.865291039492664 6.25026994760554 0 0 0
355 1 1.733765300208361 19.412124444768274 7.844209372155261 0 0 0
364 1 4.853608892358664 22.311069804289016 8.002369177844189 0 0 0
357 1 8.027758664482189 19.282630226643047 7.547366533992664 0 0 0
358 1 9.32844535948351 20.884771016905695 6.2186716149839665 0 0 0
360 1 14.52125474968713 19.611594380931194 7.317639943839388 0 0 0
361 1 16.336572217777373 21.065125593386846 5.8511721522267175 0 0 0
1044 1 20.84941341764822 19.849051836539328 7.94604140468501 0 0 0
1043 1 22.59088567740803 21.057534164330328 6.229648896730277 0 0 0
1047 1 26.829240658297167 19.88747174871724 7.763074653835034 0 0 0
1046 1 28.455961950036414 21.1824156586138 6.636973033111901 0 0 0