
# Create simulation box of size 50 x 50 x 50 Angstrom
#
lattice	            sc 1
Lattice spacing in x,y,z = 1.0000000 1.0000000 1.0000000
region 	            all block 0 ${X} ${YZ_LO} ${YZ_HI} ${YZ_LO} ${YZ_HI} units box
region 	            all block 0 53.4 ${YZ_LO} ${YZ_HI} ${YZ_LO} ${YZ_HI} units box
region 	            all block 0 53.4 0.4064847746856053.0 ${YZ_HI} ${YZ_LO} ${YZ_HI} units box
region 	            all block 0 53.4 0.4064847746856053.0 50.500635225310475.0 ${YZ_LO} ${YZ_HI} units box
region 	            all block 0 53.4 0.4064847746856053.0 50.500635225310475.0 0.4064847746856053.0 ${YZ_HI} units box
region 	            all block 0 53.4 0.4064847746856053.0 50.500635225310475.0 0.4064847746856053.0 50.500635225310475.0 units box
create_box          1 all
Created orthogonal box = (0.0000000 0.40648477 0.40648477) to (53.400000 50.500635 50.500635)
  3 by 1 by 2 MPI processor grid

# fill box with 4175 randomly distributed atoms
#
create_atoms        1 random 4608 63782 all
Created 4608 atoms
  create_atoms CPU = 0.001 seconds
mass                1 18.015

# Define potential
#
pair_style          sw
pair_coeff          * * /data/emrosky-sim/Freezing_Simulations/Melting/mW_fancy/mW.sw mW
Reading sw potential file /data/emrosky-sim/Freezing_Simulations/Melting/mW_fancy/mW.sw with DATE: 2019-02-27

# Run minimization
#
minimize            1.0e-8 1.0e-8 10000 1000
WARNING: Using 'neigh_modify every 1 delay 0 check yes' setting during minimization (../min.cpp:187)
Neighbor list info ...
  update every 1 steps, delay 0 steps, check yes
  max neighbors/atom: 2000, page size: 100000
  master list distance cutoff = 6.3065
  ghost atom cutoff = 6.3065
  binsize = 3.15325, bins = 17 16 16
  1 neighbor lists, perpetual/occasional/extra = 1 0 0
  (1) pair sw, perpetual
      attributes: full, newton on
      pair build: full/bin/atomonly
      stencil: full/bin/3d
      bin: standard
Per MPI rank memory allocation (min/avg/max) = 4.236 | 4.254 | 4.260 Mbytes
Step Temp E_pair E_mol TotEng Press 
       0            0    4767866.9            0    4767866.9      3399767 
     679            0   -52192.879            0   -52192.879     417.1902 
Loop time of 2.11474 on 6 procs for 679 steps with 4608 atoms

98.8% CPU use with 6 MPI tasks x no OpenMP threads

Minimization stats:
  Stopping criterion = max force evaluations
  Energy initial, next-to-last, final = 
      4767866.89225961  -52192.6876002458  -52192.8788112299
  Force two-norm initial, final = 1.0918952e+08 3.1315475
  Force max component initial, final = 57641668.0 0.92089475
  Final line search alpha, max atom move = 0.096320067 0.088700644
  Iterations, force evaluations = 679 1001

MPI task timing breakdown:
Section |  min time  |  avg time  |  max time  |%varavg| %total
---------------------------------------------------------------
Pair    | 1.8332     | 1.914      | 1.9664     |   3.9 | 90.51
Neigh   | 0.041883   | 0.042881   | 0.043957   |   0.4 |  2.03
Comm    | 0.083868   | 0.13608    | 0.21733    |  14.9 |  6.43
Output  | 0          | 0          | 0          |   0.0 |  0.00
Modify  | 0          | 0          | 0          |   0.0 |  0.00
Other   |            | 0.02178    |            |       |  1.03

Nlocal:        768.000 ave         776 max         755 min
Histogram: 1 0 0 0 1 1 0 1 0 2
Nghost:        1704.50 ave        1724 max        1699 min
Histogram: 4 0 1 0 0 0 0 0 0 1
Neighs:        0.00000 ave           0 max           0 min
Histogram: 6 0 0 0 0 0 0 0 0 0
FullNghs:      25953.0 ave       26255 max       25275 min
Histogram: 1 0 0 0 1 0 0 1 0 3

Total # of neighbors = 155718
Ave neighs/atom = 33.792969
Neighbor list builds = 37
Dangerous builds = 0

# Add velocity/set timestep
#
velocity            all create ${TEMP} 120598 rot yes dist gaussian
velocity            all create 274 120598 rot yes dist gaussian
timestep            5.0

# Define output
#
compute	            1 all msd
thermo	            100
thermo_style        custom step temp press vol etotal ke pe c_1[4] density

# Neighbor lists
#
neigh_modify        delay 0 every 1 check yes

# Set fixes
#
fix                 1 all momentum 10 linear 1 1 1 rescale
fix                 2 all nve
fix                 3 all temp/csvr ${TEMP} ${TEMP} 500.0 928347
fix                 3 all temp/csvr 274 ${TEMP} 500.0 928347
fix                 3 all temp/csvr 274 274 500.0 928347
fix                 4 all press/berendsen iso ${PRES} ${PRES} 1000.0 modulus 20000
fix                 4 all press/berendsen iso -500 ${PRES} 1000.0 modulus 20000
fix                 4 all press/berendsen iso -500 -500 1000.0 modulus 20000

# Run 0.5 ns equilibration
#
dump                1 all custom 1000 eq.${NAME}.dump id type x y z vx vy vz
dump                1 all custom 1000 eq.liq_274K_-500atm_mW.dump id type x y z vx vy vz
run                 100000
Per MPI rank memory allocation (min/avg/max) = 3.504 | 3.507 | 3.510 Mbytes
Step Temp Press Volume TotEng KinEng PotEng c_1[4] Density 
     679          274    1700.7634    134003.24   -48430.149    3762.7302   -52192.879 2.3674561e-33    1.0286805 
     700    140.59168    1135.3603    135683.62   -48100.145    1930.6881   -50030.833   0.13632796    1.0159407 
     800    189.10588   -232.31518     137802.4   -46655.747    2596.9139   -49252.661   0.55113055    1.0003202 
     900    213.41728    -420.2868    138487.68   -45722.538    2930.7724    -48653.31    1.0240992   0.99537022 
    1000     233.9234   -401.40979    138757.73   -45049.909    3212.3745   -48262.284    1.5277893   0.99343303 
    1100    247.29272   -514.32117    139245.58   -44574.818      3395.97   -47970.788    2.1178219   0.98995253 
    1200    253.07397   -436.91232    139193.54    -44232.58    3475.3616   -47707.942    2.8674561   0.99032267 
    1300    260.60093   -439.43103    139376.37   -43949.641    3578.7262   -47528.367    3.7650631   0.98902356 
    1400    263.95914   -420.82303    139649.02   -43792.132    3624.8431   -47416.975    4.7202899   0.98709265 
    1500    266.72609   -510.59904     139385.4   -43603.811    3662.8406   -47266.651    5.6897652   0.98895954 
    1600    270.40391   -480.49105    139420.82   -43552.555    3713.3465   -47265.902    6.7553272   0.98870824 
    1700    267.41417   -467.52225     139337.1   -43519.566    3672.2897   -47191.856    7.8831359    0.9893023 
    1800    271.12811   -347.79697    139434.74   -43389.108    3723.2918   -47112.399    9.0752922   0.98860954 
    1900     274.9224   -613.26177    139298.57   -43330.603    3775.3972       -47106    10.293621   0.98957597 
    2000     274.2129   -631.29832    139378.32   -43253.898    3765.6539   -47019.552    11.612765   0.98900976 
    2100    271.55104   -435.10591    139084.51   -43316.699    3729.0996   -47045.799    13.074092     0.991099 
    2200    269.20313     -565.563    139014.97   -43285.792    3696.8567   -46982.649    14.399823   0.99159476 
    2300    270.41898    -639.9725    139104.01   -43234.249    3713.5535   -46947.802    15.713528   0.99096006 
    2400    274.69614   -408.06729    139072.81   -43246.958    3772.2899   -47019.248    16.931231   0.99118234 
    2500    274.03824   -505.33608    138958.59   -43248.855    3763.2554    -47012.11    18.315989   0.99199707 
    2600    280.68594   -361.30322    139223.58   -43142.729    3854.5454   -46997.275    19.640316   0.99010896 
    2700    277.88732    -532.5184     139340.4   -43139.699    3816.1132   -46955.812    21.091981   0.98927886 
    2800     273.8147   -475.95509    139518.44   -43239.684    3760.1855   -46999.869     22.51057   0.98801648 
    2900     274.2586   -375.18436    139802.78     -43207.5    3766.2814   -46973.782    23.933969   0.98600697 
    3000    273.68695   -618.71939    139791.41   -43171.931    3758.4312   -46930.362    25.484576    0.9860872 
    3100    273.25881   -538.32037    139687.45   -43174.654    3752.5517   -46927.206    26.763632   0.98682104 
    3200    272.31532   -631.39721    139551.82   -43194.544    3739.5951   -46934.139    28.003478   0.98778011 
    3300    267.20181   -344.76166    139429.03    -43200.64    3669.3734   -46870.013    29.465486   0.98865008 
    3400    272.52197   -555.31241    139259.24   -43148.436     3742.433   -46890.869    30.777511   0.98985544 
    3500    273.45962   -700.89605    139437.16   -43070.926    3755.3094   -46826.235     32.25883   0.98859244 
    3600    279.19186   -497.01445    139107.34   -43065.928    3834.0278   -46899.956    33.519285   0.99093631 
    3700    278.69856   -550.98282    138845.14   -43080.972    3827.2536   -46908.225    34.645883   0.99280768 
    3800    269.72449   -415.17912     138780.8   -43096.922    3704.0163   -46800.938    35.956151   0.99326795 
    3900    272.22084   -663.52181     138921.5   -43207.259    3738.2978   -46945.557    37.138702   0.99226195 
    4000    272.91838   -445.78137    138986.45    -43248.11    3747.8767   -46995.987    38.481374   0.99179821 
    4100    272.96354   -718.20162    138799.61   -43238.478     3748.497   -46986.975    39.704784   0.99313333 
    4200    280.24074   -869.74211    138847.94   -43231.286    3848.4317   -47079.718    40.818312   0.99278762 
    4300    273.97912   -507.02255    138485.96   -43231.437    3762.4434    -46993.88    41.942142   0.99538262 
    4400    279.40989   -408.80639    138625.54   -43207.174     3837.022   -47044.196    42.995816    0.9943804 
    4500    273.60055   -532.29438    138611.42    -43181.85    3757.2447   -46939.095    44.317025   0.99448169 
    4600    272.01235   -347.97825    138768.45   -43225.506    3735.4346   -46960.941    45.592845   0.99335631 
    4700    272.72038   -382.29551    138981.59   -43266.301    3745.1577   -47011.459    46.857208   0.99183292 
    4800    275.83349   -451.64961    138954.47   -43241.724    3787.9087   -47029.632    48.236086   0.99202648 
    4900    274.35041   -539.16499    139079.96   -43198.263    3767.5422   -46965.806    49.637928   0.99113139 
    5000    268.98727   -384.88665    138977.75   -43276.897    3693.8924   -46970.789    51.143071   0.99186031 
    5100    277.02918   -502.51475    139019.44   -43227.519    3804.3287   -47031.847    53.009856   0.99156286 
    5200    271.49116   -528.11922    138971.11   -43280.681    3728.2774   -47008.958     54.46555   0.99190775 
    5300    274.03426   -488.59646    139318.71   -43268.446    3763.2006   -47031.647    56.017417   0.98943288 
    5400    281.74541   -445.97741    139276.55   -43184.474    3869.0947   -47053.568    57.550848   0.98973242 
    5500    273.90756    -546.2459    139349.56   -43149.927    3761.4607   -46911.388    59.042034   0.98921384 
    5600    272.75799   -337.62693    139577.65   -43088.121    3745.6742   -46833.795    60.089242   0.98759734 
    5700    274.10887   -551.41128    139347.34   -43181.098    3764.2253   -46945.324     61.45925   0.98922965 
    5800    275.27175   -673.43889    139312.72   -43124.906    3780.1946   -46905.101    62.799241   0.98947546 
    5900    268.90607   -490.45751     139297.5   -43227.043    3692.7773    -46919.82    63.826151   0.98958354 
    6000    270.90187   -408.02141    139083.05   -43303.271    3720.1848   -47023.456    64.714056   0.99110938 
    6100    272.14528   -578.43048     139205.6   -43316.123      3737.26   -47053.383    65.850927   0.99023683 
    6200    271.94664   -622.50952    138912.44   -43276.326    3734.5322   -47010.859    67.391694   0.99232664 
    6300    271.60231    -407.8239    139018.83   -43263.613    3729.8037   -46993.417    68.858021   0.99156721 
    6400     275.8672   -437.47614    138952.24    -43249.68    3788.3717   -47038.052    70.577984   0.99204243 
    6500    275.53732   -625.10904    139013.63   -43210.997    3783.8416   -46994.839    72.276384   0.99160432 
    6600    273.83281     -387.558    139128.61     -43272.7    3760.4342   -47033.134    73.583519   0.99078483 
    6700    273.23943   -499.51511    139215.24   -43259.034    3752.2856    -47011.32    75.326809   0.99016831 
    6800    271.61839   -514.19643    139008.98   -43328.256    3730.0245    -47058.28    76.421503   0.99163749 
    6900     270.4322   -478.30056    139120.09   -43278.227    3713.7351   -46991.962     77.48164   0.99084551 
    7000    273.94369   -633.36582    139272.13   -43138.032    3761.9569   -46899.989    78.474318    0.9897638 
    7100    270.36773   -425.90557    138917.86    -43257.31    3712.8497   -46970.159    80.001513   0.99228794 
    7200    270.37671   -392.28391    139105.15   -43256.425    3712.9731   -46969.398    81.406829   0.99095196 
    7300    277.39196   -525.40091    139192.81   -43285.662    3809.3106   -47094.972    82.210359   0.99032783 
    7400    273.35742   -417.48917    139115.68   -43343.756    3753.9059   -47097.662    83.712232   0.99087692 
    7500    267.61318   -579.58864     139148.6   -43297.929    3675.0226   -46972.952    85.266754    0.9906425 
    7600    271.68292   -411.05535    139148.84   -43234.421    3730.9107   -46965.331    86.818018   0.99064081 
    7700    276.82846   -341.97021    139382.85   -43204.569    3801.5723   -47006.141    88.159876    0.9889776 
    7800    272.79752   -602.40638    139393.51   -43256.601    3746.2169   -47002.818    89.578378   0.98890198 
    7900    270.67686   -635.06938    139154.27     -43349.1    3717.0948   -47066.194    90.890722   0.99060211 
    8000    272.28209   -414.23601       139376   -43359.559    3739.1389   -47098.698    91.972918    0.9890262 
    8100    274.06929   -519.00882    139458.22   -43255.979    3763.6817   -47019.661    93.349623   0.98844312 
    8200    277.10187   -480.86421    139383.24   -43265.408    3805.3269   -47070.735    94.623967   0.98897483 
    8300    276.17848   -747.92107    139529.83   -43236.856    3792.6464   -47029.502    95.926998   0.98793583 
    8400    271.58285   -490.66015    139277.42   -43289.866    3729.5364   -47019.402    97.062764   0.98972624 
    8500    275.47524   -592.43088    139239.75   -43330.532    3782.9891   -47113.521    98.489095   0.98999402 
    8600    274.89479   -283.08576    139239.28     -43244.3     3775.018   -47019.318    99.803215   0.98999734 
    8700    270.92074   -170.09335     139301.3   -43200.383    3720.4439   -46920.827    101.56069   0.98955658 
    8800    274.74376   -610.89702    139338.06   -43167.078     3772.944   -46940.022     102.9667   0.98929548 
    8900    275.26287    -643.9991    138907.22   -43190.118    3780.0727   -46970.191    104.27171   0.99236397 
    9000    273.12266   -385.91519    139117.58   -43133.642     3750.682   -46884.324    105.47449   0.99086341 
    9100    275.29128   -419.64351    139414.95   -43143.092    3780.4628   -46923.555    106.37817    0.9887499 
    9200    275.33655   -415.78331    139191.11    -43199.12    3781.0844   -46980.204    107.20092   0.99033996 
    9300     270.6629    -588.1668    139323.01   -43199.157    3716.9031    -46916.06    108.63655   0.98940238 
    9400    271.24217   -622.34606    139474.05   -43228.227    3724.8581   -46953.085    110.17942   0.98833096 
    9500    274.75637   -492.39878    139199.92   -43251.519    3773.1171   -47024.636    111.37415   0.99027729 
    9600    274.27581   -590.21703    138844.97    -43288.13    3766.5178   -47054.648    112.50625   0.99280889 
    9700    274.19841    -426.0279     138824.9   -43214.885    3765.4549    -46980.34    113.75614   0.99295237 
    9800    270.84269     -631.921    138911.07   -43233.366    3719.3722   -46952.739     115.2052   0.99233644 
    9900    275.68278   -614.92533    138693.13    -43134.83    3785.8392   -46920.669    116.17565   0.99389576 
   10000    268.05807   -550.39368    138660.22   -43297.322    3681.1321   -46978.454    117.94411   0.99413169 
   10100    269.92488   -249.78132    138676.41   -43204.081    3706.7682   -46910.849    119.39764   0.99401559 
   10200     264.2064   -499.96792    138682.23   -43299.978    3628.2387   -46928.217     120.8073   0.99397392 
   10300    276.16091   -542.83834    138821.29   -43193.444    3792.4051   -46985.849    122.34177   0.99297824 
   10400    274.36358   -499.93236    138887.94   -43114.243     3767.723   -46881.966    123.80571   0.99250174 
   10500    273.39389   -498.16092    138860.05   -43113.124    3754.4067    -46867.53    125.17106   0.99270102 
   10600    275.84461   -421.04556    139158.29    -43092.68    3788.0615   -46880.742    126.76479   0.99057354 
   10700    276.54243   -688.57798    139177.44   -43166.334    3797.6443   -46963.978    127.96319   0.99043725 
   10800    275.87489   -425.36205    139212.03   -43118.009    3788.4773   -46906.486    129.28509   0.99019111 
   10900    278.27561   -567.23558    139405.89   -42992.581    3821.4454   -46814.027    130.70486   0.98881417 
   11000    273.57434   -555.96063    139721.39   -43044.615    3756.8848     -46801.5     132.3118   0.98658135 
   11100    274.96175   -619.95614    139535.24   -43113.564    3775.9375   -46889.501    133.43214   0.98789751 
   11200    278.34083   -383.47008    139317.24    -43100.84     3822.341   -46923.181    134.32013   0.98944334 
   11300    279.49482   -553.58927     139139.8   -43162.225    3838.1883   -47000.413    135.55515   0.99070512 
   11400    272.39526   -533.15589     139143.6   -43172.665     3740.693   -46913.358    136.72321   0.99067811 
   11500    268.54383    -401.3614    139409.27   -43317.938    3687.8028   -47005.741    137.90131   0.98879018 
   11600     269.3998   -382.06505    139132.37   -43383.161    3699.5574   -47082.718    139.25385   0.99075805 
   11700    271.56529   -473.12311    139072.15     -43275.3    3729.2953   -47004.596    140.93187   0.99118706 
   11800    271.56963   -526.89182    139009.15   -43234.226    3729.3549   -46963.581    142.61957   0.99163625 
   11900    273.18682   -487.57534    138959.15   -43310.649    3751.5631   -47062.212    143.78709    0.9919931 
   12000    270.16173   -456.25748    138957.74     -43263.8    3710.0207    -46973.82    144.92044   0.99200313 
   12100    272.76832   -505.56194    139128.22   -43263.583     3745.816   -47009.399    146.37708    0.9907876 
   12200    273.10505   -515.40496    139161.34   -43132.623    3750.4402   -46883.064    147.90942   0.99055179 
   12300    282.17391   -558.30397    138996.97   -43079.081    3874.9791    -46954.06    149.06719    0.9917232 
   12400    278.67167   -707.77901     139065.2   -43070.647    3826.8843   -46897.532    150.27654    0.9912366 
   12500    275.02637    -445.5074    139172.39   -43073.694    3776.8249   -46850.519    151.41104   0.99047314 
   12600    279.31728   -470.49035    139372.94    -43099.02    3835.7502   -46934.771    152.64679   0.98904792 
   12700    274.88395   -393.68391    139464.54   -43064.118    3774.8691   -46838.987    154.60504   0.98839833 
   12800    273.52791   -343.19637    139660.84    -43133.55    3756.2471   -46889.798    156.54423   0.98700908 
   12900     272.0856    -593.5637    139698.26   -43134.456    3736.4405   -46870.896    158.11519   0.98674472 
   13000    275.74677   -712.49056    139279.24   -43160.464    3786.7179   -46947.182    159.47757   0.98971329 
   13100    274.84394   -498.33846    139316.48   -43166.878    3774.3196   -46941.197    160.91918   0.98944873 
   13200    277.92623   -644.06768    139250.02   -43134.651    3816.6475   -46951.298    162.56866   0.98992099 
   13300    272.92596   -593.24175    139443.39   -43119.145    3747.9808   -46867.126    164.60975   0.98854824 
   13400    276.37471   -819.17028    139299.75    -43166.55    3795.3411   -46961.891    166.11165   0.98956762 
   13500    268.54798   -518.69411    139422.98    -43180.65    3687.8599    -46868.51    167.76571   0.98869292 
   13600    275.72109   -466.22472    139378.48   -43190.134    3786.3652   -46976.499    168.66255    0.9890086 
   13700    272.18908   -545.85192     139119.9   -43210.696    3737.8616   -46948.557    169.37761    0.9908469 
   13800    268.68331   -467.56068    139281.64   -43237.497    3689.7182   -46927.215    171.07577   0.98969627 
   13900    270.97071   -440.00798    139314.16   -43252.927    3721.1301   -46974.057    172.44963   0.98946525 
   14000    270.18192   -636.56706    138983.55   -43340.124    3710.2981   -47050.422    173.49863   0.99181896 
   14100    273.40625    -455.0225    138911.95   -43308.443    3754.5765   -47063.019    174.79837   0.99233014 
   14200    272.36725   -630.96763    138896.52   -43268.901    3740.3083   -47009.209    176.05302   0.99244042 
   14300     270.6042   -611.28098    139210.02   -43253.495    3716.0971   -46969.592    177.77797   0.99020539 
   14400     271.8363   -547.43422    138833.61   -43272.551     3733.017   -47005.568    178.59451   0.99289007 
   14500    272.62935   -499.74607    139125.72   -43281.659    3743.9076   -47025.567    179.88825    0.9908054 
   14600    278.06611   -591.23066    138979.79   -43197.353    3818.5684   -47015.922    180.50296   0.99184577 
   14700    275.35884   -564.96437     138972.8   -43188.999    3781.3905    -46970.39    181.51866   0.99189569 
   14800    273.30415   -399.06615    139256.11   -43231.514    3753.1743   -46984.689    182.98476   0.98987768 
   14900    274.20531    -597.8339    139249.37   -43233.787    3765.5496   -46999.337     183.9596   0.98992561 
   15000    271.54919   -663.23347    139177.17   -43296.695    3729.0742   -47025.769    184.86464   0.99043916 
   15100    273.20568   -675.07628     139148.9    -43291.38    3751.8221   -47043.202    186.14689   0.99064035 
   15200    274.81662   -563.62384    139151.83   -43320.925    3773.9444   -47094.869     187.4982    0.9906195 
   15300    275.85541   -559.62949    139301.01   -43255.429    3788.2097   -47043.638    189.13386   0.98955864 
   15400     281.1284   -614.73024    139356.49   -43188.796    3860.6216   -47049.418    191.14909   0.98916468 
   15500     270.3313   -544.26551    139340.16   -43184.318    3712.3495   -46896.667    192.05548   0.98928063 
   15600    277.50423   -504.74864    139377.42   -43209.794    3810.8523   -47020.646    193.06274    0.9890161 
   15700    268.55417   -479.57432    139234.05   -43288.536    3687.9448   -46976.481    194.46042   0.99003453 
   15800    273.40818   -379.87587    139401.84    -43263.83     3754.603   -47018.433    195.69433   0.98884289 
   15900    275.44369      -535.31    139482.16   -43215.742    3782.5558   -46998.298     197.2674   0.98827349 
   16000    273.86445   -574.51753    139431.16   -43276.172    3760.8687   -47037.041    198.35671   0.98863493 
   16100    274.74257   -621.86417    139132.03   -43282.927    3772.9276   -47055.855    199.07016   0.99076048 
   16200    282.07417   -443.19998    139088.13   -43168.456    3873.6095   -47042.066    200.54768   0.99107316 
   16300    272.92658   -579.24445    139263.55   -43148.728    3747.9893   -46896.718    202.09766   0.98982482 
   16400    276.87056   -411.67775    139346.12   -43099.422    3802.1504   -46901.573    202.88982   0.98923826 
   16500    278.98706   -451.16694    139473.53   -43066.601    3831.2154   -46897.817    204.31458   0.98833462 
   16600    274.77046   -527.16065    139492.23   -43177.099    3773.3106    -46950.41    205.55123   0.98820212 
   16700    277.82371   -682.19823    139258.72   -43241.843    3815.2396   -47057.082    206.26263   0.98985911 
   16800    273.50952   -672.06835    138983.09   -43233.801    3755.9946   -46989.795     207.3394    0.9918222 
   16900    275.01944   -355.81014    138819.91   -43218.085    3776.7297   -46994.814    208.19028   0.99298807 
   17000    276.03855   -605.84827    138773.52   -43241.161    3790.7248   -47031.886     209.0539   0.99332002 
   17100    271.59002   -477.59483    138783.18   -43260.594    3729.6349   -46990.229    209.65446   0.99325092 
   17200    275.65695   -559.67042    139075.74   -43132.698    3785.4844   -46918.182     211.8385   0.99116151 
   17300    278.60945   -563.14085    138958.84   -43074.103    3826.0298   -46900.133    213.49833   0.99199527 
   17400    274.17547   -511.95008    138931.53   -43154.602    3765.1399   -46919.742    214.67446   0.99219027 
   17500    274.84473   -299.10398    138878.12   -43129.101    3774.3305   -46903.432    215.62713   0.99257187 
   17600    268.55598   -338.07403    139133.97   -43178.895    3687.9697   -46866.865    217.00694   0.99074668 
   17700    273.22418   -585.35866    139231.33   -43170.338    3752.0762   -46922.414    218.25493   0.99005386 
   17800    276.31037   -498.82109    139001.91   -43156.284    3794.4575   -46950.741    220.13798   0.99168795 
   17900    271.98979   -638.68442    138992.88    -43223.14    3735.1248   -46958.265    220.79252   0.99175237 
   18000    269.69688   -567.70557    138825.47   -43284.231    3703.6371   -46987.868    221.72383   0.99294831 
   18100    267.72427   -541.84666    139127.79   -43308.144    3676.5482   -46984.692     223.4447    0.9907907 
   18200    269.78365   -692.01015    139101.61   -43168.588    3704.8287   -46873.417    224.90792   0.99097715 
   18300    272.13887   -608.48188    138784.41   -43246.213    3737.1721   -46983.385    225.67949   0.99324207 
   18400    276.49914   -430.08762    138839.12    -43310.88    3797.0499    -47107.93    227.25034   0.99285069 
   18500    268.80716   -278.41603     139092.2   -43247.622     3691.419   -46939.041    228.81358   0.99104418 
   18600     273.6144   -448.62211     139158.8   -43247.434    3757.4349   -47004.868    229.83945   0.99056988 
   18700    277.15143   -375.01325    138880.44   -43152.524    3806.0075   -46958.532    231.23732   0.99255532 
   18800    282.01316   -561.01256    138886.69   -43143.911    3872.7717   -47016.682    232.43124   0.99251063 
   18900    272.39305   -317.59615    139122.12   -43241.661    3740.6625   -46982.323    233.94866   0.99083104 
   19000    274.04023   -597.27389    139080.87   -43246.118    3763.2827   -47009.401    235.65012   0.99112489 
   19100    272.74951   -510.92294    139169.21   -43266.303    3745.5578   -47011.861    237.40424   0.99049581 
   19200    271.41576   -490.02855    139134.19   -43227.422    3727.2418   -46954.664     238.8832   0.99074511 
   19300    273.50043   -547.55238     138868.1    -43200.36    3755.8698    -46956.23    240.33151    0.9926435 
   19400    269.53586   -358.09983    138781.67   -43229.219     3701.426   -46930.645    241.19851   0.99326171 
   19500    277.73171   -540.22945    138883.22   -43129.811    3813.9763   -46943.787    243.05841   0.99253542 
   19600    277.59125   -357.36913     138948.9   -43166.214    3812.0474   -46978.262    244.63749   0.99206628 
   19700    272.30087   -662.27822    138674.72   -43191.806    3739.3968   -46931.203     246.2994   0.99402771 
   19800    277.80921   -460.39376    138729.38   -43135.498    3815.0406   -46950.539    247.92929   0.99363609 
   19900    277.21466   -488.42448    138831.36   -43128.383    3806.8757   -46935.259     249.4979   0.99290622 
   20000     275.3156   -551.01853    138904.84   -43076.789    3780.7968   -46857.586    250.94766   0.99238092 
   20100    271.58304   -429.39057    139053.49   -43106.631     3729.539    -46836.17    253.37996   0.99132008 
   20200    277.49135   -451.85965    139084.29   -43047.946    3810.6755   -46858.621    255.09699   0.99110052 
   20300    279.73952   -606.69652    138954.22   -43046.351    3841.5487     -46887.9    256.05856   0.99202828 
   20400    274.49509   -461.26209    138870.86   -43132.135     3769.529   -46901.664    257.56862   0.99262378 
   20500    278.91947   -565.30821     139204.5   -43074.055    3830.2872   -46904.343    259.55482   0.99024472 
   20600    278.10402   -337.93039    139147.58   -43152.241     3819.089    -46971.33      261.142   0.99064973 
   20700    271.41446   -473.81241    138961.38   -43177.017     3727.224   -46904.241    261.71187   0.99197716 
   20800    274.17084   -632.62632    138791.58   -43196.984    3765.0763   -46962.061      262.814   0.99319076 
   20900    270.29383   -529.65133    138542.54   -43200.474    3711.8348   -46912.309     263.9624   0.99497609 
   21000    274.68703   -496.89946     138654.2   -43140.577    3772.1648   -46912.741     265.4726   0.99417487 
   21100    272.90235    -425.2226    138886.51   -43181.175    3747.6566   -46928.832    267.38679   0.99251192 
   21200    269.95264    -330.3099    139059.66   -43237.313    3707.1495   -46944.462    269.10375   0.99127612 
   21300    267.78198   -417.36015    138953.57   -43262.012    3677.3406   -46939.352    269.84507   0.99203292 
   21400    275.24336    -435.5761    139053.75   -43202.731    3779.8047   -46982.536    271.37438   0.99131822 
   21500    276.97237   -619.42848    138914.09   -43039.962    3803.5485    -46843.51    272.02657   0.99231485 
   21600    275.54603   -506.73524    139004.65   -43123.048    3783.9612   -46907.009    273.54404    0.9916684 
   21700    276.15392   -517.71318    138903.28   -43117.584     3792.309   -46909.893    274.39407   0.99239208 
   21800    276.21785   -452.07615    138878.71   -43093.894    3793.1871   -46887.081    275.16258   0.99256769 
   21900    278.10449    -535.5663    138926.42   -43092.802    3819.0955   -46911.898     276.2774   0.99222676 
   22000    275.24157   -581.19714    138959.64   -43104.224    3779.7802   -46884.005    278.03018   0.99198962 
   22100     275.4014   -491.10098    139041.79   -43074.355     3781.975    -46856.33    279.87085   0.99140348 
   22200    278.05906   -497.61853    139060.38   -43059.369    3818.4715    -46877.84    281.40911   0.99127096 
   22300    273.04397     -323.879    139152.34   -43090.675    3749.6015   -46840.276    283.86598   0.99061588 
   22400    277.35797   -584.69096     139266.5   -43216.598    3808.8438   -47025.441    284.48182   0.98980382 
   22500    277.11275   -437.75591    139287.75   -43169.288    3805.4763   -46974.765    285.03112    0.9896528 
   22600    274.24008   -630.05917    139130.91   -43177.721    3766.0271   -46943.748    285.88718   0.99076846 
   22700    271.41046   -553.25698    139026.64   -43226.971    3727.1691    -46954.14    286.63633    0.9915115 
   22800     273.6224    -627.0763    139020.82   -43261.683    3757.5447   -47019.228    287.30091   0.99155305 
   22900    268.89934   -566.04637     138675.2   -43324.499     3692.685   -47017.184    288.03173   0.99402431 
   23000     273.7214    -338.2476    138646.04   -43203.959    3758.9043   -46962.863    289.48123   0.99423337 
   23100    272.10679   -472.98859    138776.64   -43152.665    3736.7314   -46889.396    290.28567   0.99329772 
   23200     275.0291   -303.33767    139014.92   -43161.236    3776.8624   -46938.099    292.64374   0.99159509 
   23300    271.84584   -422.52645    139172.76   -43202.877     3733.148   -46936.025    294.14418   0.99047052 
   23400    272.58737   -507.66965    139357.44    -43222.48    3743.3311   -46965.811    295.57437   0.98915794 
   23500    276.11942   -567.17275    139503.37   -43178.992    3791.8353   -46970.827    296.99675   0.98812321 
   23600    272.68943    -491.2115    139505.79    -43244.24    3744.7327   -46988.973    297.76546   0.98810609 
   23700    274.41118   -350.97429    139355.22   -43271.075    3768.3767   -47039.451    298.89089   0.98917367 
   23800    275.74519   -506.09857    139507.35   -43265.237    3786.6961   -47051.934    300.83084   0.98809499 
   23900    272.95283   -523.88699    139425.27   -43200.807    3748.3498   -46949.156    301.61538   0.98867672 
   24000    277.26796   -494.47963    139199.57   -43163.387    3807.6078   -46970.994     302.1272   0.99027973 
   24100    273.36572   -354.97901    139020.75    -43161.53    3754.0199    -46915.55     303.2781   0.99155356 
   24200    274.09011   -348.98987    139239.54   -43063.876    3763.9677   -46827.844    304.66796   0.98999547 
   24300      277.805   -572.88786    139337.48   -43117.221    3814.9827   -46932.203    307.46351   0.98929961 
   24400    277.98489   -525.36928    139390.78   -43087.072     3817.453   -46904.525    309.05149   0.98892132 
   24500    276.94567   -342.17231    139571.06   -43177.672    3803.1819   -46980.854    310.21594   0.98764398 
   24600    273.91624   -540.57487     139518.2   -43192.989      3761.58   -46954.569    311.60647   0.98801814 
   24700    273.37748   -648.21658    139110.69   -43134.038    3754.1814   -46888.219    312.18281   0.99091249 
   24800     273.7047   -622.90147    138961.79   -43090.324    3758.6749   -46848.999    313.45524   0.99197426 
   24900    275.30112   -378.09847    138966.29   -43227.404    3780.5979   -47008.002    315.49217   0.99194214 
   25000    269.36792   -608.68717    138907.85   -43249.174    3699.1197   -46948.293    316.70001   0.99235945 
   25100    270.91574   -597.13501    138769.34   -43190.591    3720.3753   -46910.966      317.947   0.99334997 
   25200    273.37482   -451.65835    138697.89   -43214.757    3754.1449   -46968.902     319.5387   0.99386164 
   25300    272.29414   -428.26304    139053.95   -43217.188    3739.3042   -46956.492    322.33724   0.99131683 
   25400     274.2913   -255.92127     139046.8   -43239.679    3766.7305   -47006.409    323.48845   0.99136777 
   25500    269.80132    -499.3993    139151.62   -43255.927    3705.0714   -46960.999    325.21627   0.99062098 
   25600    271.79469   -409.68626    139063.88   -43300.999    3732.4456   -47033.444    326.02464   0.99124601 
   25700    271.14743    -462.3004    139237.67   -43321.771     3723.557   -47045.328    327.66931   0.99000878 
   25800    270.97741   -562.13297    139346.64   -43329.904    3721.2222   -47051.126    329.38149   0.98923457 
   25900    270.80315   -594.00099    139288.17   -43414.278    3718.8291   -47133.107    330.23756   0.98964989 
   26000    274.36172   -495.14654    139364.72   -43250.166    3767.6975   -47017.864    331.92196   0.98910628 
   26100    269.53165   -534.94304    139245.73   -43313.174    3701.3681   -47014.542     333.7557   0.98995145 
   26200    274.42334    -314.9725    139215.41   -43217.511    3768.5438   -46986.055    335.18874   0.99016708 
   26300    273.54211   -680.69273    139403.75   -43147.426    3756.4422   -46903.868    336.91565   0.98882931 
   26400    278.56814    -498.8569    139243.88   -43198.701    3825.4626   -47024.163    338.06118   0.98996461 
   26500    275.13818   -688.44329    139159.88   -43104.259    3778.3604    -46882.62    339.11278   0.99056216 
   26600    275.92001   -337.21179     139143.9   -43131.886    3789.0969   -46920.983    340.44772   0.99067593 
   26700    280.65458   -561.62406    139196.04   -43143.068    3854.1148   -46997.182    341.25471   0.99030489 
   26800    275.79754   -569.99092    139242.82   -43123.904     3787.415   -46911.319    342.59172   0.98997217 
   26900    274.95356    -569.6258    139142.67   -43190.805    3775.8251   -46966.631    343.68873    0.9906847 
   27000    267.55667   -493.59737     139138.4   -43233.607    3674.2466   -46907.854     344.6476   0.99071514 
   27100    273.28678   -595.28169       139224   -43219.227    3752.9358   -46972.162    345.84541   0.99010598 
   27200    271.22656   -641.66612    139127.23   -43192.336    3724.6436   -46916.979    346.27618    0.9907947 
   27300    275.39894   -561.06106    139393.76   -43153.331    3781.9413   -46935.272    347.89666   0.98890023 
   27400    278.62746   -553.65671    139368.04   -43116.565    3826.2772   -46942.842    348.65182    0.9890827 
   27500    268.28781   -400.26766    139331.91   -43166.014     3684.287   -46850.301    350.56127   0.98933917 
   27600    272.79241   -329.17586    139426.15   -43099.833    3746.1468    -46845.98     352.5792   0.98867048 
   27700    275.67292   -546.33621    139668.62    -43122.09    3785.7037   -46907.794    354.68352    0.9869541 
   27800    278.53423   -623.58745    139472.47   -43089.403     3824.997     -46914.4    355.89673   0.98834209 
   27900    275.72509    -630.1198    139146.84     -43126.5    3786.4202    -46912.92    357.10944     0.990655 
   28000    278.02004   -664.53746    139345.73   -43033.271    3817.9357   -46851.207    358.15044   0.98924107 
   28100    273.09107   -411.51996    139173.42   -43100.828    3750.2482   -46851.076    359.81588    0.9904658 
   28200     273.4092   -307.28564    138911.59   -43201.818    3754.6169   -46956.435    360.92769   0.99233271 
   28300    274.20438    -368.3681    138840.42   -43292.418    3765.5368   -47057.955     362.5247   0.99284142 
   28400    277.80123   -537.15516    139007.19   -43135.618     3814.931   -46950.549    364.69518   0.99165024 
   28500    274.78251   -565.97123    139140.09   -43135.069    3773.4761   -46908.545    366.54062    0.9907031 
   28600    270.88957   -541.32124    139260.43    -43222.63    3720.0159   -46942.646    367.26929   0.98984695 
   28700    269.64018   -573.87064    139241.48   -43268.584    3702.8585   -46971.443    368.50448   0.98998166 
   28800    271.75224     -294.003    138901.61   -43213.916    3731.8626   -46945.778    369.48699   0.99240404 
   28900    273.83013   -507.06642    139184.84   -43202.831    3760.3975   -46963.228    371.32365   0.99038456 
   29000    274.65725   -375.43101    139228.61   -43193.052    3771.7559   -46964.808    372.52374   0.99007318 
   29100    276.08863   -336.30798    139238.27    -43177.56    3791.4124   -46968.972    373.43831   0.99000449 
   29200    266.99569   -604.96816    139235.35   -43271.987    3666.5428    -46938.53    374.01769   0.99002528 
   29300    273.58582   -703.60163    139046.98    -43280.84    3757.0424   -47037.882    375.20052   0.99136653 
   29400    276.33738   -525.87271    138823.27   -43249.063    3794.8284   -47043.891    376.31359   0.99296406 
   29500    267.73964   -416.18612    138785.01   -43264.438    3676.7593   -46941.198    377.91065   0.99323782 
   29600    272.84901   -510.13849    138706.35   -43217.879    3746.9241   -46964.803    379.28159   0.99380105 
   29700    275.57481    -497.3244    138922.61   -43157.478    3784.3565   -46941.835    381.08979   0.99225403 
   29800    279.35063   -760.47527    138708.48   -43158.988    3836.2082   -46995.196    381.65754    0.9937858 
   29900    278.65774   -401.46315    138685.65   -43092.972     3826.693   -46919.665    382.84059   0.99394941 
   30000    276.83393   -292.28506    138881.46   -43128.096    3801.6474   -46929.744    384.90611   0.99254804 
   30100    276.38955   -606.68361    139210.16   -43113.561    3795.5449   -46909.106    386.94633   0.99020441 
   30200    271.97151   -399.55133    139351.72   -43175.399    3734.8737   -46910.273    388.33927   0.98919851 
   30300    278.14441   -516.76653    139418.83   -43107.583    3819.6437   -46927.226    390.03686   0.98872239 
   30400    272.51718   -653.28436    139217.53   -43216.618    3742.3672   -46958.986    391.25991   0.99015202 
   30500    271.94534   -503.64839     139198.8   -43221.388    3734.5144   -46955.902    391.95564   0.99028524 
   30600    274.98293   -461.56894    138842.91   -43243.816    3776.2283   -47020.044    392.60433   0.99282359 
   30700    269.97667   -649.78874       138881   -43272.981    3707.4794    -46980.46    393.90662   0.99255132 
   30800    275.74914   -587.53608    139018.48   -43234.541    3786.7504   -47021.292    395.10931   0.99156975 
   30900    275.93484   -624.55565    138718.13   -43222.844    3789.3005   -47012.144    396.07094   0.99371666 
   31000    273.99768   -263.92915    138997.48   -43197.667    3762.6983   -46960.366     398.2204   0.99171954 
   31100    274.73292   -623.48756    139008.89   -43349.256    3772.7951   -47122.051    399.58056   0.99163813 
   31200    272.05832   -540.39614       139142   -43382.628    3736.0659   -47118.694    401.35791   0.99068946 
   31300     270.2752   -452.88143    139123.35   -43237.709    3711.5791   -46949.288    402.19978   0.99082231 
   31400    269.64432   -334.58826    138647.58    -43322.58    3702.9154   -47025.495    403.09505   0.99422228 
   31500    270.23993   -461.48813    138679.38   -43184.089    3711.0947   -46895.184    403.56584   0.99399434 
   31600    269.07269   -554.49215    139009.01   -43155.332    3695.0655   -46850.397    405.43924   0.99163731 
   31700    268.95638   -347.20304    139083.85   -43189.548    3693.4682   -46883.017    406.69735   0.99110372 
   31800    276.36169   -211.13372    139176.99   -43124.325    3795.1623   -46919.487    407.73744   0.99044045 
   31900    274.13109   -513.10201    139264.43   -43156.277    3764.5304   -46920.808    409.98829   0.98981854 
   32000    277.80306   -578.41572    139309.66   -43110.049     3814.956   -46925.005    410.99532   0.98949719 
   32100    269.17484   -286.71527    139187.52   -43202.201    3696.4682    -46898.67    412.51069   0.99036552 
   32200    277.63111   -455.13467    138915.91   -43127.976    3812.5947    -46940.57     413.7391   0.99230187 
   32300    274.78993   -489.65521    138737.02   -43171.192    3773.5779    -46944.77    413.63498   0.99358136 
   32400    280.00106   -656.48477    138768.08   -43094.626    3845.1403   -46939.766    414.47315   0.99335899 
   32500    275.65263   -374.38777     138796.4    -43194.14     3785.425   -46979.565    415.07169   0.99315626 
   32600    274.37696   -602.22344    138811.51   -43220.701    3767.9069   -46988.608    416.89386   0.99304814 
   32700    276.08456   -446.10322    138687.99   -43182.928    3791.3566   -46974.284    418.20172   0.99393264 
   32800    270.75853   -441.49662    138674.48   -43240.481    3718.2164   -46958.697    419.76927   0.99402947 
   32900    272.49331   -583.10979    138824.68   -43316.508    3742.0395   -47058.548    420.82811   0.99295394 
   33000    270.82058   -374.53865    138887.62   -43327.238    3719.0685   -47046.306    421.71705   0.99250401 
   33100    270.81832   -428.43419    138890.67   -43354.459    3719.0375   -47073.497    423.49361   0.99248223 
   33200    273.72625   -423.68038    138940.67   -43266.791    3758.9708   -47025.762    424.28059   0.99212501 
   33300    271.99301   -666.43364    138955.48   -43248.783     3735.169   -46983.952    425.59007   0.99201928 
   33400      271.364   -466.99806    138708.05    -43273.77    3726.5311   -47000.301    425.39934   0.99378889 
   33500    275.29573   -450.81972    139032.38    -43168.98    3780.5239   -46949.504    427.49032   0.99147062 
   33600    275.35078   -383.68195    139094.97   -43222.719    3781.2798   -47003.999    428.55174   0.99102444 
   33700    275.44408      -536.96    139218.76   -43250.669    3782.5611    -47033.23    430.20848   0.99014329 
   33800    276.16889   -729.85979    139285.03    -43204.83    3792.5147   -46997.344    432.13959   0.98967214 
   33900    273.93627    -419.5152    139300.59   -43234.531     3761.855   -46996.386     433.7405   0.98956161 
   34000    272.75135   -460.44024    139219.45   -43216.783     3745.583   -46962.366    434.64662   0.99013832 
   34100    275.60841   -585.19528    139031.96   -43274.997    3784.8178   -47059.815     435.9118   0.99147362 
   34200    274.52651   -457.16247    138759.28   -43264.318    3769.9606   -47034.279    436.86038   0.99342196 
   34300    272.38714   -432.69649    138979.58   -43233.238    3740.5814   -46973.819     438.5683   0.99184729 
   34400    272.94908   -594.51062    138898.75   -43100.528    3748.2983   -46848.826    439.56036   0.99242445 
   34500    276.74198   -549.49374    138825.74   -43034.905    3800.3846    -46835.29    440.95813   0.99294638 
   34600     278.0097   -404.54305    138452.84   -43087.227    3817.7937   -46905.021    442.47698   0.99562072 
   34700    275.32843   -406.85942    138467.95   -43188.796     3780.973   -46969.769    443.51793   0.99551207 
   34800    274.73942   -280.80462    138751.55   -43238.777    3772.8844   -47011.662    445.14054    0.9934773 
   34900    273.05136   -560.60055    138933.19   -43224.619    3749.7028   -46974.322    446.38412   0.99217846 
   35000    275.04308   -412.61187    138904.57   -43261.565    3777.0544   -47038.619    447.42659   0.99238285 
   35100     273.3962   -272.86092    139195.56   -43217.321    3754.4385   -46971.759    449.03356   0.99030827 
   35200    281.44878   -446.79525    139568.89   -43063.071    3865.0213   -46928.092    450.98589   0.98765932 
   35300     279.3306   -529.10243    139446.75   -43114.619    3835.9331   -46950.552    451.95685   0.98852439 
   35400    278.37524    -517.2348    139372.84   -43248.073    3822.8136   -47070.886     453.0655   0.98904861 
   35500    268.02422   -541.82337    139307.95   -43232.931    3680.6672   -46913.599     453.2034    0.9895093 
   35600    277.22167   -310.16747    139244.73   -43257.057    3806.9721   -47064.029    454.17189   0.98995857 
   35700    272.15299   -617.18356    139205.86   -43184.439     3737.366   -46921.805    456.32578   0.99023498 
   35800    273.53833   -554.18769    139372.85   -43194.878    3756.3903   -46951.268    457.75573   0.98904857 
   35900    276.55741   -301.10851    139394.13    -43187.16    3797.8501    -46985.01    459.48589   0.98889755 
   36000    276.93304   -340.19845    139405.52   -43225.175    3803.0084   -47028.183    461.76862   0.98881679 
   36100    270.70553   -665.21003    139475.73   -43229.481    3717.4886    -46946.97    463.92791     0.988319 
   36200    270.91117   -700.31298    139282.15    -43160.73    3720.3125   -46881.042    465.06682   0.98969266 
   36300    274.65807    -588.9951    138899.96   -43173.639    3771.7672   -46945.407    466.06459   0.99241578 
   36400    277.11875   -817.50784    138845.65   -43088.694    3805.5587   -46894.252    467.61487     0.992804 
   36500    279.06368   -492.66749    138968.22   -43038.446    3832.2676   -46870.714    469.82933   0.99192832 
   36600    277.05204   -527.05285    138902.98   -43150.822    3804.6426   -46955.464    471.66461   0.99239422 
   36700    277.91805   -541.98931    138981.58   -43151.003    3816.5351   -46967.538    473.43559     0.991833 
   36800    270.84193   -636.80324     139133.7   -43214.603    3719.3617   -46933.965    475.37803   0.99074855 
   36900    269.05768     -487.135    138721.63   -43263.949    3694.8593   -46958.808    475.35559   0.99369156 
   37000    266.15538   -501.00063    138816.97   -43165.688    3655.0032   -46820.692    476.55499   0.99300911 
   37100     274.7174   -449.94937    138721.18   -43195.256     3772.582   -46967.838    477.27452   0.99369482 
   37200    267.91077   -542.19262    138958.85   -43197.889    3679.1092   -46876.998     479.4554   0.99199522 
   37300    276.53238   -338.44496    138961.82   -43185.524    3797.5063    -46983.03    480.96881   0.99197402 
   37400    269.81414   -500.25752    138931.94   -43264.716    3705.2475   -46969.964    482.15869   0.99218741 
   37500     266.7748   -472.78649    138756.42   -43272.601    3663.5095    -46936.11    483.38895   0.99344244 
   37600    274.16401   -373.28069    138993.54   -43235.184    3764.9825   -47000.167    485.91028   0.99174762 
   37700    269.84608   -510.55102    138816.47   -43271.155    3705.6862   -46976.841    487.23937   0.99301273 
   37800    273.51899   -463.50822    138843.39   -43285.524    3756.1247   -47041.649    488.90859   0.99282015 
   37900    273.97144   -313.36432    139064.98    -43326.36     3762.338   -47088.698    490.24314   0.99123816 
   38000     273.0027   -810.17067    138966.76   -43326.194    3749.0347   -47075.228    490.64754    0.9919388 
   38100    267.19324   -399.79366    138895.56   -43363.384    3669.2557   -47032.639    492.01627   0.99244722 
   38200      269.844   -312.73426    138841.62   -43365.961    3705.6575   -47071.618    493.24818   0.99283285 
   38300    267.83753   -400.81373    138876.29   -43405.781    3678.1035   -47083.884    494.69774   0.99258498 
   38400    269.81783    -335.7908    139369.51    -43425.37    3705.2981   -47130.668    497.06608   0.98907223 
   38500    262.73619   -575.85389    139336.63   -43462.325    3608.0489   -47070.374    498.61557   0.98930564 
   38600    271.28781   -515.47032    139316.01   -43340.401    3725.4847   -47065.885     499.8193   0.98945209 
   38700    271.29965    -636.2854     139052.9   -43326.544    3725.6474   -47052.191    500.15302   0.99132427 
   38800    273.33474   -379.49934    138989.96   -43249.954    3753.5944   -47003.549    499.62057   0.99177321 
   38900    274.91601   -513.85542    139095.59   -43189.758    3775.3094   -46965.067    500.73606   0.99102004 
   39000     275.5085   -514.95532    138949.81     -43212.1    3783.4458   -46995.546    501.77808   0.99205978 
   39100    275.38505   -401.38318    138866.33   -43212.407    3781.7506   -46994.158    502.43214   0.99265612 
   39200    272.67892   -602.13561     139097.5   -43197.493    3744.5883   -46942.081    504.76464    0.9910064 
   39300    277.07667   -475.15532    138705.88   -43177.078    3804.9808   -46982.059    505.22686   0.99380442 
   39400    273.23805   -431.35451    138874.45   -43181.217    3752.2666   -46933.483    506.52531   0.99259813 
   39500    276.30937   -540.32014    139036.19   -43145.828    3794.4439   -46940.271     507.6741    0.9914434 
   39600    274.99421   -512.23804    139163.81   -43135.291    3776.3832   -46911.674    508.99526   0.99053425 
   39700    272.74541   -498.17548     139162.8   -43195.892    3745.5015   -46941.393    511.46334   0.99054143 
   39800     275.1791    -521.7423       139257   -43206.633    3778.9223   -46985.555    513.78582   0.98987138 
   39900    264.50467   -401.11062    139044.63   -43331.009    3632.3348   -46963.344    514.83992   0.99138325 
   40000    273.82188   -484.90283    139041.41   -43272.992    3760.2842   -47033.276    517.66272    0.9914062 
   40100    268.26259    -556.1145    138961.24   -43254.872    3683.9407   -46938.812    517.74202   0.99197815 
   40200    277.13307   -477.23805    138996.38   -43187.188    3805.7553   -46992.944    519.99395   0.99172739 
   40300    277.72839   -246.26173    139301.56   -43132.287    3813.9307   -46946.218    522.03208   0.98955469 
   40400    276.64568   -579.20978    139208.18    -43171.22    3799.0622   -46970.283    522.86527   0.99021854 
   40500     271.5382   -573.40736    139099.48   -43196.398    3728.9233   -46925.321    524.11649   0.99099231 
   40600    274.24344   -521.76377    139205.86   -43146.143    3766.0732   -46912.217    525.77254   0.99023501 
   40700    275.11985    -275.8505    138866.15   -43204.864    3778.1086   -46982.973    526.49885   0.99265744 
   40800    280.26888    -371.9574    139169.84   -43219.843    3848.8182   -47068.661    528.73115   0.99049131 
   40900    274.51467   -548.15399    139189.75   -43230.464    3769.7979   -47000.261    529.27603   0.99034961 
   41000      265.952   -509.88876    139326.95   -43254.312    3652.2102   -46906.522    530.91306   0.98937439 
   41100    272.82062    -508.4486    139308.06   -43268.611    3746.5342   -47015.145    532.83727   0.98950853 
   41200    277.61515   -618.47346     139205.7   -43127.455    3812.3756    -46939.83    534.16055   0.99023612 
   41300    270.64825   -522.72243    139066.63   -43246.836    3716.7019   -46963.538    534.33931   0.99122642 
   41400     274.9901   -572.97123    138935.42   -43218.378    3776.3268   -46994.705    534.55063   0.99216251 
   41500    268.27893   -707.38831    138851.38   -43241.417    3684.1651   -46925.582    535.77844   0.99276304 
   41600    275.80232   -621.99499    138760.88   -43145.399    3787.4807    -46932.88    537.13587   0.99341051 
   41700    275.03444    -582.8422    138885.87   -43265.698    3776.9358   -47042.633    539.45833   0.99251648 
   41800    279.54982   -482.09026     138936.2    -43184.04    3838.9435   -47022.983    540.87418   0.99215695 
   41900    273.02767   -237.07384    138996.78   -43131.664    3749.3775   -46881.041    542.36517   0.99172457 
   42000    276.76603   -601.35809    138936.14   -43192.186    3800.7149     -46992.9    543.55848   0.99215737 
   42100    278.52298   -482.65814    139055.25   -43200.354    3824.8424   -47025.196    545.14695   0.99130757 
   42200    273.39819   -599.86946    139148.85    -43155.42    3754.4657   -46909.885    547.60122   0.99064074 
   42300    270.96855   -605.44502    138767.63   -43251.172    3721.1006   -46972.273    548.76939   0.99336216 
   42400    271.25969   -652.71583    138989.86   -43258.957    3725.0986   -46984.056    550.96687   0.99177391 
   42500    267.52804   -575.64379     138963.8   -43226.483    3673.8534   -46900.336     552.6987   0.99195988 
   42600     272.8291   -376.14342    138922.66   -43271.163    3746.6507   -47017.814    554.75036   0.99225367 
   42700    271.13401   -477.03768    138922.82   -43317.639    3723.3727   -47041.012    556.28813   0.99225252 
   42800    268.77277   -652.96875    138734.64   -43381.082    3690.9467   -47072.028    557.01511    0.9935984 
   42900    272.82193   -599.69132    138629.25   -43358.573    3746.5523   -47105.125    557.64745   0.99435373 
   43000     275.0233   -278.15008    138694.12   -43291.139    3776.7827   -47067.922    558.93198   0.99388871 
   43100    273.74778   -653.48034     138929.8   -43270.649    3759.2666   -47029.915    560.76784   0.99220266 
   43200    269.35946    -302.0356    138911.65    -43247.96    3699.0036   -46946.963    562.00037   0.99233233 
   43300    275.15294   -557.24663    139321.46    -43214.47    3778.5631   -46993.033    564.48738    0.9894134 
   43400    271.88625    -414.5341    139321.68   -43319.111    3733.7029   -47052.814    566.09712   0.98941182 
   43500    271.80948   -582.55295    139609.36   -43267.242    3732.6487   -46999.891    568.04779   0.98737303 
   43600     271.3493   -682.90948    139463.32   -43270.346    3726.3292   -46996.675    568.00661   0.98840697 
   43700     275.3475   -432.46186    139444.89   -43265.669    3781.2348   -47046.904    569.10534   0.98853762 
   43800    277.73523   -410.39374    139272.32   -43222.131    3814.0246   -47036.156    569.62421    0.9897625 
   43900    267.86236   -390.91235    139024.13   -43277.874    3678.4445   -46956.318    569.66613   0.99152944 
   44000    273.21991   -307.74566    139065.18   -43240.829    3752.0175   -46992.847    571.29365   0.99123678 
   44100    274.18433   -459.45531    139227.81   -43183.559    3765.2615    -46948.82    573.92529   0.99007887 
   44200    274.12782   -531.24008    139127.82   -43207.332    3764.4855   -46971.818    574.70736   0.99079048 
   44300    267.88603   -484.68146    139256.07    -43291.96    3678.7695    -46970.73    576.44989   0.98987794 
   44400    266.23441     -505.925    139148.04   -43261.505    3656.0884   -46917.593     577.3483   0.99064649 
   44500    271.24489   -403.51922    139138.39   -43326.604    3724.8954     -47051.5    578.48495   0.99071518 
   44600    270.64927   -383.45312    139158.89   -43337.136     3716.716   -47053.852    580.35396   0.99056923 
   44700    268.64564   -482.08245    139262.04   -43398.914     3689.201   -47088.114    582.59539   0.98983553 
   44800    271.91746   -358.96627    139238.93   -43304.489    3734.1315   -47038.621    583.65088   0.98999981 
   44900    271.99081   -534.60411    139467.58   -43306.317    3735.1389   -47041.456    585.01312   0.98837676 
   45000    270.90763   -456.11216    139104.68   -43281.275    3720.2639   -47001.539    584.29324   0.99095531 
   45100    269.40618   -450.25038    139119.72   -43247.642    3699.6452   -46947.287    585.87165   0.99084811 
   45200    272.85532   -511.89513    138838.11   -43304.781    3747.0107   -47051.791    585.76769   0.99285795 
   45300    267.19385    -414.8588    139008.24   -43298.068    3669.2642   -46967.332    586.47481   0.99164275 
   45400    274.36445   -724.61944    138985.19   -43326.554     3767.735   -47094.289     587.4615   0.99180722 
   45500    273.39847    -260.7189    139056.28   -43254.276    3754.4697   -47008.745    588.38423   0.99130018 
   45600    274.44096   -561.88939    139105.36   -43226.595    3768.7856    -46995.38    590.63685   0.99095046 
   45700    270.32757   -478.17865    139068.05   -43248.594    3712.2982   -46960.892    591.24493    0.9912163 
   45800    282.28284   -609.36802    138987.95   -43124.599    3876.4751   -47001.074    592.05536   0.99178754 
   45900    270.85576   -591.38343    138774.22   -43140.647    3719.5517   -46860.198    592.72962   0.99331503 
   46000    279.64047   -532.61003    138594.81   -43157.687    3840.1884   -46997.876    593.84969   0.99460084 
   46100    271.77558   -394.32369    138612.73   -43217.798    3732.1831   -46949.981    595.42897   0.99447226 
   46200    275.94013   -579.57635    138777.98   -43196.152    3789.3732   -46985.525     596.9953   0.99328812 
   46300    274.00871    -638.0686    138805.35   -43187.071    3762.8498   -46949.921    597.90185   0.99309224 
   46400    277.83614   -487.76355    138914.25   -43187.992    3815.4103   -47003.402    601.04924   0.99231372 
   46500    270.62885   -432.64835    138758.87   -43184.475    3716.4355    -46900.91    601.46333   0.99342489 
   46600    277.51079   -656.75402    138876.72   -43114.897    3810.9424   -46925.839    602.88764   0.99258188 
   46700    278.16905    -373.1601    138937.86   -43110.149    3819.9821   -46930.131    604.63771   0.99214508 
   46800    276.20748   -402.45272    139264.79   -43050.025    3793.0446   -46843.069     608.3741   0.98981601 
   46900    281.52364   -322.37855    139546.75   -43067.713    3866.0493   -46933.762    610.58308   0.98781605 
   47000    275.24412   -614.24499    139774.99   -43146.464    3779.8152    -46926.28    612.59645   0.98620302 
   47100    276.31211    -563.3469    139576.73   -43162.712    3794.4814   -46957.193    612.96231   0.98760386 
   47200    273.95698   -414.53022    139311.53   -43152.266    3762.1394   -46914.406    613.44669    0.9894839 
   47300    281.60905   -541.64014    139390.57   -43180.333    3867.2222   -47047.555    615.26487   0.98892282 
   47400     278.3865   -595.46293    139445.31   -43129.096    3822.9682   -46952.064    614.99757   0.98853459 
   47500    272.52829   -401.04346    139389.42   -43226.605    3742.5198   -46969.125     615.9862   0.98893097 
   47600    274.68926   -442.77078    139535.53   -43180.759    3772.1955   -46952.955    617.43715   0.98789547 
   47700    271.69948   -684.73073     139224.5   -43250.977    3731.1381   -46982.115    617.85749   0.99010245 
   47800    271.43907   -288.29454    138989.93   -43280.834     3727.562   -47008.396    617.72203   0.99177339 
   47900    276.39744   -504.56762    139100.12   -43247.954    3795.6532   -47043.608    619.01072   0.99098773 
   48000    270.48288   -725.09315     138998.2   -43333.484     3714.431   -47047.915    620.29561   0.99171441 
   48100    271.75378   -524.15274    138925.55   -43337.522    3731.8838   -47069.406    620.81907   0.99223304 
   48200     272.1054   -435.33967     139050.1   -43290.535    3736.7124   -47027.248    623.28632   0.99134424 
   48300    273.52847   -512.09875    139091.97   -43229.637    3756.2548   -46985.891    624.99098   0.99104583 
   48400     276.6914   -624.04103    139134.14   -43221.782    3799.6901   -47021.472     626.7624   0.99074547 
   48500    274.65895   -693.87242    139032.95   -43306.988    3771.7793   -47078.767    627.51173   0.99146655 
   48600    267.58056   -416.13535    138839.74   -43325.559    3674.5746   -47000.134    627.92914   0.99284624 
   48700    273.29124   -771.37175    138907.93   -43374.406     3752.997   -47127.403     629.4276   0.99235887 
   48800    270.11485    -501.6954    138765.49   -43349.984     3709.377   -47059.361    630.96446   0.99337748 
   48900    269.39137   -585.60244    138890.33   -43272.124    3699.4418   -46971.565    632.39432   0.99248465 
   49000    268.95487   -368.54122    138920.66   -43291.852    3693.4475     -46985.3    634.13101   0.99226791 
   49100    267.54195   -389.26948    139014.59   -43267.492    3674.0444   -46941.536     636.1495   0.99159746 
   49200    269.06203    -610.2352    139014.31   -43322.821    3694.9191    -47017.74    638.53983   0.99159948 
   49300    268.95462   -594.47074    138764.46   -43334.846     3693.444    -47028.29    637.80821    0.9933849 
   49400    274.77564    -490.7671    138559.12   -43242.449    3773.3817   -47015.831    638.05272   0.99485705 
   49500    275.87528   -492.43894    138766.51   -43206.762    3788.4826   -46995.245    640.16525   0.99337022 
   49600    272.75134   -425.72924    139045.63   -43201.972    3745.5828   -46947.555    642.43489   0.99137611 
   49700    273.62958   -407.31017    139186.13   -43162.812    3757.6433   -46920.456    643.81245   0.99037538 
   49800    276.42783   -377.80709    139328.32   -43139.307    3796.0706   -46935.378    645.62772   0.98936466 
   49900    274.42436   -545.25696    139100.66   -43213.513    3768.5578   -46982.071    646.67767   0.99098391 
   50000    271.44214   -410.56289    139024.29   -43278.532    3727.6042   -47006.136    647.21728   0.99152829 
   50100    267.75013   -672.87697    139323.61   -43328.514    3676.9032   -47005.417      649.067   0.98939814 
   50200    271.82381    -709.9564    139147.94   -43272.018    3732.8455   -47004.863    650.01746   0.99064721 
   50300    272.23365   -652.56391    138940.18   -43244.869    3738.4737   -46983.342    650.88039   0.99212851 
   50400    277.76246   -374.08409    138864.09   -43220.187    3814.3986   -47034.586    652.04808   0.99267219 
   50500    271.61723   -454.37065    139032.04   -43296.541    3730.0086   -47026.549     653.6698   0.99147305 
   50600    270.52047   -677.09371    138789.56   -43271.646    3714.9472   -46986.593     654.1997    0.9932052 
   50700    271.25644   -426.84444    138657.45   -43227.576     3725.054    -46952.63    655.98369   0.99415156 
   50800    276.10766   -364.44259    139099.11   -43170.942    3791.6738   -46962.616    658.79024   0.99099499 
   50900    276.87787   -684.87177    139081.92   -43132.759    3802.2508    -46935.01    660.56565   0.99111747 
   51000    266.46249   -526.89161    139172.04    -43224.24    3659.2206   -46883.461    663.33258   0.99047567 
   51100    271.76642   -732.14186    138955.51    -43219.91    3732.0574   -46951.968    663.10027   0.99201905 
   51200    275.31842   -470.09212    138746.05   -43125.648    3780.8355   -46906.483    663.60713   0.99351669 
   51300    278.17801   -491.92704    138637.71    -43031.57    3820.1051   -46851.675    665.20282   0.99429309 
   51400    273.94094   -649.40061    138508.24   -43230.992    3761.9192   -46992.911    666.84438   0.99522249 
   51500    274.25938   -388.92098    138452.78   -43250.566    3766.2922   -47016.858    667.43932   0.99562119 
   51600    272.75912   -458.60682    138597.81   -43267.117    3745.6897   -47012.807    668.94948   0.99457936 
   51700    271.45926   -572.74571    138728.31   -43190.152    3727.8393   -46917.992    670.71631   0.99364373 
   51800     270.1063   -386.28201    138679.36   -43242.772    3709.2596   -46952.031    672.48481   0.99399447 
   51900    270.11348   -451.66438    138708.49   -43250.609    3709.3582   -46959.967     673.9723   0.99378575 
   52000    272.10207   -545.91855    138612.46    -43229.09    3736.6666   -46965.757    674.97963   0.99447419 
   52100    267.68658   -362.57264    138675.37   -43232.841    3676.0306   -46908.871    676.77832   0.99402304 
   52200    271.20756   -496.68817    138930.25   -43270.379    3724.3827   -46994.762    679.80014   0.99219942 
   52300    279.69509   -457.27058     138855.7   -43192.604    3840.9385   -47033.543    680.70171   0.99273216 
   52400    275.44362    -420.8375    139074.65   -43129.456    3782.5548   -46912.011    683.51373   0.99116926 
   52500    271.80979   -598.43376    139086.69   -43156.505    3732.6529   -46889.158    685.41687   0.99108347 
   52600    268.02674   -522.98757    138879.04   -43233.586    3680.7018   -46914.288    685.79814   0.99256527 
   52700    273.66658   -472.30764    138925.44   -43216.379    3758.1514   -46974.531    687.46214   0.99223382 
   52800    268.42422   -351.24441    139009.73   -43363.781    3686.1603   -47049.941    688.47571   0.99163218 
   52900    270.33254   -598.20775    139116.52   -43397.694    3712.3665   -47110.061    690.75386   0.99087097 
   53000    265.98438   -436.92414    139062.93   -43457.967    3652.6549   -47110.622    692.58558   0.99125278 
   53100    267.56762   -486.67206     138955.6   -43454.122    3674.3969   -47128.519    692.03777   0.99201844 
   53200    273.52929   -563.42008    139255.28   -43316.896    3756.2662   -47073.162    693.90605   0.98988362 
   53300    270.42793   -517.20003    139240.93     -43322.8    3713.6764   -47036.477    694.73744    0.9899856 
   53400    273.33972   -546.11188    139046.17   -43227.767    3753.6629    -46981.43    695.34694   0.99137225 
   53500    277.39301   -747.28069    138975.34   -43161.805     3809.325    -46971.13    696.62863   0.99187756 
   53600    279.24006   -449.55161    139036.65   -43186.249    3834.6897   -47020.939     698.7314   0.99144015 
   53700    274.23885   -558.41713    138756.66   -43195.175    3766.0102   -46961.185    699.03403   0.99344074 
   53800    272.31771   -496.98613    138606.65   -43291.275    3739.6279   -47030.903    700.15623   0.99451592 
   53900    268.85302   -674.76619    138706.56   -43333.209    3692.0488   -47025.258    702.59822   0.99379958 
   54000    272.17507   -386.46505    138663.06   -43261.667    3737.6692   -46999.336    704.35719   0.99411134 
   54100    268.18034   -450.95427    138787.37   -43264.042    3682.8111   -46946.853    707.25869   0.99322092 
   54200    277.76429   -280.58321    138908.75    -43178.61    3814.4236   -46993.034    708.28657   0.99235298 
   54300    271.97784   -436.45267    138970.58   -43193.707    3734.9607   -46928.668    709.43277   0.99191151 
   54400    270.85161   -534.45995     138938.9   -43224.057    3719.4946   -46943.552    711.17852   0.99213769 
   54500    274.59949   -568.36645    138883.66   -43224.667    3770.9628    -46995.63    712.28427   0.99253229 
   54600    276.55935   -571.63351    139004.16   -43228.561    3797.8766   -47026.438    713.17974   0.99167185 
   54700    273.50888   -542.40531    138905.62   -43246.537    3755.9858   -47002.523    713.56333   0.99237538 
   54800    275.03558   -267.97094    138820.84   -43274.025    3776.9514   -47050.977    713.48064   0.99298144 
   54900    276.00871      -489.22    138879.39   -43208.784     3790.315   -46999.099    714.72168   0.99256279 
   55000    281.23323   -512.57953    139095.62   -43156.966    3862.0612   -47019.027    716.57996   0.99101981 
   55100    273.12639   -590.99627    138853.59   -43124.327    3750.7333    -46875.06    718.06324   0.99274726 
   55200    277.01797   -527.57548    138863.14   -43196.445    3804.1747    -47000.62    719.08636   0.99267893 
   55300    276.30285   -761.98988    138889.88   -43140.195    3794.3542    -46934.55    720.83182   0.99248787 
   55400    277.09451   -770.63167    139015.27   -43140.711    3805.2259   -46945.937    722.71073    0.9915926 
   55500      273.634   -522.66623    138890.11   -43139.857     3757.704   -46897.561    724.09051   0.99248619 
   55600    276.67268   -312.96514    138652.13   -43115.022    3799.4331   -46914.455    725.00484   0.99418969 
   55700    270.29965   -492.95731    138752.05   -43148.229    3711.9148   -46860.144    726.67556    0.9934737 
   55800     276.5601   -712.47244    139043.37   -43185.075     3797.887   -46982.962    729.53565    0.9913922 
   55900    273.42067   -538.55109    138697.42   -43270.868    3754.7745   -47025.642    729.62492   0.99386503 
   56000    270.28468   -580.57367    138792.55   -43363.527    3711.7092   -47075.236    731.54533   0.99318383 
   56100    277.90522    -341.9179    139014.82   -43271.787    3816.3589   -47088.146    732.22748   0.99159585 
   56200     270.0792   -468.81492    138929.39   -43290.434    3708.8875   -46999.322    733.00016   0.99220559 
   56300    267.29191   -396.31253    138921.57   -43210.452    3670.6107   -46881.062    734.82811   0.99226141 
   56400    275.01073   -673.84998    138986.63   -43164.219    3776.6101   -46940.829    736.01463   0.99179698 
   56500    274.21449   -424.93439    139133.15   -43163.423    3765.6757   -46929.099    736.91785   0.99075251 
   56600    274.68714   -518.45133    139360.04   -43134.847    3772.1663   -46907.013    739.01058   0.98913945 
   56700    280.40962    -613.3872    139405.09   -43153.454    3850.7509   -47004.205    739.84421   0.98881983 
   56800    278.89862   -569.83592    139569.64   -43110.189     3830.001    -46940.19    741.06665   0.98765399 
   56900    274.30883   -564.29571    139547.98   -43174.073    3766.9712   -46941.044    742.64991   0.98780731 
   57000     271.7805   -532.93011     139289.1   -43266.433    3732.2506   -46998.684    743.80705   0.98964324 
   57100    268.86148   -481.98536    139268.37   -43298.152     3692.165   -46990.317    744.81151   0.98979053 
   57200    269.65094   -577.87809    139102.55   -43366.362    3703.0063   -47069.368    745.32124   0.99097045 
   57300      269.238   -486.03689    138992.17   -43379.091    3697.3356   -47076.427    746.07155   0.99175745 
   57400    268.42131   -427.69428    138877.19   -43364.271    3686.1203   -47050.391    745.53182   0.99257852 
   57500    269.10767   -527.73923    139035.23   -43306.258    3695.5458   -47001.804     746.4017   0.99145024 
   57600    271.15436   -613.53413    139096.51   -43349.106    3723.6522   -47072.758    747.85464   0.99101349 
   57700    272.98102   -514.11371    139193.78    -43383.56     3748.737   -47132.297    749.68086   0.99032092 
   57800    278.92301   -494.86718     139030.5   -43246.214    3830.3359    -47076.55    749.25251   0.99148399 
   57900    270.58493   -594.60878    139066.08   -43295.374    3715.8325   -47011.207    750.69438   0.99123036 
   58000    270.38199   -406.05803    139006.58   -43377.954    3713.0455       -47091    752.88386   0.99165461 
   58100    276.49299   -546.28276    138909.03   -43288.651    3796.9655   -47085.616    754.10286   0.99235103 
   58200    273.03566    -517.6501    139085.82   -43339.893    3749.4873    -47089.38    755.32126   0.99108966 
   58300     272.1858   -486.99674    139001.93   -43384.056    3737.8165   -47121.873    756.63124   0.99168779 
   58400    274.49527   -493.08531    139105.91   -43258.531    3769.5315   -47028.062    758.24855   0.99094648 
   58500    273.83104   -343.79261    139006.96   -43194.247    3760.4099   -46954.656    760.07111   0.99165189 
   58600    273.71127    -506.5874    139094.43   -43221.019    3758.7652   -46979.785    762.31717   0.99102829 
   58700    274.24737   -529.85168    139097.68   -43188.474    3766.1272   -46954.601    764.12195   0.99100514 
   58800    276.85996    -625.3699    138962.33   -43197.129    3802.0049   -46999.134    765.85436    0.9919704 
   58900    279.86813   -631.51799    138947.99   -43101.939    3843.3149   -46945.254    766.66542   0.99207276 
   59000    271.22634   -446.61524    138926.36   -43192.974    3724.6407   -46917.615    767.56817   0.99222722 
   59100     275.3501   -589.78805    139157.58   -43201.878    3781.2705   -46983.148    769.72358   0.99057854 
   59200    272.37883    -507.9176    139094.79   -43215.202    3740.4673   -46955.669    770.31769   0.99102576 
   59300     272.2165   -348.17891    139074.46   -43241.527    3738.2381   -46979.765    771.70059   0.99117057 
   59400    274.43016   -322.20891    139286.08   -43188.845    3768.6374   -46957.482     772.6888   0.98966473 
   59500     275.0213   -552.21948    139013.61   -43212.083    3776.7553   -46988.839    772.50767    0.9916045 
   59600    276.42796   -391.19072    139087.84   -43143.939    3796.0724   -46940.011     773.1234   0.99107527 
   59700    278.77478   -371.49169    139454.16   -43169.882    3828.3003   -46998.182    776.77262    0.9884719 
   59800    275.82463   -511.44157    139457.82   -43150.297     3787.787   -46938.084    778.23033   0.98844596 
   59900    271.86558   -460.14306    139520.57   -43251.252     3733.419   -46984.671    779.81729   0.98800137 
   60000    269.58748   -494.70812     139529.9    -43224.89    3702.1348   -46927.025     781.2467   0.98793529 
   60100     274.2266   -619.97097    139606.14   -43202.598     3765.842   -46968.439    783.50215   0.98739583 
   60200    272.23965   -454.49267    139361.77   -43275.724    3738.5561    -47014.28    783.84766   0.98912719 
   60300    267.69115   -448.52105    139111.59   -43243.472    3676.0933   -46919.565    783.87588   0.99090604 
   60400    273.52765   -460.83206    139136.64   -43220.075    3756.2436   -46976.318    784.55589   0.99072767 
   60500     272.4158    -666.3272    139110.88   -43338.145     3740.975    -47079.12    785.54452   0.99091112 
   60600    268.70977   -401.96957    139138.91   -43310.244    3690.0815   -47000.325    787.04348   0.99071146 
   60700    273.82448   -447.68644    139133.24   -43279.456    3760.3199   -47039.776    789.36109   0.99075188 
   60800    272.05605   -601.43281    139246.92   -43257.334    3736.0347   -46993.369    790.46947     0.989943 
   60900    274.32134   -397.67489     139175.3   -43226.937     3767.143    -46994.08    790.63101   0.99045242 
   61000    278.02648   -391.14631     139195.8   -43170.777    3818.0242   -46988.802    792.24234   0.99030655 
   61100    274.40413   -290.23826    139434.97   -43092.365    3768.2799   -46860.645    794.00196   0.98860791 
   61200    273.65402   -442.36315    139372.04   -43134.252    3757.9789   -46892.231    795.47654   0.98905432 
   61300    276.50003   -516.51638    139400.26   -43113.373    3797.0621   -46910.435    795.92746   0.98885412 
   61400    280.31535   -623.63913    139629.38   -42989.575    3849.4564   -46839.031    798.85651   0.98723146 
   61500    277.20661   -420.06915    139387.43   -43036.185    3806.7652    -46842.95    799.18224   0.98894509 
   61600    277.01057    -492.0398     139386.4   -43090.844    3804.0731   -46894.917    801.06407   0.98895242 
   61700    274.46786   -588.29131    139505.52   -43135.584    3769.1551   -46904.739      801.935   0.98810794 
   61800    273.84506   -764.81441     139119.7   -43199.695    3760.6025   -46960.298    801.12187   0.99084826 
   61900     281.5406   -399.21395    139141.03   -43090.738    3866.2822   -46957.021    802.45034   0.99069641 
   62000    279.19813   -536.74737    139120.59   -43216.816     3834.114    -47050.93    803.52146   0.99084197 
   62100    279.15174   -370.46153     139199.3   -43208.724    3833.4769   -47042.201    804.73726   0.99028166 
   62200    269.65633   -410.20829    139182.95   -43286.161    3703.0803   -46989.241    806.12952   0.99039803 
   62300    270.99277   -437.84058    139192.66   -43252.019    3721.4331   -46973.452    807.20096   0.99032894 
   62400    274.38092   -531.75096     139156.5   -43329.517    3767.9612   -47097.478    809.50374   0.99058624 
   62500    274.56586    -690.8822    139178.77   -43320.114    3770.5009   -47090.615    811.03934   0.99042775 
   62600    274.38632    -510.4654    138839.59   -43262.936    3768.0354   -47030.971    810.62094   0.99284736 
   62700    270.06535   -436.84333     139046.3   -43248.858    3708.6972   -46957.555    812.92579   0.99137134 
   62800    270.78095   -664.26351    139056.37   -43267.581    3718.5243   -46986.105    813.78972   0.99129951 
   62900    272.46428   -534.39532     139096.6   -43223.769    3741.6408   -46965.409    815.45983   0.99101283 
   63000    271.42267   -467.89385    139144.66   -43233.856    3727.3368   -46961.193    816.94369   0.99067055 
   63100    273.74877   -561.50073    138807.49   -43217.628    3759.2802   -46976.908    816.74382   0.99307693 
   63200    272.67611   -441.28659    138811.95   -43226.322    3744.5498   -46970.872    818.26995   0.99304504 
   63300     265.9891   -420.29971    138632.99   -43300.385    3652.7198   -46953.104    819.38146   0.99432691 
   63400    272.09094    -641.4502    138917.58   -43350.342    3736.5139   -47086.856    821.66547   0.99228995 
   63500    269.64319   -347.43331    139226.78   -43257.428    3702.8999   -46960.327    824.16557   0.99008621 
   63600    269.19044   -397.68603     139234.2   -43238.966    3696.6824   -46935.648    825.05076   0.99003346 
   63700    273.05705   -586.99808    139071.53   -43284.304    3749.7811   -47034.085    825.25079   0.99119146 
   63800    270.85781   -550.04783    139068.86   -43265.409    3719.5797   -46984.988    826.54961   0.99121051 
   63900    271.21904   -483.93036    139285.57    -43234.35    3724.5404    -46958.89    828.62944   0.98966829 
   64000     268.8502   -290.59898    139310.32   -43334.352    3692.0101   -47026.362     829.9121    0.9894925 
   64100    275.61154   -638.99382    139166.38   -43344.162    3784.8609   -47129.023    829.36965   0.99051595 
   64200    271.03177   -592.86985    138895.56   -43358.545    3721.9687   -47080.513    829.10524   0.99244724 
   64300    270.46725   -679.86708    138789.82   -43422.664    3714.2164   -47136.881    829.09099   0.99320338 
   64400    266.48203   -568.05324    138805.02   -43395.661    3659.4889    -47055.15    830.81103   0.99309461 
   64500    271.00695   -412.73253    138818.93   -43434.873    3721.6278   -47156.501    832.73034   0.99299509 
   64600    270.97635   -335.66876    139047.91   -43333.955    3721.2077   -47055.163    834.11921   0.99135989 
   64700    271.84063   -309.22387    138911.62   -43240.522    3733.0765   -46973.599    834.53695   0.99233252 
   64800    279.94389   -308.93185    139375.61    -43156.57    3844.3552   -47000.925    837.03438   0.98902896 
   64900    275.09936   -531.49845    139318.82    -43203.95    3777.8272   -46981.777    837.97629   0.98943213 
   65000    278.08918   -516.34798    139135.29   -43208.849    3818.8852   -47027.734    837.42015   0.99073727 
   65100    271.52863   -378.23039    139092.69   -43305.993    3728.7919   -47034.784    838.77387   0.99104069 
   65200    271.21071   -546.96235    139481.59    -43273.24     3724.426   -46997.666    842.58101   0.98827752 
   65300    272.15669    -399.8536    139166.03   -43301.245    3737.4167   -47038.662     842.1975   0.99051844 
   65400    271.81918   -563.31944    139283.85   -43298.181    3732.7819   -47030.963    843.58733   0.98968057 
   65500     277.2055   -274.09962    139058.01   -43217.832      3806.75   -47024.582    844.17264   0.99128784 
   65600    276.73462   -449.98599    139026.39   -43182.403    3800.2835   -46982.686    846.13763    0.9915133 
   65700    271.94345   -500.13173    138987.05   -43161.078    3734.4884   -46895.566    848.30995   0.99179395 
   65800    268.40141   -500.82632    139065.09   -43230.983     3685.847    -46916.83     849.1725   0.99123741 
   65900    273.16108   -445.13548    139217.96   -43178.164    3751.2097   -46929.373    851.65006   0.99014897 
   66000    274.17615   -557.53116    139255.34   -43194.996    3765.1492   -46960.146    853.84829   0.98988313 
   66100    274.64903   -576.37633    139356.39   -43164.335     3771.643   -46935.978    855.19396   0.98916537 
   66200    274.88813   -462.04944    139360.47    -43136.41    3774.9265   -46911.337    857.18126   0.98913644 
   66300    271.06416   -478.43977     139122.7   -43133.314    3722.4135   -46855.727    858.57467   0.99082691 
[...]
   84600     273.8896   -632.09433    138863.85    -43241.56    3761.2141   -47002.774    1103.7689   0.99267387 
   84700    272.26012   -455.90547    138594.74   -43280.791    3738.8371   -47019.628    1104.8256   0.99460138 
   84800    275.37816   -579.65033    138776.06   -43248.222    3781.6559   -47029.878    1107.2605   0.99330183 
   84900    276.06151    -346.1106    138905.94   -43176.091    3791.0401   -46967.131    1109.6761   0.99237308 
   85000    272.02159   -686.42698    139128.69   -43157.552    3735.5615   -46893.114    1113.2095   0.99078428 
   85100    271.25395   -614.24611    138862.58    -43159.49    3725.0199    -46884.51    1113.4904   0.99268298 
   85200    274.53699   -388.02565    138812.26   -43176.639    3770.1044   -46946.743    1113.6085   0.99304282 
   85300      280.286   -497.55895    138820.83   -43180.675    3849.0532   -47029.728    1115.2668   0.99298154 
   85400    273.65766    -562.2037    138677.95   -43184.272     3758.029   -46942.301    1116.3367   0.99400457 
   85500    272.57661    -520.0436    138712.31   -43231.487    3743.1834   -46974.671    1118.6753   0.99375834 
   85600    275.55538   -513.74321    138534.72   -43188.131    3784.0896   -46972.221    1117.9544   0.99503225 
   85700    276.48508   -608.45427    138573.18   -43213.462    3796.8567   -47010.319    1118.6736   0.99475608 
   85800    273.97579   -434.05303    138722.17   -43257.177    3762.3977   -47019.575    1120.4421   0.99368774 
   85900    275.83584   -492.15157    139082.18   -43273.286     3787.941   -47061.227    1122.9132   0.99111556 
   86000    271.07321   -488.52433    139196.12   -43255.992    3722.5377    -46978.53    1124.0309   0.99030433 
   86100    269.70047     -564.924    138843.47   -43247.854    3703.6865   -46951.541     1122.911   0.99281962 
   86200     271.4594   -779.43297    138777.73   -43238.876    3727.8412   -46966.717    1124.2658   0.99328989 
   86300     274.2673   -467.54347    138811.19    -43245.59    3766.4009   -47011.991    1124.6148   0.99305049 
   86400    279.08644   -670.84648    138799.51   -43200.758    3832.5802   -47033.338    1125.8502   0.99313406 
   86500    278.88076   -606.41787    138761.23    -43210.56    3829.7557   -47040.316     1127.017   0.99340803 
   86600    274.59697   -556.11969    138959.05   -43215.627    3770.9281   -46986.555    1129.9758   0.99199381 
   86700    274.79304   -590.03197    138986.94   -43232.429    3773.6207    -47006.05    1131.8054   0.99179476 
   86800      276.824   -360.80579    139042.05   -43184.748     3801.511   -46986.259    1132.8584   0.99140167 
   86900    274.88095    -309.1153     139139.7   -43215.593    3774.8279   -46990.421    1134.7078   0.99070584 
   87000    273.96381   -655.82378    139213.96   -43232.242    3762.2331   -46994.475     1135.704   0.99017741 
   87100    273.68487   -441.84895    139028.99   -43281.075    3758.4026   -47039.478    1136.1513   0.99149479 
   87200    272.88155   -581.82739    138930.55   -43291.106     3747.371   -47038.477     1138.441   0.99219729 
   87300    276.81199    -550.7764    138876.55   -43154.267    3801.3461   -46955.613     1138.769   0.99258313 
   87400    274.81806   -488.56193    139021.91   -43148.741    3773.9642   -46922.705    1141.5281   0.99154525 
   87500    273.58834   -444.94807    138832.12   -43228.883     3757.077    -46985.96    1141.6053   0.99290073 
   87600    274.72139   -430.18572    138975.67   -43212.066    3772.6367   -46984.703     1143.565   0.99187514 
   87700    274.06942   -686.20631    139120.02   -43213.612    3763.6834   -46977.296    1145.3115   0.99084599 
   87800    275.44442   -432.92392    139013.67   -43089.924    3782.5658    -46872.49    1145.9362   0.99160402 
   87900    277.81418    -510.9024    139221.48   -43122.043    3815.1087   -46937.151    1148.6487   0.99012389 
   88000    276.10635   -667.28285     139120.9   -43138.705    3791.6558    -46930.36    1150.1533   0.99083972 
   88100     278.3066   -650.24935     139066.3   -43188.974     3821.871   -47010.845    1151.6276   0.99122878 
   88200    278.62816    -582.3713    139092.08   -43118.849    3826.2869   -46945.136    1153.1489   0.99104503 
   88300    276.38494   -430.00356     139135.7   -43138.931    3795.4816   -46934.412    1153.7878   0.99073436 
   88400    273.47631    -361.3772    139137.76   -43192.188    3755.5386   -46947.726    1155.6364   0.99071968 
   88500    274.16696   -489.12633    139176.83   -43248.759    3765.0229   -47013.782    1157.7885    0.9904416 
   88600    269.08275   -564.31821    139267.49    -43245.57    3695.2036   -46940.773    1158.9257   0.98979681 
   88700    271.78484   -405.55216    139326.35   -43260.255    3732.3103   -46992.566    1160.3689   0.98937868 
   88800    277.92413   -574.43698    139473.47   -43241.054    3816.6187   -47057.673    1162.5145   0.98833502 
   88900    275.12738   -542.84406    139407.24   -43286.102    3778.2121   -47064.314     1162.614   0.98880458 
   89000    272.00485   -543.67448    139152.99   -43266.006    3735.3317   -47001.337    1162.5445   0.99061126 
   89100    278.18184   -629.86347    139143.97   -43219.686    3820.1577   -47039.844    1163.2739   0.99067545 
   89200    268.11312   -442.56719    139129.34   -43290.094    3681.8881   -46971.982    1165.5953   0.99077967 
   89300    269.20425   -763.80026    139006.32   -43305.179    3696.8722   -47002.051    1165.7047   0.99165647 
   89400     274.1791   -418.81479    138949.24   -43198.235    3765.1897   -46963.425    1166.4445   0.99206387 
   89500    271.28365   -605.10595    139091.25   -43290.145    3725.4277   -47015.573    1168.0398   0.99105092 
   89600    273.07952   -458.32409     138881.2   -43239.032    3750.0895   -46989.121    1166.9835    0.9925499 
   89700    277.50689   -464.59926    138611.41   -43238.403    3810.8888   -47049.292    1166.0296   0.99448175 
   89800    271.20474   -146.23508    138897.97   -43267.508     3724.344   -46991.852    1168.8286   0.99243005 
   89900    274.02866   -615.37841    138879.39   -43249.258    3763.1237   -47012.381    1170.8124   0.99256278 
   90000    276.33158   -442.96325    138806.94   -43263.792    3794.7488   -47058.541    1171.2135   0.99308086 
   90100    270.02332   -542.90178    139107.83   -43194.917      3708.12   -46903.037    1174.9963   0.99093286 
   90200    269.57609    -425.2771    139157.09   -43292.514    3701.9784   -46994.492    1178.0581   0.99058204 
   90300    267.36248   -553.39153     139016.5   -43345.426    3671.5798   -47017.006    1178.7001   0.99158388 
   90400     272.9293    -609.3541    138881.68   -43244.281    3748.0266   -46992.307     1180.386   0.99254641 
   90500    275.98161   -482.81331    139032.69   -43188.308    3789.9428   -46978.251    1182.3525   0.99146842 
   90600    279.82174    -548.3046    139004.92     -43233.4    3842.6777   -47076.078    1181.9552   0.99166646 
   90700    272.49744   -406.78207    139021.43   -43256.183    3742.0962    -46998.28    1183.0346   0.99154868 
   90800    271.92002   -525.64421    139487.31   -43190.876    3734.1667   -46925.042    1187.7618   0.98823699 
   90900    266.22109   -601.25171    139468.27   -43246.348    3655.9055   -46902.254    1189.7031   0.98837189 
   91000      268.352   -661.64446    139028.21   -43211.588    3685.1685   -46896.756    1188.6893   0.99150037 
   91100    277.59277   -402.36706    139143.93   -43130.904    3812.0682   -46942.973    1190.1449   0.99067578 
   91200    277.10578    -658.3332    139053.28   -43187.124    3805.3806   -46992.504    1190.5764   0.99132158 
   91300    273.64583   -614.28866    138996.61   -43231.679    3757.8665   -46989.546    1191.7787   0.99172577 
   91400    272.20435   -560.37567    139139.77   -43300.693    3738.0713   -47038.764    1193.0537   0.99070533 
   91500    274.97733   -390.00605     139146.3   -43282.047    3776.1514   -47058.199    1194.5383    0.9906589 
   91600    265.82723   -548.00868    139275.02   -43279.045    3650.4969   -46929.542      1197.08   0.98974331 
   91700    275.87807   -628.85476     138975.2   -43281.899    3788.5209    -47070.42    1196.5439   0.99187853 
   91800    268.55206   -373.70813    138877.47    -43375.87    3687.9159   -47063.786    1197.3269   0.99257651 
   91900    266.57421   -450.25245    138926.83   -43330.508    3660.7549   -46991.263     1198.383   0.99222389 
   92000    269.95271   -466.42661    138869.75   -43278.619    3707.1504    -46985.77    1199.4233    0.9926317 
   92100    274.43713   -655.08265    138845.15   -43227.515    3768.7332   -46996.248    1200.8466   0.99280755 
   92200    277.99623   -512.54049    139053.44   -43143.048    3817.6088   -46960.656    1202.9412   0.99132046 
   92300     274.6291   -653.89136    138868.56   -43172.151    3771.3693    -46943.52     1202.171   0.99264025 
   92400    273.45022   -404.03947     139051.4   -43211.545    3755.1803   -46966.725    1204.6824   0.99133497 
   92500    275.11228   -493.49751    139153.95   -43153.848    3778.0047   -46931.853    1206.3114    0.9906044 
   92600     274.4934   -607.78856    139167.45   -43182.485    3769.5059    -46951.99    1206.7388    0.9905083 
   92700     267.6321   -484.49164    139330.14   -43207.071    3675.2824   -46882.353     1208.345   0.98935176 
   92800    273.74139   -429.11939    139096.65   -43174.752    3759.1787   -46933.931    1209.3961   0.99101249 
   92900    275.37132   -650.63911    139109.18   -43174.095    3781.5619   -46955.657    1210.2053   0.99092322 
   93000    273.27756    -542.5277    138816.61   -43146.033    3752.8092   -46898.842    1210.9662   0.99301169 
   93100     272.9947   -514.66826    138678.11   -43202.149    3748.9248   -46951.073    1211.5685    0.9940034 
   93200    276.04692   -476.36168    138905.61   -43144.939    3790.8397   -46935.779    1214.3272   0.99237547 
   93300    280.31317   -430.57183     139599.1   -43039.878    3849.4264   -46889.304    1220.0069   0.98744562 
   93400     275.6424   -548.78955    139375.54   -43166.551    3785.2846   -46951.835    1219.1837   0.98902944 
   93500    267.52864   -395.52305    139346.56    -43224.39    3673.8617   -46898.252    1219.8823   0.98923515 
   93600    269.08394   -552.96935    139201.91   -43271.271    3695.2199   -46966.491    1221.5015    0.9902631 
   93700      270.051   -512.49287    139140.57   -43227.277    3708.5001   -46935.777    1222.0827   0.99069969 
   93800    278.51663    -463.0681    139130.07   -43120.525    3824.7552    -46945.28    1222.8105   0.99077444 
   93900    273.90434   -909.48448    139087.82   -43265.353    3761.4165   -47026.769    1221.6423   0.99107543 
   94000    275.48474   -533.44094    138900.04   -43271.002    3783.1195   -47054.121    1222.8073   0.99241521 
   94100    267.27396   -353.56606    138690.97    -43354.17    3670.3643   -47024.535    1224.0966   0.99391128 
   94200    263.47878   -426.33559     138687.1   -43345.837    3618.2466   -46964.083    1226.7427   0.99393899 
   94300    271.11169   -381.96324    138901.42   -43252.871    3723.0663   -46975.938    1229.5005   0.99240537 
   94400    274.66969   -525.87018    138766.81   -43239.721    3771.9267   -47011.648     1229.183   0.99336809 
   94500    276.38753    -370.5542    138874.86   -43250.777    3795.5172   -47046.295    1231.5521   0.99259516 
   94600     269.5629   -502.12202    138957.61   -43346.585    3701.7973   -47048.383    1233.7774    0.9920041 
   94700    266.94566   -665.32285     139168.7   -43224.962    3665.8558   -46890.818    1237.9049    0.9904994 
   94800    273.92678   -489.73006    138894.11    -43184.85    3761.7247   -46946.574    1239.1285   0.99245763 
   94900    275.90824   -478.82611    139279.59   -43125.115    3788.9353    -46914.05    1242.6681    0.9897108 
   95000    273.51686   -676.44438    139076.79    -43175.54    3756.0954   -46931.635    1241.7005   0.99115398 
   95100    278.15185   -425.67548    139128.28   -43151.511    3819.7459   -46971.256    1243.8121   0.99078721 
   95200    280.53147   -296.81114    139331.98    -43159.94    3852.4242   -47012.364      1246.55   0.98933864 
   95300    275.65801   -459.07638    139495.54   -43221.505    3785.4989   -47007.004    1249.3252   0.98817866 
   95400    272.35318   -633.75171    139295.94   -43230.804    3740.1151   -46970.919    1248.5853   0.98959468 
   95500    275.85896    -307.5772     139544.1   -43226.308    3788.2585   -47014.566    1250.8123   0.98783482 
   95600    269.94393    -635.7244    139287.07   -43352.902    3707.0298   -47059.932    1250.6109   0.98965769 
   95700    269.07537   -529.80319    139346.42   -43257.002    3695.1022   -46952.104    1251.4655   0.98923613 
   95800    274.92572   -824.90545    139117.98   -43240.091    3775.4427   -47015.533    1250.5495   0.99086057 
   95900    274.33695   -597.58267    139117.77   -43245.544    3767.3574   -47012.902    1251.2478   0.99086207 
   96000    279.85187   -482.71571    139059.47   -43194.448    3843.0915    -47037.54    1251.0389   0.99127748 
   96100    274.21813   -499.53531    138965.54   -43223.386    3765.7256   -46989.111    1252.9709   0.99194745 
   96200    275.71909   -530.61301    139121.33   -43229.728    3786.3378   -47016.066     1254.874   0.99083666 
   96300    275.97721   -569.27773    139088.67   -43214.367    3789.8824   -47004.249     1256.191   0.99106932 
   96400    272.30045   -306.88512    139122.48    -43275.45     3739.391   -47014.841    1258.3752    0.9908285 
   96500    272.27075   -501.14034    138969.35    -43246.15     3738.983   -46985.133    1258.8121   0.99192025 
   96600     273.5877   -527.74142    139033.28   -43186.981    3757.0683    -46944.05    1262.0495   0.99146417 
   96700    278.77079   -485.14575    139262.88   -43146.224    3828.2455    -46974.47    1265.1738   0.98982955 
   96800    278.58783   -194.11797    139297.56    -43139.27    3825.7329   -46965.003    1266.5571   0.98958311 
   96900    270.96473    -423.3674    139579.36   -43183.071     3721.048   -46904.119    1269.7674   0.98758527 
   97000    270.98359   -600.38038     139442.7   -43204.266    3721.3071   -46925.573    1269.6419    0.9885531 
   97100    274.31431   -666.70569    139032.26   -43181.067    3767.0465   -46948.113    1267.7919   0.99147144 
   97200    272.37774   -336.39191    139017.97   -43176.226    3740.4524   -46916.678    1270.1032   0.99157339 
   97300    269.91914   -393.79216     139182.9   -43214.699    3706.6894   -46921.389    1273.7757   0.99039833 
   97400    276.30577   -567.61348    139157.55   -43229.846    3794.3944    -47024.24    1274.3875   0.99057878 
   97500    276.66574   -452.11494    139119.15   -43250.359    3799.3377   -47049.697    1275.5587   0.99085224 
   97600    273.22899   -643.81332    139104.86   -43258.715    3752.1422   -47010.857    1277.8996   0.99095398 
   97700    270.66943   -546.06239     138870.3   -43309.842    3716.9928   -47026.834    1278.3432   0.99262775 
   97800    271.36261   -534.73475     139071.7   -43256.348     3726.512    -46982.86    1280.4282   0.99119026 
   97900    272.88889   -346.62353    139180.63   -43178.105    3747.4718   -46925.576    1282.1705    0.9904145 
   98000    279.62941    -339.8087    139242.82   -43112.418    3840.0365   -46952.455    1284.8571   0.98997216 
   98100    266.55789   -550.68117    139460.82   -43196.193    3660.5307   -46856.723    1287.7712   0.98842468 
   98200     278.7306   -670.16509    139215.12   -43129.537    3827.6936    -46957.23    1287.4541   0.99016917 
   98300    279.13581   -617.34228    139167.22   -43091.771    3833.2582   -46925.029     1288.249   0.99050999 
   98400     279.9819   -555.38698    139097.79    -43078.41    3844.8771   -46923.287    1289.8955   0.99100437 
   98500    271.91544    -428.9215    139044.39    -43199.41    3734.1038   -46933.514    1290.9804   0.99138498 
   98600    276.86001   -479.84356    139125.32   -43149.846    3802.0055   -46951.852    1291.5954   0.99080823 
   98700    272.72617   -377.70081     139325.7   -43198.934    3745.2372   -46944.171    1294.1581   0.98938325 
   98800     270.3482   -532.78597    139154.27   -43179.921    3712.5815   -46892.502     1294.597    0.9906021 
   98900    276.37405   -667.56628    139082.76   -43162.712    3795.3321   -46958.045    1295.3617   0.99111149 
   99000     278.1038   -523.57647    139073.87   -43087.176     3819.086   -46906.262    1295.4445   0.99117482 
   99100    277.35117   -515.86826    139119.93    -43161.46    3808.7504    -46970.21    1297.7182   0.99084667 
   99200    277.45992   -526.31609    139101.46   -43150.542    3810.2439   -46960.786    1298.6014   0.99097822 
   99300    270.30916    -339.4572    139003.88   -43160.069    3712.0454   -46872.115    1298.2131   0.99167389 
   99400    279.09069   -470.92155    139258.14   -43109.619    3832.6385   -46942.258    1300.7573   0.98986324 
   99500    275.30993   -602.51464    139293.37   -43188.077    3780.7189   -46968.796    1303.4052   0.98961288 
   99600    274.49009   -450.25473    139162.08   -43229.888    3769.4604   -46999.348    1304.1346   0.99054657 
   99700    274.48784   -682.99461     138916.3    -43199.58    3769.4295   -46969.009    1303.7078   0.99229905 
   99800    277.25032   -566.82217    139000.17   -43253.175    3807.3655   -47060.541    1304.4241   0.99170036 
   99900    270.93979   -420.48814    138949.98   -43224.012    3720.7055   -46944.718    1304.4242   0.99205853 
  100000    269.47144   -331.19087    138887.05   -43229.315    3700.5413   -46929.856    1305.5072   0.99250806 
  100100    277.48647   -468.14823    139050.76   -43212.408    3810.6084   -47023.017      1306.42   0.99133958 
  100200     274.0024    -366.3505    139120.38   -43208.331    3762.7631   -46971.094    1309.1965   0.99084342 
  100300    270.55712   -527.61531    139104.25   -43236.797    3715.4506   -46952.247    1310.4003   0.99095835 
  100400    271.96626   -634.55576    139143.82   -43226.144    3734.8016   -46960.945    1312.4074   0.99067655 
  100500    273.26607   -527.53381    139358.39   -43252.567    3752.6515   -47005.219    1314.7774   0.98915116 
  100600    272.49195   -743.09638    139186.27   -43289.008    3742.0207   -47031.029    1314.6213   0.99037437 
  100679    272.74497   -600.01394     138984.4   -43218.385    3745.4953   -46963.881    1314.3689   0.99181288 
Loop time of 181.554 on 6 procs for 100000 steps with 4608 atoms

Performance: 237.945 ns/day, 0.101 hours/ns, 550.799 timesteps/s
99.3% CPU use with 6 MPI tasks x no OpenMP threads

MPI task timing breakdown:
Section |  min time  |  avg time  |  max time  |%varavg| %total
---------------------------------------------------------------
Pair    | 160.82     | 161.76     | 162.75     |   5.1 | 89.10
Neigh   | 7.4697     | 7.5834     | 7.8152     |   4.3 |  4.18
Comm    | 8.32       | 9.4479     | 10.506     |  22.9 |  5.20
Output  | 0.17297    | 0.17384    | 0.17741    |   0.4 |  0.10
Modify  | 1.8473     | 1.9394     | 2.0086     |   3.5 |  1.07
Other   |            | 0.6481     |            |       |  0.36

Nlocal:        768.000 ave         783 max         758 min
Histogram: 2 0 0 0 2 1 0 0 0 1
Nghost:        1685.00 ave        1700 max        1666 min
Histogram: 1 0 0 1 1 0 0 1 1 1
Neighs:        0.00000 ave           0 max           0 min
Histogram: 6 0 0 0 0 0 0 0 0 0
FullNghs:      25583.7 ave       26131 max       25108 min
Histogram: 2 0 0 0 1 1 0 1 0 1

Total # of neighbors = 153502
Ave neighs/atom = 33.312066
Neighbor list builds = 7071
Dangerous builds = 0

undump              1
unfix               2
unfix               3
unfix               4


################################################
#######         Run Simulation         #########
################################################

reset_timestep      0
log                 log.run_${NAME}
log                 log.run_liq_274K_-500atm_mW
