
# Set production fixes - Nose/Hoover
#
fix                 2 all nph iso ${PRES} ${PRES} ${PCOUPL}
fix                 2 all nph iso -500 ${PRES} ${PCOUPL}
fix                 2 all nph iso -500 -500 ${PCOUPL}
fix                 2 all nph iso -500 -500 10000.0
fix                 3 all temp/csvr ${TEMP} ${TEMP} ${TCOUPL} 837492
fix                 3 all temp/csvr 274 ${TEMP} ${TCOUPL} 837492
fix                 3 all temp/csvr 274 274 ${TCOUPL} 837492
fix                 3 all temp/csvr 274 274 5000.0 837492

# Define Order parameter
#
compute             2 all orientorder/atom nnn NULL cutoff 3.5
thermo              200
thermo_style        custom step temp press vol etotal ke pe c_1[4]

# Run 1ns simulation
dump		    1 all custom 400 prod.${NAME}.dump id type x y z vx vy vz c_2[*]
dump		    1 all custom 400 prod.ice_274K_-500atm_mW.dump id type x y z vx vy vz c_2[*]
run                 200000
Neighbor list info ...
  update every 1 steps, delay 0 steps, check yes
  max neighbors/atom: 2000, page size: 100000
  master list distance cutoff = 6.3065
  ghost atom cutoff = 6.3065
  binsize = 3.15325, bins = 18 16 16
  2 neighbor lists, perpetual/occasional/extra = 1 1 0
  (1) pair sw, perpetual
      attributes: full, newton on
      pair build: full/bin/atomonly
      stencil: full/bin/3d
      bin: standard
  (2) compute orientorder/atom, occasional, copy from (1)
      attributes: full, newton on
      pair build: copy
      stencil: none
      bin: none
Per MPI rank memory allocation (min/avg/max) = 5.838 | 5.839 | 5.841 Mbytes
Step Temp Press Volume TotEng KinEng PotEng c_1[4] 
       0    271.45834   -498.44369    141826.83   -49055.965    3727.8265   -52783.792   0.31476057 
     200    278.04666   -526.35999    141819.29   -49047.105    3818.3012   -52865.407   0.31769075 
     400    275.71313   -499.53802    141777.39   -49041.154    3786.2559   -52827.409   0.32368771 
     600    273.39342   -494.31069    141718.53   -49076.483    3754.4002   -52830.883   0.31520599 
     800    273.57223   -465.40511    141735.72    -49089.75    3756.8558   -52846.606   0.32894887 
    1000    271.17195   -516.55604    141791.74   -49102.158    3723.8937   -52826.052   0.31888548 
    1200    271.02307   -529.20065    141819.47   -49125.662    3721.8493   -52847.511   0.31120326 
    1400     269.7546   -459.43314    141773.07    -49116.79    3704.4299    -52821.22   0.32832259 
    1600    270.48273   -486.84663    141760.67   -49120.622     3714.429   -52835.051   0.31869248 
    1800    272.24332   -500.89844    141794.69   -49127.148    3738.6064   -52865.755   0.30821612 
    2000    275.53211   -489.02468    141827.68   -49084.227      3783.77   -52867.997   0.31998122 
    2200    271.71534   -577.38826    141840.82   -49054.654    3731.3559    -52786.01   0.31973295 
    2400     275.8339   -527.12543    141810.73   -49072.347    3787.9143   -52860.261   0.32468003 
    2600    271.45253   -447.44609    141735.68   -49114.414    3727.7469   -52842.161   0.31845848 
    2800    268.48779   -472.30631    141691.26   -49130.025    3687.0333   -52817.059   0.32391285 
    3000     272.5542   -501.78728    141736.07    -49141.12    3742.8755   -52883.995    0.3211771 
    3200    270.34977   -527.18187    141827.35   -49088.476    3712.6031   -52801.079   0.31991441 
    3400    274.75667   -548.01649    141849.41   -49126.155    3773.1212   -52899.276   0.31903925 
    3600    270.02769   -484.01041    141734.25   -49153.447    3708.1801   -52861.627   0.31474022 
    3800    270.78447    -441.0518    141637.96   -49084.505    3718.5726   -52803.078   0.34499282 
    4000    276.37374   -443.22858    141741.43   -49077.613    3795.3277    -52872.94   0.31930652 
    4200    271.44467   -602.49333    141925.45   -49092.086    3727.6389   -52819.725   0.30846294 
    4400    271.91896   -582.85003    141857.97   -49079.642    3734.1521   -52813.794   0.33199917 
    4600    271.88255   -452.03849    141622.31   -49061.833    3733.6521   -52795.486   0.33097341 
    4800    271.94258   -435.89913    141620.34   -49053.205    3734.4765   -52787.681   0.33254913 
    5000    275.05888   -570.65538     141921.7   -49031.455    3777.2714   -52808.727   0.32844283 
    5200    275.17533   -619.43766    142048.53   -49031.882    3778.8706   -52810.753   0.30571039 
    5400    271.29125   -467.58139    141822.02   -48995.775    3725.5321   -52721.307    0.3260937 
    5600    280.77946   -390.06138    141621.04   -48982.971    3855.8298   -52838.801   0.34111058 
    5800    276.76253   -459.79395    141788.44   -48971.281    3800.6669   -52771.948   0.32653335 
    6000    276.92608   -652.57302    142095.36   -48956.181    3802.9128   -52759.094    0.3042114 
    6200     275.4304   -635.14366     142018.6   -48949.973    3782.3732   -52732.346   0.32228097 
    6400    277.06195   -376.72276    141633.24   -48922.522    3804.7787   -52727.301   0.34383163 
    6600    279.42242    -361.7335    141606.07   -48961.336    3837.1941    -52798.53   0.32061429 
    6800    277.14698   -595.12363    142008.57   -48996.446    3805.9464   -52802.392   0.32217498 
    7000     271.4858   -656.86385    142150.18   -48996.858    3728.2037   -52725.062   0.31238671 
    7200    278.89376   -444.34276    141778.86   -48951.449    3829.9342   -52781.383    0.3049939 
    7400    280.21606   -315.82336     141509.3   -48938.888    3848.0927   -52786.981   0.34538824 
    7600    274.71554   -452.86044    141845.39   -48970.414    3772.5564   -52742.971   0.32354362 
    7800    273.39022   -754.48035    142288.24    -48993.37    3754.3563   -52747.726    0.2931878 
    8000    275.56614   -639.41743    142121.95    -48963.82    3784.2374   -52748.058   0.31415175 
    8200    271.25391   -328.11787     141584.1    -49001.11    3725.0192   -52726.129    0.3326274 
    8400    274.07861   -275.97912     141505.8   -49027.691    3763.8098   -52791.501   0.32260617 
    8600    271.85696   -601.10038    142058.29   -48986.339    3733.3007   -52719.639    0.3088058 
    8800     278.5936   -725.25493    142376.05   -48917.204    3825.8121   -52743.016   0.30267261 
    9000     278.9671   -510.55906    141940.34   -48900.855    3830.9413   -52731.797   0.31370059 
    9200    282.64941   -244.22799    141451.17   -48890.756    3881.5089   -52772.265   0.34229772 
    9400    276.21323    -354.5936    141685.19   -48935.697    3793.1236   -52728.821    0.3372222 
    9600    279.51198   -710.81092    142232.52   -48921.075     3838.424   -52759.499   0.28896941 
    9800    276.18402   -674.03976    142159.52    -48935.97    3792.7224   -52728.692   0.30976485 
   10000    278.36148   -348.24757    141568.18   -48935.206    3822.6246   -52757.831   0.35012493 
   10200    280.66879   -232.63462    141394.82   -48929.322      3854.31   -52783.632    0.3286394 
   10400     281.1133    -549.9474    141957.85   -48914.129    3860.4142   -52774.543    0.3197516 
   10600    274.99209   -791.45731     142380.5   -48891.489    3776.3541   -52667.843   0.30098578 
   10800    281.42095   -551.06794    141940.17   -48924.643     3864.639   -52789.282   0.30638088 
   11000    276.14618   -249.48608    141308.96   -48967.525    3792.2028   -52759.727   0.35097156 
   11200    278.26335    -329.5643    141511.65   -48984.007     3821.277   -52805.284   0.34562087 
   11400    273.37825    -667.5226    142190.26   -49003.596     3754.192   -52757.788   0.30085106 
   11600     271.9942   -768.00378    142250.94    -48975.03    3735.1853   -52710.215   0.29885218 
   11800    274.34076   -426.09653    141651.57   -49049.586    3767.4097   -52816.995   0.34527652 
   12000    275.43415   -263.52844    141395.11   -49053.211    3782.4248   -52835.636   0.33562278 
   12200    273.95577    -473.8141     141845.5   -49030.597    3762.1228    -52792.72   0.31460823 
   12400     273.6988    -710.2966    142253.44   -48996.071    3758.5939   -52754.665   0.30958212 
   12600    275.28754    -568.6307    141998.73   -49008.293    3780.4114   -52788.705   0.29400457 
   12800    273.12452    -334.4386    141544.91   -49022.134    3750.7076   -52772.842   0.33598485 
   13000    274.56375   -350.73782    141595.37       -49004    3770.4719   -52774.472   0.34461043 
   13200    274.49372   -635.30752    141993.99   -48972.999    3769.5103   -52742.509   0.30233525 
   13400    273.70302   -649.09212    142085.33   -48989.264    3758.6519   -52747.916   0.30445482 
   13600    276.22494    -489.8595    141780.31   -48981.628    3793.2844   -52774.913   0.31952553 
   13800    279.05368   -365.34759    141561.74   -48977.992    3832.1303   -52810.122   0.32806161 
   14000    274.70278   -472.65074    141714.07   -48997.007    3772.3812   -52769.388   0.32587135 
   14200    275.63521   -572.32164    141978.53   -49019.295    3785.1859   -52804.481   0.31639023 
   14400    274.35377   -543.63664    141953.47   -49042.091    3767.5883   -52809.679   0.30867656 
   14600    271.17095    -463.5364    141720.71   -49039.375    3723.8801   -52763.255   0.30504755 
   14800    272.48798   -471.87907    141677.79     -49023.5    3741.9663   -52765.467   0.34034482 
   15000    268.70738   -594.35444    141857.42    -49070.73    3690.0488   -52760.779     0.315631 
   15200    273.97218   -566.85974    141899.03    -49119.85    3762.3481   -52882.198   0.30660367 
   15400    273.00181   -464.18583    141738.55   -49136.198    3749.0224   -52885.221   0.33157538 
   15600    270.27162   -440.32821    141674.24   -49172.741    3711.5298    -52884.27   0.31325018 
   15800    268.66897   -530.30856    141825.18   -49126.948    3689.5213    -52816.47   0.31200035 
   16000    272.64977   -546.83855    141968.79   -49114.126    3744.1881   -52858.314   0.31068135 
   16200    270.54314   -561.03003    141948.06   -49065.705    3715.2586   -52780.964   0.30789903 
   16400      276.542   -467.03508    141822.66   -49064.384    3797.6384   -52862.022   0.31145162 
   16600    274.84469   -481.18354    141808.54   -49082.646      3774.33   -52856.976   0.32201785 
   16800    275.69066   -547.70902    141915.64   -49039.133    3785.9473   -52825.081   0.31247031 
   17000    270.64952    -578.3956    141950.05   -49061.467    3716.7194   -52778.186   0.30307465 
   17200    277.11756   -512.56451    141824.63   -49045.918    3805.5423    -52851.46   0.32326488 
   17400    271.73311   -439.95832    141718.18   -49089.805    3731.5999   -52821.405   0.32159317 
   17600    267.70632   -506.79827    141795.69   -49124.768    3676.3017    -52801.07   0.30612579 
   17800    270.08521   -526.21765    141891.33   -49140.996      3708.97   -52849.966    0.3220628 
   18000    267.47055    -551.3331    141859.59   -49173.216    3673.0638    -52846.28   0.31712092 
   18200    268.48774   -443.76934    141736.93    -49198.71    3687.0326   -52885.743   0.31421112 
   18400    267.52205   -429.14691    141696.31   -49218.641    3673.7711   -52892.412   0.32480509 
   18600    273.19356   -491.45305     141837.6    -49178.22    3751.6557   -52929.876   0.30628868 
   18800    271.95988   -557.09868    141990.96    -49115.57     3734.714   -52850.284   0.29609256 
   19000    268.18727   -555.44469    141892.72   -49143.467    3682.9063   -52826.373   0.31704706 
   19200     271.4955   -413.71142    141671.88   -49120.889     3728.337   -52849.226    0.3245991 
   19400    270.13376   -415.94969     141736.1   -49112.784    3709.6367    -52822.42   0.31320235 
   19600    273.47161   -627.87859    142078.59   -49138.261    3755.4741   -52893.735   0.30880216 
   19800    265.22696   -664.64709    142113.34   -49134.207    3642.2536   -52776.461    0.3023003 
   20000    271.05769   -404.16604    141676.19   -49128.673    3722.3246   -52850.997   0.30635632 
   20200    275.67777   -243.28103    141396.44   -49156.384    3785.7703   -52942.155   0.33959713 
   20400    268.49315   -529.65973    141825.13   -49134.797    3687.1069   -52821.904   0.32607879 
   20600    270.99176   -792.19086    142352.27   -49125.502    3721.4193   -52846.921    0.2803025 
   20800    269.62606   -628.09868    142017.39   -49129.805    3702.6646    -52832.47   0.31334758 
   21000    270.10877   -200.91488    141251.78   -49129.253    3709.2935   -52838.547   0.34625867 
   21200    270.87878   -240.68446    141292.02   -49119.935    3719.8678   -52839.802   0.34189101 
   21400    267.68067   -699.26906    142143.82   -49109.712    3675.9494   -52785.661   0.30963527 
   21600     272.0732   -841.62846    142443.23    -49064.04    3736.2702    -52800.31   0.28900954 
   21800    277.36527   -420.10798    141732.61   -49022.953    3808.9441   -52831.897   0.31717621 
   22000    275.54241   -163.35386    141208.11   -49032.056    3783.9115   -52815.967   0.34415537 
   22200     272.0672   -441.11452    141703.84   -48991.235    3736.1878   -52727.423   0.33226781 
   22400    270.32655    -820.8179    142374.83   -48962.764    3712.2842   -52675.048   0.30533915 
   22600    279.49231   -712.64198    142136.19   -48969.943    3838.1538   -52808.096   0.30887292 
   22800     277.4649   -295.82616    141408.79   -49008.756    3810.3123   -52819.068   0.34800513 
   23000    272.09249   -287.48271    141347.86   -49025.806    3736.5351   -52762.341   0.33532143 
   23200    274.01288   -602.38672    141991.39   -49016.203     3762.907    -52779.11   0.31863196 
   23400    274.24567   -785.12273    142289.06   -49019.704    3766.1038   -52785.808   0.30651402 
   23600    275.55151   -472.07468    141771.95   -49038.618    3784.0364   -52822.655   0.31354322 
   23800    277.34133   -248.75817     141309.7   -48983.359    3808.6153   -52791.975   0.35135638 
   24000    271.61342   -404.07963    141628.22   -49017.837    3729.9563   -52747.793   0.33020123 
   24200    274.33987   -714.77803     142168.2   -48996.122    3767.3974    -52763.52   0.30566119 
   24400    274.46022   -646.33571    142090.86   -49001.238    3769.0502   -52770.289   0.31157305 
   24600    273.03164   -445.31204    141618.73   -49004.318    3749.4321   -52753.751   0.34456639 
   24800    275.22726    -321.2067    141535.19    -48933.59    3779.5837   -52713.174   0.33790213 
   25000    276.05015   -543.92059    141970.88   -48930.176     3790.884    -52721.06   0.30269903 
   25200    278.72155   -685.10779    142196.32   -48950.402    3827.5693   -52777.972   0.30626907 
   25400    275.94309   -506.47247    141851.94   -49011.749    3789.4138   -52801.163   0.31958763 
   25600    272.86679   -362.84686    141514.75   -49036.523    3747.1682   -52783.692    0.3426238 
   25800    273.62229    -449.6596     141724.1   -49014.707    3757.5433    -52772.25   0.33350639 
   26000    273.64635   -632.20399    142093.45   -48991.139    3757.8736   -52749.013   0.29709818 
   26200    274.07314   -628.36543    142036.16   -49034.974    3763.7346   -52798.709   0.30491073 
   26400    267.48361   -410.63532    141606.71   -49059.535    3673.2433   -52732.778   0.33753182 
   26600    267.51944   -297.43973    141463.78   -49069.934    3673.7353   -52743.669   0.33951493 
   26800    273.93395   -539.98333    141840.08   -49073.169    3761.8232   -52834.992   0.31929195 
   27000    271.16857   -677.96676    142103.98   -49070.285    3723.8473   -52794.132    0.3116938 
   27200    273.98122   -520.96314    141842.38   -49065.246    3762.4722   -52827.718   0.31507235 
   27400    278.14547   -304.68987    141476.57   -49034.798    3819.6583   -52854.456   0.32580688 
   27600    274.60622   -425.07715    141607.57   -49037.734    3771.0551   -52808.789   0.33504087 
   27800    275.83016   -609.17028    142039.71   -49030.415     3787.863   -52818.278   0.31126203 
   28000    273.12973   -660.23054    142105.01   -49018.176    3750.7791   -52768.955   0.30237835 
   28200    273.77609   -403.86146    141764.18   -49038.373    3759.6554   -52798.029   0.32398009 
   28400    275.65041   -383.03342    141592.11   -49036.935    3785.3946   -52822.329   0.32485078 
   28600    274.59675   -466.22533     141869.3   -49056.667    3770.9252   -52827.592   0.30200092 
   28800    271.73946   -663.90136     142184.9   -49065.189    3731.6871   -52796.876   0.31259461 
   29000    272.95875     -600.235    141993.55   -49100.841    3748.4312   -52849.272   0.30707885 
   29200    271.85281   -365.17158    141533.26   -49139.068    3733.2437   -52872.312   0.32172656 
   29400    272.44051   -322.14469    141505.88   -49140.538    3741.3144   -52881.853   0.34144508 
   29600    273.04677    -613.4443     141953.6   -49100.875    3749.6399   -52850.515   0.31238026 
   29800    272.19244   -652.05659     142157.6   -49024.979    3737.9077   -52762.887   0.30240386 
   30000    275.94086   -463.91233    141843.81   -49018.915    3789.3832   -52808.298   0.32824939 
   30200    273.56619   -370.18127    141532.02   -49029.771    3756.7729   -52786.544   0.33538417 
   30400    276.08043   -421.22762    141669.27   -49078.232    3791.2999   -52869.532   0.31779571 
   30600     276.2316   -614.52303    142018.68   -49026.414    3793.3759    -52819.79   0.32196132 
   30800    272.73052      -615.04    142035.72    -48994.83    3745.2969   -52740.127   0.31450417 
   31000    279.47274   -427.74347    141769.14   -48984.549    3837.8851   -52822.434   0.31835067 
   31200    274.78219   -395.49084    141684.33   -48987.495    3773.4717   -52760.966   0.34504148 
   31400    277.08984   -503.03402    141885.71   -48984.495    3805.1617   -52789.657   0.31539327 
   31600    272.65747   -595.05531       142016   -49040.701    3744.2938   -52784.995   0.29869822 
   31800    275.87545    -480.7876    141837.92   -49015.524     3788.485   -52804.009   0.32905287 
   32000    278.56892   -381.23256    141681.79   -48988.434    3825.4733   -52813.907   0.32809062 
   32200    271.98739   -506.53222    141828.69    -49020.66    3735.0918   -52755.752   0.32525608 
   32400    275.90562    -603.6127    142045.93   -49014.445    3788.8992   -52803.344   0.31657037 
   32600     274.5847    -506.0188    141977.25   -49000.822    3770.7596   -52771.581   0.30804757 
   32800     276.6313   -448.92601    141763.08   -49000.525    3798.8647    -52799.39   0.30933587 
   33000    274.35993   -408.97961    141706.01   -48990.741     3767.673   -52758.414   0.33110425 
   33200    276.88607   -534.00123    141898.15   -48984.676    3802.3634    -52787.04   0.33681253 
   33400    276.87082   -577.54317    142040.28   -48946.434    3802.1539   -52748.588   0.30402755 
   33600    281.23064   -467.63264    141936.14   -48883.936    3862.0256   -52745.962   0.31962279 
   33800    279.32174   -507.70503     141796.4   -48918.329    3835.8114    -52754.14   0.33606734 
   34000    276.03386   -487.06785    141786.31   -48938.262    3790.6604   -52728.923   0.31225317 
   34200    272.41148    -568.0442    141878.85   -48966.746    3740.9156   -52707.661   0.33795164 
   34400    268.82518   -562.43787    141874.55   -49027.531    3691.6665   -52719.198   0.33102835 
   34600    275.82809   -455.83381    141739.37   -49003.199    3787.8346   -52791.034   0.31170393 
   34800    277.50392   -459.46922    141682.65    -49042.32    3810.8481   -52853.168   0.33463053 
   35000    274.79989   -540.87644    141814.06   -49065.285    3773.7148   -52838.999   0.33156443 
   35200    276.00943   -555.45178    141906.63   -49052.415    3790.3249    -52842.74   0.31587837 
   35400    277.10204    -482.7254    141820.98   -49016.357    3805.3292   -52821.686   0.32642816 
   35600    276.77842   -454.53467     141696.4   -49010.574    3800.8851   -52811.459   0.34354612 
   35800    275.68303   -438.35722    141717.12   -49011.583    3785.8426   -52797.425   0.32124121 
   36000    275.19363    -535.0076     141903.7   -49012.058    3779.1219    -52791.18   0.32016425 
   36200    274.19494   -579.79642    141994.97    -49024.65    3765.4073   -52790.057   0.32336601 
   36400     274.7701   -492.18102    141795.12   -49052.373    3773.3057   -52825.679   0.31322741 
   36600    274.86569   -394.40692    141645.45   -49030.555    3774.6183   -52805.173   0.33256035 
   36800    267.55309   -517.56214    141824.95   -49070.162    3674.1974    -52744.36   0.33780112 
   37000    274.61063   -627.48148    142028.19   -49058.171    3771.1157   -52829.287   0.30145143 
   37200    276.58704   -482.70771    141856.91    -49022.95    3798.2569   -52821.207   0.32346405 
   37400    276.65602   -362.44581    141581.16   -49017.556    3799.2042    -52816.76   0.33814384 
   37600    278.05224   -414.34188     141672.1   -49043.539    3818.3779   -52861.917   0.31551627 
   37800    269.75411   -608.16328    142045.02   -49007.093    3704.4231   -52711.516   0.31709171 
   38000    271.64985   -651.61953    142095.48   -49057.552    3730.4566   -52788.009   0.30944911 
   38200    273.15035   -411.60562     141684.8   -49054.756    3751.0623   -52805.819   0.31661557 
   38400     276.1329   -323.80745    141467.64   -49024.263    3792.0205   -52816.283   0.34301627 
   38600    276.90648   -524.49264    141871.56   -49020.209    3802.6436   -52822.852   0.33395732 
   38800    275.29388   -729.68805    142289.27   -49063.454    3780.4985   -52843.953   0.30059357 
   39000    271.05312    -612.8716    141968.88   -49090.591    3722.2619   -52812.853   0.30979689 
   39200    269.95893    -277.0247    141360.48   -49113.875    3707.2358   -52821.111   0.34695308 
   39400    269.66469   -308.25646    141449.91   -49105.694    3703.1952   -52808.889   0.33200113 
   39600    268.50921   -663.40859    142113.62   -49167.544    3687.3274   -52854.872   0.30245327 
   39800    270.19389   -781.56581     142257.1   -49154.968    3710.4624    -52865.43   0.31157666 
   40000    266.82433   -463.64492    141596.64   -49171.167    3664.1897   -52835.357   0.32643846 
   40200    269.51754   -165.47464    141207.84   -49150.671    3701.1744   -52851.845   0.33696152 
   40400    273.29312   -482.51937    141760.12   -49144.134    3753.0228   -52897.156   0.32392975 
   40600    265.34661    -800.4176    142334.78   -49164.424    3643.8967    -52808.32   0.29510008 
   40800    273.43295   -627.33563    141965.36   -49184.636    3754.9431   -52939.579   0.31001364 
   41000    267.33619   -188.45314    141279.87     -49147.4    3671.2187   -52818.619   0.34670805 
   41200    268.95221   -312.14449    141436.41   -49179.754     3693.411   -52873.165   0.33362074 
   41400     267.3896   -697.39838    142128.81   -49140.579    3671.9522   -52812.531   0.29221023 
   41600    265.32973   -743.65722    142234.51   -49133.806    3643.6649   -52777.471   0.30828658 
   41800    269.25079   -421.17159    141661.46   -49138.029    3697.5112    -52835.54   0.32412281 
   42000     271.1779   -252.31313    141374.14   -49113.782    3723.9754   -52837.758   0.32210973 
   42200    270.95459   -507.88208    141780.85    -49136.29    3720.9088   -52857.199    0.3308338 
   42400    270.26256   -710.56929    142152.71   -49180.736    3711.4055   -52892.141   0.30149122 
   42600    268.64464   -596.70992    141895.55   -49207.866    3689.1872   -52897.053   0.30553185 
   42800    264.75121   -346.56273    141481.71   -49211.743    3635.7203   -52847.463   0.34658863 
   43000    271.19788   -367.18422    141514.65    -49169.08    3724.2498    -52893.33    0.3279126 
   43200    271.18224   -565.03862    141872.73   -49170.629     3724.035   -52894.664   0.30822413 
   43400    268.81946   -655.88427    141991.13   -49159.612    3691.5879   -52851.199   0.31925092 
   43600     271.5949   -460.64782    141727.38    -49157.68    3729.7019   -52887.382   0.31523208 
   43800    271.67791   -370.86509    141549.82   -49132.715    3730.8418   -52863.557   0.32497078 
   44000    274.87853   -479.11005    141729.58   -49150.756    3774.7946    -52925.55   0.32055668 
   44200    268.46007   -626.94759    141934.04   -49188.578    3686.6526    -52875.23   0.31295557 
   44400    264.83346   -517.76555    141834.99   -49164.486    3636.8498   -52801.336   0.31323102 
   44600    271.98142   -404.31724     141655.2   -49107.723    3735.0099   -52842.732    0.3242592 
   44800    273.77813   -444.24335    141717.09   -49074.949    3759.6834   -52834.632   0.32155644 
   45000    275.30841   -561.59918    141939.99   -49107.012     3780.698    -52887.71   0.30074813 
   45200    271.99692   -599.93727    141964.49   -49126.101    3735.2227   -52861.323   0.31818304 
   45400    274.22876    -439.1131     141718.1   -49174.641    3765.8717   -52940.512   0.32066519 
   45600    268.97374   -398.20942    141604.05   -49163.281    3693.7066   -52856.988   0.31431619 
   45800    276.40957   -453.53489    141801.17   -49138.838    3795.8198   -52934.658   0.32166823 
   46000    271.64758   -603.58007    141981.85   -49135.173    3730.4253   -52865.598    0.3102172 
   46200    268.64952    -531.4318    141860.93    -49167.14    3689.2543   -52856.394   0.30854383 
   46400    271.70622   -360.35867    141630.42   -49152.617    3731.2306   -52883.848   0.33393463 
   46600    269.77559   -441.40869    141683.41   -49151.321     3704.718   -52856.039   0.32673965 
   46800    271.13917   -552.48039    141942.76   -49115.629    3723.4436   -52839.072   0.30295851 
   47000    273.60016   -575.92771    141957.57   -49094.608    3757.2393   -52851.847   0.31284044 
   47200    272.62026   -429.82003    141710.68   -49069.134    3743.7828   -52812.917   0.33083922 
   47400    275.03835   -412.60057    141620.83   -49003.485    3776.9894   -52780.474   0.31907608 
   47600    276.08197   -548.91319    141900.74   -48976.295    3791.3211   -52767.616   0.32396398 
   47800    276.29447   -659.50122    142134.02    -48942.74    3794.2392   -52736.979    0.3206781 
   48000    276.42765   -543.44589    141903.46   -48948.008    3796.0682   -52744.076   0.30979216 
   48200    280.57586   -324.56837    141489.16   -48950.798    3853.0338   -52803.832   0.34125964 
   48400    277.67557   -373.32572    141584.34   -48932.845    3813.2053   -52746.051   0.35192084 
   48600    275.35269   -697.39471    142147.36   -48987.618    3781.3062   -52768.924   0.29483409 
   48800    279.52973   -745.32539    142230.04   -48931.336    3838.6678   -52770.004   0.29978534 
   49000    279.48736   -355.62131    141632.12    -48914.76    3838.0858   -52752.846   0.34364824 
   49200    271.22125    -236.1539    141355.54   -48947.896    3724.5708   -52672.467   0.34748895 
   49400    277.02874   -559.77673    141975.87   -48956.193    3804.3227   -52760.515   0.31722193 
   49600    274.95732   -851.92145    142555.74   -48965.107    3775.8767   -52740.984   0.29473862 
   49800    274.79658   -635.89638    142097.49   -48948.052    3773.6693   -52721.722   0.30938815 
   50000    280.34949   -140.08685    141269.04   -48955.894    3849.9252   -52805.819   0.33925828 
   50200    278.21886   -253.83925    141447.79   -48992.518    3820.6661   -52813.184   0.34163516 
   50400    277.63602   -707.44636    142378.63   -48989.513    3812.6622   -52802.175   0.28800026 
   50600    272.34968   -883.21027    142499.12   -49006.848     3740.067   -52746.915   0.28605763 
   50800    276.64024   -332.93115    141561.59   -49024.214    3798.9875   -52823.202   0.33726515 
   51000    277.06396   -140.55294    141139.79   -48967.368    3804.8062   -52772.175   0.34993602 
   51200    273.94169   -518.78576    141872.55   -48995.145    3761.9295   -52757.075   0.32174888 
   51400    278.11838   -849.22974    142498.42    -48952.94    3819.2862   -52772.226   0.29656918 
   51600    274.22449   -606.24393    142079.14   -48956.124     3765.813   -52721.937   0.30871022 
   51800    277.88165   -246.68605     141424.1   -48957.532    3816.0353   -52773.567   0.34844629 
   52000    276.34905   -334.43485    141574.36   -48921.654    3794.9887   -52716.643   0.33767192 
   52200    277.79858   -636.45298     142171.8   -48891.501    3814.8945   -52706.396   0.30506718 
   52400    283.31395   -687.21239    142277.19    -48872.33    3890.6349   -52762.965   0.29913368 
   52600    277.94375   -455.91715    141814.66   -48911.091    3816.8881   -52727.979   0.33052726 
   52800    277.71521   -323.42701    141583.01   -48930.513    3813.7497   -52744.262    0.3292406 
   53000    279.66208    -495.0611    141887.41   -48934.382    3840.4852   -52774.867   0.31287454 
   53200    277.95401   -621.06009    142159.84   -48938.913     3817.029   -52755.942   0.31240388 
   53400    275.33648   -572.05056    142000.64   -48966.116    3781.0835     -52747.2   0.31019961 
   53600    276.81791   -363.67723    141657.67   -48993.301    3801.4273   -52794.729   0.32106759 
   53800    275.43263   -403.08305    141657.75   -48972.431    3782.4039   -52754.835   0.34423054 
   54000    281.84278   -533.00666    141973.78   -48963.254    3870.4318   -52833.686    0.3083612 
   54200    276.88307   -623.93488    142112.03   -48968.252    3802.3222   -52770.575   0.30759404 
   54400    276.70677   -504.82689    141867.48   -48995.608    3799.9011   -52795.509    0.3337626 
   54600    277.85902   -325.31039    141615.29   -48992.678    3815.7246   -52808.403   0.32757742 
   54800    272.82292   -451.04453     141789.4   -48939.239    3746.5659   -52685.805    0.3288897 
   55000    274.14958   -642.30676    142091.11   -48939.663    3764.7843   -52704.448   0.31713769 
   55200    278.72524   -607.51063    142017.32   -48967.842      3827.62   -52795.462   0.31008665 
   55400    275.07047   -381.54176    141696.53   -48992.477    3777.4305   -52769.908   0.31975456 
   55600     270.2174   -424.74349    141680.96   -49027.604    3710.7853   -52738.389   0.33639774 
   55800    279.23492   -528.10785    141975.47    -48999.51    3834.6193    -52834.13   0.31013923 
   56000    278.49402   -596.12228    142122.56   -48984.588    3824.4447   -52809.032    0.2971056 
   56200     275.6888   -514.01982    141915.27   -49018.629    3785.9218   -52804.551   0.31768469 
   56400    275.93056   -386.48927    141654.61   -49023.405    3789.2418   -52812.646   0.32071415 
   56600    272.47222   -453.68216    141744.18   -49026.991    3741.7497    -52768.74   0.32956726 
   56800    278.12876   -601.90245    142026.49   -48978.161    3819.4288   -52797.589   0.32147497 
   57000    275.74173   -588.33739    142030.64   -48983.685    3786.6487   -52770.334   0.30828633 
   57200    270.72592    -435.9635    141730.66   -49013.545    3717.7685   -52731.313   0.33209898 
   57400    271.75072   -362.40849     141594.3   -49031.999    3731.8418    -52763.84   0.33196467 
   57600    273.49174   -503.77186    141860.24   -49020.956    3755.7505   -52776.707   0.32362608 
   57800    269.16141   -678.24099       142104   -49031.301    3696.2838   -52727.585   0.31974822 
   58000    272.96437   -536.59946    141894.64   -49044.715    3748.5083   -52793.223   0.31655689 
   58200    274.39755    -344.5139    141503.11   -49085.202    3768.1896   -52853.392   0.33755875 
   58400    265.83401   -411.93114     141572.4   -49077.668    3650.5899   -52728.258   0.34045094 
   58600    273.27881   -619.21737    142043.69   -49054.769    3752.8264   -52807.595   0.32154927 
   58800    273.13621   -698.64896    142138.95   -49083.032    3750.8681     -52833.9   0.31173593 
   59000    273.27717   -408.25386    141627.09   -49109.837    3752.8039   -52862.641   0.31879309 
   59200    272.92846   -206.74478    141291.22   -49111.828    3748.0151   -52859.843   0.35867846 
   59400    277.92215   -490.89846    141749.16   -49055.422    3816.5915   -52872.013   0.31887184 
   59600    275.12188   -799.69748    142370.76   -49044.957    3778.1365   -52823.093   0.29923286 
   59800    269.52829   -625.31368    142092.77   -49033.183    3701.3221   -52734.505   0.33111027 
   60000     277.1605   -182.96555    141318.15   -49026.816     3806.132   -52832.948   0.33548255 
   60200    277.20109   -221.05513    141355.03   -49002.718    3806.6895   -52809.407   0.33949822 
   60400    276.17435    -735.2504    142277.95   -48967.263    3792.5897   -52759.853   0.31539077 
   60600    272.83266   -888.91919    142600.72   -49000.107    3746.6995   -52746.806   0.29633672 
   60800     278.0964   -438.70155    141754.59   -48950.847    3818.9844   -52769.831   0.32725047 
   61000    279.30673   -78.891484    141119.62   -48993.057    3835.6053   -52828.662    0.3652973 
   61200    278.38947    -436.8824    141747.39   -48996.824     3823.009   -52819.833   0.33373871 
   61400    277.07889   -850.11995    142572.86   -48985.083    3805.0113   -52790.094   0.26827875 
   61600    272.72065   -685.28513    142223.88   -48978.672    3745.1614   -52723.833   0.31816258 
   61800    280.67368   -241.27027    141389.43   -48985.861    3854.3771   -52840.238   0.35745177 
   62000    271.95359   -242.29666    141386.37   -49009.625    3734.6276   -52744.253   0.32188841 
   62200    278.93419   -619.32054    142051.31   -49017.105    3830.4894   -52847.595   0.32342505 
   62400    278.42741   -755.38331    142272.08   -48975.178    3823.5301   -52798.709   0.30476689 
   62600    281.65324    -448.0379     141790.7   -48999.786     3867.829   -52867.615   0.31191318 
   62800    276.61263   -319.25919    141433.77   -48978.969    3798.6083   -52777.578    0.3526616 
   63000     277.9247   -431.06253    141710.11   -48947.539    3816.6265   -52764.166   0.32752497 
   63200     275.0342   -708.68401       142123   -48947.614    3776.9325   -52724.546   0.31183566 
   63400    278.72023   -610.10897    142024.88   -48906.165    3827.5511   -52733.716   0.31932263 
   63600    278.72549   -377.22956    141658.16    -48890.33    3827.6234   -52717.953   0.35166409 
   63800    278.27825   -442.06874    141645.14   -48917.315    3821.4817   -52738.796   0.33212182 
   64000    275.71883   -564.69547    141925.37   -48907.228    3786.3342   -52693.562   0.31862067 
   64200    279.93335   -610.68742    142020.03   -48907.138    3844.2105   -52751.349   0.33551619 
   64400    279.97569   -486.41699    141795.71   -48896.651    3844.7918   -52741.443   0.31956547 
   64600    281.75751   -366.21781    141631.75   -48949.764    3869.2609   -52819.025   0.33178384 
   64800     278.8942   -422.25624    141750.85   -48959.326    3829.9402   -52789.266   0.33469531 
   65000    278.03152   -566.45037    141967.73   -48947.195    3818.0934   -52765.289   0.31260413 
   65200    273.71259   -561.62779    141933.68   -48972.915    3758.7833   -52731.698   0.33550271 
   65400    271.83715   -443.30842    141731.31   -48998.163    3733.0286   -52731.191   0.32494809 
   65600    271.51248   -441.81755    141675.38   -49022.445    3728.5701   -52751.015    0.3304917 
   65800    273.98972   -497.75396    141830.61   -48997.727    3762.5891   -52760.316   0.32728251 
   66000    270.79606   -569.62914    141956.71   -48995.705    3718.7317   -52714.436   0.31981059 
   66200    272.98844   -538.96707    141876.62   -49020.791    3748.8389    -52769.63   0.33263778 
   66400    271.57261   -448.59237    141727.79   -49017.678    3729.3958   -52747.074    0.3307198 
   66600    276.76066   -422.81114    141717.68   -49030.576    3800.6413   -52831.217    0.3360444 
   66800    272.59692    -534.4949    141822.01   -49011.981    3743.4623   -52755.444   0.32108133 
   67000    274.57047   -523.75474    141851.32   -49039.521    3770.5642   -52810.085   0.31843957 
   67200    271.47381   -535.10484    141774.03   -49060.467    3728.0391   -52788.506   0.35261137 
   67400    272.13695   -486.07883    141676.53   -49092.664    3737.1456    -52829.81   0.31768743 
   67600    273.84963   -481.06046    141721.14   -49050.791    3760.6653   -52811.456   0.33495525 
   67800    276.82403   -536.51329    141891.41   -48999.778    3801.5115   -52801.289   0.33319488 
   68000    272.68017   -552.93027    141937.86   -48994.024    3744.6054   -52738.629   0.31241398 
   68200    273.24793   -472.02519    141770.61   -49064.118    3752.4022    -52816.52   0.34340012 
   68400    278.67057   -383.77535    141640.34   -49012.703    3826.8692   -52839.572   0.33474945 
   68600    270.30622   -485.61641    141812.82    -48997.45     3712.005   -52709.455   0.31990698 
   68800    273.60998   -651.36998    142043.19   -48964.159    3757.3742   -52721.534    0.3188381 
   69000    276.27847   -581.44372    141932.65   -49007.783    3794.0194   -52801.803   0.33663639 
   69200    277.59223   -384.80989    141645.04   -49015.361    3812.0608   -52827.421   0.33297401 
   69400    270.56466     -402.724    141588.73   -49052.383    3715.5541   -52767.937   0.31832062 
   69600    274.89135   -528.89675    141839.51   -49062.348    3774.9707   -52837.319   0.33888978 
   69800    275.67817   -639.02382     142009.6   -49029.583    3785.7758   -52815.359   0.30891273 
   70000    276.31538   -501.52393    141780.85   -48992.812    3794.5263   -52787.338   0.32489201 
   70200    277.32796   -344.15053    141528.73   -48978.659    3808.4317   -52787.091   0.36199979 
   70400    271.76537   -505.61704    141699.08   -48990.958    3732.0429   -52723.001   0.31342287 
   70600    275.04875   -619.38283    142010.05   -48962.356    3777.1323   -52739.489   0.32330289 
   70800    272.61485   -597.69932    142009.94   -48983.636    3743.7085   -52727.345   0.32799844 
   71000    274.98713   -453.16735    141676.52   -49030.065     3776.286   -52806.351   0.33148209 
   71200    273.39669   -320.78744    141492.02   -49039.281    3754.4452   -52793.727    0.3551333 
   71400    274.15029   -512.66554    141768.27    -49007.19     3764.794   -52771.984   0.32639473 
   71600    274.35913   -637.08084    142123.76   -48982.651    3767.6619   -52750.313     0.313273 
   71800    272.52741   -577.48507    141995.46   -49002.743    3742.5077   -52745.251    0.3132008 
   72000      275.782   -396.15012    141608.91   -49030.338    3787.2016    -52817.54   0.34023835 
   72200    275.20923   -416.60334       141566    -49065.22    3779.3361   -52844.556    0.3406886 
   72400    278.50802    -520.2558     141907.8   -49046.321    3824.6369   -52870.958   0.30248725 
   72600    274.03267   -646.55442    142134.32    -49012.02    3763.1788   -52775.199   0.32464495 
   72800    270.64143   -535.38016    141879.94   -49086.334    3716.6083   -52802.942   0.31724004 
   73000    273.58949   -384.41598    141517.77   -49088.579    3757.0928   -52845.672   0.34046796 
   73200    268.75409   -400.52372    141630.27   -49100.718    3690.6902   -52791.408   0.34644801 
   73400    273.01204     -626.804    142042.09   -49093.692     3749.163   -52842.855   0.30364038 
   73600    276.24545    -645.0402    142086.87   -49077.013     3793.566   -52870.579   0.32098478 
   73800    269.80433   -403.72579    141682.96    -49075.04    3705.1127   -52780.152   0.34017603 
   74000    273.58489   -335.26393    141472.06   -49123.145    3757.0297   -52880.175   0.33307351 
   74200    271.97258   -513.67365    141836.55   -49117.604    3734.8884   -52852.492   0.32279485 
   74400    273.15385   -718.10977    142217.25   -49078.603    3751.1103   -52829.714   0.30735106 
   74600    273.16973   -593.60551    141965.47   -49101.249    3751.3284   -52852.577   0.32254199 
   74800    273.74994   -292.71838    141452.05   -49114.395    3759.2962   -52873.691    0.3245919 
   75000    273.82211   -299.65728    141535.39   -49080.574    3760.2873   -52840.862   0.34669749 
   75200    272.54634   -651.31551    142136.85   -49064.304    3742.7677   -52807.072   0.30539771 
   75400     274.5221   -760.47984    142300.53   -49050.227       3769.9   -52820.127   0.28059474 
   75600    273.59043   -443.76883    141743.27   -49033.746    3757.1057   -52790.851   0.35254153 
   75800    276.79239   -252.99184    141354.28   -49016.257     3801.077   -52817.334   0.34559114 
   76000     271.0907   -432.13554    141766.51   -49000.625    3722.7779   -52723.403   0.31078498 
   76200    272.15908   -816.41372    142332.24   -49020.807    3737.4495   -52758.257   0.31610087 
   76400    272.40612   -616.67082    142131.37   -48992.379    3740.8421   -52733.221   0.30380437 
   76600     272.0827   -321.90872    141499.52   -48984.669    3736.4007   -52721.069   0.34519481 
   76800    282.24356   -286.09496    141486.71   -48986.967    3875.9356   -52862.902   0.35001772 
   77000    276.87877   -628.13319    142099.77   -48984.789    3802.2632   -52787.052   0.31148531 
   77200    269.14792   -782.98399    142325.59   -49024.675    3696.0985   -52720.773   0.28919175 
   77400    273.15726   -479.23629    141785.66   -49019.435    3751.1571   -52770.592   0.33242163 
   77600    274.02806   -265.92091    141412.19   -49037.147    3763.1156   -52800.262   0.35508846 
   77800    278.41351   -468.12461    141778.61   -49048.836    3823.3391   -52872.175   0.30764638 
   78000    271.92399   -658.62132    142200.98   -49044.054    3734.2212   -52778.275   0.30864897 
   78200    277.88419   -612.84605     142033.4   -49040.137    3816.0702   -52856.207   0.31069314 
   78400    276.85297   -399.58736     141627.8   -49062.291    3801.9088     -52864.2   0.31566294 
   78600    270.77414   -368.65574    141611.98   -49079.479    3718.4308    -52797.91   0.34513137 
   78800    271.38811    -530.7891    141919.95   -49064.214    3726.8622   -52791.076   0.30820973 
   79000    275.72793   -617.53021    142023.17   -49046.529    3786.4592   -52832.988   0.30365297 
   79200    277.43219   -468.32985    141794.45    -49057.58     3809.863   -52867.443    0.3289794 
   79400    267.86127   -393.33807    141657.44   -49013.499    3678.4295   -52691.928   0.32926687 
   79600    272.36769   -493.04997     141835.6    -49004.12    3740.3144   -52744.434   0.31870058 
   79800    274.30191   -578.68206    142028.43   -49027.071    3766.8761   -52793.947   0.30811105 
   80000    277.71606   -543.72945     141912.9   -49001.694    3813.7613   -52815.456   0.32244874 
   80200    277.33846   -434.73726       141710   -48970.008    3808.5759   -52778.584   0.31239038 
   80400    274.40354   -466.42023     141786.6   -48940.743    3768.2718   -52709.015   0.33098601 
   80600    277.14171   -564.26611    142015.44   -48958.262    3805.8741   -52764.136   0.31553566 
   80800    280.40988   -580.44196    142042.68   -48903.922    3850.7545   -52754.676   0.28976716 
   81000    275.70033   -451.44514    141802.54   -48954.766    3786.0802   -52740.846   0.34198244 
   81200    276.91542   -385.39764    141653.69   -48936.841    3802.7665   -52739.608   0.33197397 
   81400    275.79206   -477.49959    141866.07   -48913.695    3787.3398   -52701.035   0.31064883 
   81600    275.49825   -586.33044    142112.01   -48930.048     3783.305   -52713.353   0.32456415 
   81800    278.95069   -583.64269    141997.95   -48935.128     3830.716   -52765.844   0.30866906 
   82000    282.62872   -335.63885    141698.83   -48905.056    3881.2249   -52786.281   0.32399053 
   82200    273.34913   -441.81689    141717.85   -48946.286    3753.7921   -52700.078   0.34323465 
   82400    276.40637   -557.15551    141967.95   -48946.789    3795.7759   -52742.565   0.32599517 
   82600    274.77483   -607.66441    142046.25   -48988.031    3773.3705   -52761.402   0.30424418 
   82800    273.20521   -501.08584    141828.52   -49026.809    3751.8156   -52778.625   0.32311409 
   83000    279.50974   -383.59022    141660.57    -49013.98    3838.3932   -52852.373    0.3444447 
   83200    272.34614   -460.88929    141800.64   -49032.418    3740.0184   -52772.437   0.31072758 
   83400    272.03387   -612.61505    142001.45   -49049.716    3735.7301   -52785.446   0.31956295 
   83600    272.29255   -587.12572    141920.47   -49065.728    3739.2824    -52805.01   0.33197936 
   83800    277.84375   -401.23468    141648.58   -49020.945    3815.5149   -52836.459    0.3067794 
   84000    279.30692   -402.55273    141659.19   -49049.995    3835.6079   -52885.603   0.33232975 
   84200    276.23892   -554.06924    141940.23   -49036.591    3793.4764   -52830.067   0.32501284 
   84400    272.32342   -647.39429    142022.59   -49038.506    3739.7064   -52778.212   0.30189465 
   84600    274.38408   -446.19864     141716.7   -49036.802    3768.0046   -52804.807   0.33997078 
   84800    272.69335   -316.67319    141474.62   -49047.679    3744.7865   -52792.465   0.34422363 
   85000     273.8249   -453.80164    141736.23   -49012.142    3760.3256   -52772.468   0.32861855 
   85200    280.52509   -665.36594    142235.35   -48979.908    3852.3365   -52832.245    0.2989818 
   85400    273.74898   -708.73604    142201.54   -48966.798     3759.283   -52726.081   0.31125351 
   85600    278.07524   -309.24042    141538.14   -48970.187    3818.6937    -52788.88   0.33075439 
   85800    276.04862   -243.61703    141295.72   -48985.236    3790.8631   -52776.099   0.34559064 
   86000    276.35018   -557.42187    141968.03   -48938.492    3795.0043   -52733.497   0.33910258 
   86200      273.157    -890.9844    142559.83   -48940.573    3751.1536   -52691.726   0.29085427 
   86400    275.65901   -579.32211    142018.46   -48938.536    3785.5127   -52724.048   0.31725664 
   86600    276.72326    -66.67134     141173.1   -48942.888    3800.1276   -52743.015   0.37748586 
   86800    269.79079    -335.7422    141451.79   -48972.116    3704.9268   -52677.043   0.32644882 
   87000    276.12997   -783.57716    142390.79   -48984.459    3791.9802   -52776.439   0.30310905 
   87200    274.04178   -814.47971    142423.45   -48954.317    3763.3039   -52717.621   0.30762445 
   87400    280.93601   -312.43885    141553.16   -48927.089    3857.9795   -52785.068   0.32658772 
   87600    273.82412    -203.0686    141267.21   -48991.507    3760.3148   -52751.822   0.35708307 
   87800    273.91547   -602.23551    141912.43   -48995.092    3761.5694   -52756.662   0.32450438 
   88000    275.90896   -761.45507     142394.2   -48943.838    3788.9452   -52732.784   0.30127849 
   88200    276.51523   -603.09229    142003.03    -48957.94    3797.2708   -52755.211   0.31455347 
   88400     279.0326   -246.33391    141409.57   -48948.676    3831.8409   -52780.517   0.35722169 
   88600    279.57295   -333.55613    141558.15    -48962.59    3839.2613   -52801.852   0.32795181 
   88800    280.12718   -683.74799    142140.35   -48949.258    3846.8723    -52796.13   0.30614809 
   89000    277.02964   -661.54002    142214.07   -48967.524     3804.335   -52771.859   0.32034119 
   89200    283.93792   -431.21354    141684.29   -48947.426    3899.2036    -52846.63   0.31799905 
   89400    277.55201   -276.20302    141426.63   -48922.958    3811.5085   -52734.467   0.34599152 
   89600     273.1152   -490.78403    141838.85   -48941.744    3750.5795   -52692.324   0.33714642 
   89800    278.07163   -703.45667    142229.54   -48971.486    3818.6443    -52790.13   0.29282223 
   90000    277.45123   -553.94586     141987.2   -48988.643    3810.1245   -52798.767   0.31750069 
   90200    272.84789   -358.64534    141522.45   -49034.609    3746.9087   -52781.518   0.34289959 
   90400    274.27167   -324.85754    141534.79   -49054.996    3766.4609   -52821.457   0.34279488 
   90600      273.766   -614.83043    141977.33   -49045.564    3759.5167   -52805.081   0.31423957 
   90800    271.85106   -679.16077    142131.41   -49065.184    3733.2197   -52798.404   0.30996747 
   91000     269.8469   -481.02837     141757.8   -49068.354    3705.6974   -52774.052   0.32290356 
   91200    274.01782   -309.53168    141492.17   -49084.531    3762.9749   -52847.506   0.32549119 
   91400    271.28891   -468.57316    141781.96   -49073.938    3725.4998   -52799.438   0.34733448 
   91600    270.66315    -700.7265    142151.99   -49075.411    3716.9066   -52792.318   0.31446754 
   91800    270.23188   -598.23613    141999.26   -49053.065    3710.9841   -52764.049   0.30388179 
   92000    275.10329   -349.65222    141604.97   -49071.463    3777.8812   -52849.344   0.33426313 
   92200    273.15117   -374.49312    141600.54   -49094.192    3751.0735   -52845.265   0.31911907 
   92400    273.93932   -544.70993    141987.72    -49072.37    3761.8969   -52834.267   0.30874278 
   92600    271.69407   -683.93626    142119.95   -49124.344    3731.0638   -52855.408   0.31707841 
   92800    274.87012   -459.39177    141748.22   -49098.331    3774.6791    -52873.01   0.31722174 
   93000    272.38643   -290.40222    141512.06   -49031.893    3740.5717   -52772.465   0.33272893 
   93200    275.45281   -511.94891    141828.75   -49030.115     3782.681   -52812.796   0.32763714 
   93400    272.69163   -672.76029    142148.59   -49029.106    3744.7629   -52773.869   0.31034785 
   93600    273.96421    -590.4651    141940.15   -49014.353    3762.2387   -52776.592   0.31712243 
   93800    278.26499   -323.95845    141533.44   -49007.633    3821.2995   -52828.932    0.3387753 
   94000    274.64178   -381.76615    141590.24   -49008.497    3771.5434   -52780.041   0.33093203 
   94200    268.07225   -654.63441    142026.06   -49083.123    3681.3268    -52764.45    0.2961286 
   94400    274.05548   -636.12751    142111.37   -49067.604    3763.4921   -52831.096   0.31578287 
   94600    273.78344   -428.13838    141713.38   -49068.529    3759.7562   -52828.286   0.32862232 
   94800    269.51829   -322.74489    141480.07   -49119.041    3701.1847   -52820.226   0.32023386 
   95000    271.17657   -507.47626     141761.5   -49123.494    3723.9572   -52847.451   0.33234419 
   95200     273.5798   -648.55508    142098.96   -49125.797    3756.9598   -52882.757    0.2975808 
   95400    270.78804   -573.55022    141911.24   -49137.887    3718.6216   -52856.508   0.30969579 
   95600    274.87177   -301.24287    141439.97   -49106.029    3774.7019   -52880.731   0.34181175 
   95800    273.62018   -361.28989    141483.88    -49072.25    3757.5142   -52829.764   0.33184009 
   96000    276.06039   -633.45066    142042.59   -49059.817    3791.0247   -52850.842   0.30748037 
   96200    275.29625   -730.01374    142247.96   -49096.776    3780.5311   -52877.307    0.2904805 
   96400    274.28638   -443.76777    141741.59   -49095.214     3766.663   -52861.877   0.32983224 
   96600    272.65554   -242.84619    141319.47   -49109.677    3744.2673   -52853.944   0.34083691 
   96800    270.14277   -460.61786    141695.77   -49158.157    3709.7604   -52867.918   0.31966364 
   97000    267.64947   -780.93552    142307.47   -49136.979     3675.521     -52812.5   0.30292664 
   97200    271.34612   -663.28453    142118.81   -49125.235    3726.2856   -52851.521   0.28640215 
   97400    271.91694   -265.15584    141348.22   -49088.102    3734.1243   -52822.226   0.34536324 
   97600     274.9084   -203.63929    141301.97   -49064.038    3775.2048   -52839.243   0.34894042 
   97800    274.44132   -674.18679    142172.61   -49052.856    3768.7907   -52821.647   0.29524283 
   98000    275.67949   -888.12445    142576.97   -49019.396    3785.7939    -52805.19   0.29139532 
   98200     273.8499   -459.96205    141783.56   -49036.409    3760.6689   -52797.078   0.32230132 
   98400    274.52903   -91.431406    141078.61   -48973.649    3769.9951   -52743.644   0.36205818 
   98600    275.27131   -363.70834    141653.38   -49019.022    3780.1886   -52799.211   0.32364824 
   98800    278.44744   -878.25383    142515.89    -48974.24    3823.8051   -52798.045   0.29318041 
   99000    278.75296   -710.33646    142263.46   -48976.819    3828.0006    -52804.82   0.30053453 
   99200    274.93021   -257.43029    141359.31   -49043.846    3775.5044   -52819.351   0.33459277 
   99400    272.48236   -221.82872    141230.42   -49132.994    3741.8891   -52874.883   0.36753974 
   99600    272.44569   -583.04802    141926.66   -49151.337    3741.3855   -52892.723   0.30507341 
   99800    269.84627   -772.65154    142241.94    -49120.64    3705.6887   -52826.328   0.30348274 
  100000    268.96221   -515.67574    141778.31   -49123.649    3693.5482   -52817.197    0.3334603 
  100200    271.83665   -289.69932    141380.01   -49086.541    3733.0218   -52819.563   0.32843357 
  100400    273.66468   -413.06591    141659.87    -49083.53    3758.1254   -52841.655   0.33050039 
  100600    276.89193   -630.87396    142077.31    -49032.64    3802.4439   -52835.084   0.30575552 
  100800     270.2851   -640.13999    141995.03   -49059.739     3711.715   -52771.454   0.30891434 
  101000    274.82326   -390.96916    141576.27   -49046.763    3774.0357   -52820.798   0.34429499 
  101200    273.08551   -363.55472    141537.96   -49027.379    3750.1718   -52777.551   0.33705638 
  101400    273.12304   -600.20953    141925.37    -49031.68    3750.6872   -52782.368   0.31868447 
  101600    272.97456    -688.7524    142090.24   -49044.857    3748.6483   -52793.505    0.3069178 
  101800    271.07059   -482.42703    141798.57   -49014.505    3722.5018   -52737.007   0.33610955 
  102000    274.35835   -347.34564    141542.09   -49018.634    3767.6512   -52786.285   0.33617217 
  102200    276.02866    -430.7662    141706.44   -49010.368    3790.5889   -52800.957   0.32652942 
  102400    271.63244   -661.58472    142056.42   -48953.131    3730.2174   -52683.348   0.32395109 
  102600    272.17918   -659.13805    142073.18   -48964.635    3737.7257    -52702.36   0.29748068 
  102800    280.39251   -447.80485     141770.4   -48978.503     3850.516   -52829.019   0.31851038 
  103000    277.51831   -370.25537    141664.81   -48974.071    3811.0457   -52785.116   0.33855823 
  103200    276.98207   -480.03772    141925.19    -48954.11    3803.6817   -52757.792   0.30278912 
  103400    269.12387   -625.26291    142126.46   -48979.241    3695.7683    -52675.01   0.31498713 
  103600    278.13358   -500.53374    141917.05   -48984.863    3819.4949   -52804.358   0.31173459 
  103800    277.02096   -366.96063    141645.59   -48991.586    3804.2158   -52795.801   0.31788117 
  104000    275.29732   -430.62153    141755.67   -48999.831    3780.5458   -52780.376   0.32602226 
  104200    272.01683    -618.1309    142070.32   -49010.279    3735.4962   -52745.776   0.30755138 
  104400    273.99782   -632.77086     142046.5   -49025.351    3762.7002   -52788.052   0.31269556 
  104600    275.27501   -461.24334    141690.41   -49024.365    3780.2394   -52804.605   0.32330913 
  104800    280.04842   -374.52527    141561.51   -49016.601    3845.7907   -52862.391   0.34052804 
  105000    273.04044   -502.84662    141841.23    -49042.45     3749.553   -52792.003   0.32324872 
  105200    271.86839   -629.44989    142108.23   -49040.773    3733.4577   -52774.231   0.29925344 
  105400    276.74457   -500.36995    141909.23   -49033.853    3800.4203   -52834.273   0.32246959 
  105600    276.42984   -329.52729     141547.3   -49034.883    3796.0982   -52830.981   0.32209322 
  105800    274.41995   -420.49646    141624.16   -49050.661    3768.4971   -52819.158   0.32947294 
  106000    272.21936   -645.44271    141996.95   -49028.814    3738.2774   -52767.091   0.32129136 
  106200    270.70038   -579.24942    142034.58   -49005.034    3717.4178   -52722.452   0.29662568 
  106400    275.88976   -407.58975    141723.13   -49018.772    3788.6815   -52807.453   0.33440591 
  106600    276.22022    -371.3779     141585.3   -49021.841    3793.2195   -52815.061   0.33500209 
  106800    276.99734   -483.38872    141862.31   -49013.866    3803.8915   -52817.758   0.31185707 
  107000    280.38726   -627.24221    142157.03   -48969.885    3850.4438   -52820.329   0.30201921 
  107200    275.89859   -548.46867     141961.7    -48960.65    3788.8028   -52749.453   0.31797783 
  107400    278.00384     -314.681    141492.52    -48969.95    3817.7132   -52787.663   0.34193414 
  107600    277.02236   -363.85155    141519.27   -48950.472     3804.235   -52754.707   0.33429809 
  107800    275.74635   -678.03919    142133.35   -48966.035    3786.7121   -52752.747     0.321612 
  108000    276.56772   -801.83627    142357.21   -48939.907    3797.9917   -52737.899   0.29242918 
  108200      271.508   -426.55443    141712.82   -48976.231    3728.5086    -52704.74   0.31916695 
  108400    279.49272   -116.40833    141207.79    -48976.18    3838.1595    -52814.34   0.37250583 
  108600    281.47115   -461.64509    141777.05   -48948.793    3865.3284   -52814.122   0.30508448 
  108800    278.27107   -840.35722    142502.12    -48961.44    3821.3831   -52782.823   0.29464373 
  109000    274.65783   -658.69537    142150.48   -49000.362    3771.7639   -52772.126    0.3143994 
  109200    276.23438   -170.55465    141299.56   -49007.864    3793.4141   -52801.278   0.33757061 
  109400    275.86653   -218.80307    141374.02   -48995.162    3788.3625   -52783.525    0.3456683 
  109600    277.26788   -703.21143    142281.18    -48952.78    3807.6066   -52760.386   0.30171041 
  109800    278.62646   -864.31606    142530.59   -48997.805    3826.2635   -52824.068   0.28756751 
  110000    271.37554   -420.63297    141740.05   -48945.453    3726.6896   -52672.143   0.31156829 
  110200    276.83193   -141.73828    141276.18    -48937.59    3801.6199    -52739.21    0.3523502 
  110400    275.77493    -477.2263    141830.43   -48985.283    3787.1045   -52772.388   0.31902715 
  110600    273.07667   -792.80651    142406.13   -49047.804    3750.0505   -52797.854   0.27329558 
  110800    272.24905   -582.04305    142056.09   -49046.153    3738.6851   -52784.838   0.32820227 
  111000    271.83109    -284.1659    141438.92   -49052.756    3732.9454   -52785.702   0.32392185 
  111200    277.16297   -325.15086    141518.09   -49043.783    3806.1659   -52849.949   0.31666774 
  111400     269.4631   -691.74458    142067.64   -49089.877    3700.4267   -52790.303   0.32416799 
  111600    268.59897   -673.06085    142151.65   -49137.782    3688.5601   -52826.342   0.28642948 
  111800    268.72398   -468.20706     141680.5   -49171.161    3690.2767   -52861.438   0.32562078 
  112000    272.01341   -262.74745    141427.92   -49166.194    3735.4492   -52901.643   0.33567581 
  112200    275.11098   -472.31087    141788.09   -49126.001    3777.9868   -52903.988   0.31253626 
  112400    269.34139   -644.05423    142156.92   -49092.204    3698.7554   -52790.959   0.28842956 
  112600    272.65006   -579.59201    141967.28   -49069.071    3744.1919   -52813.263   0.31116659 
  112800    271.61921   -348.01339     141542.5   -49086.218    3730.0358   -52816.254   0.33830269 
  113000    272.10309   -391.94092    141557.43   -49065.263    3736.6808   -52801.944   0.31923613 
  113200    271.19554   -612.72156    141935.27   -49094.934    3724.2177   -52819.152   0.33518899 
  113400    278.09875   -620.94459    142036.57   -49074.237    3819.0167   -52893.254    0.3107749 
  113600    273.54301   -476.47111    141737.38   -49079.701    3756.4545   -52836.155   0.30265574 
  113800    274.49211   -380.16978    141552.03   -49065.746    3769.4882   -52835.234   0.35050589 
  114000    274.09762   -493.96112    141792.55   -49050.602    3764.0708   -52814.673   0.31454899 
  114200    269.09928    -644.6004    142049.63    -49059.75    3695.4306    -52755.18   0.30263531 
  114400    275.53445    -516.3045    141927.08   -49005.615    3783.8022   -52789.417   0.31897909 
  114600    278.64394   -429.72136    141705.73   -48982.293    3826.5035   -52808.797   0.32186222 
  114800    277.64717   -419.44098     141755.5   -48968.634    3812.8153    -52781.45   0.32126162 
  115000    274.89714   -570.62117    141970.74   -48993.269    3775.0503   -52768.319   0.31389081 
  115200    272.69731    -561.6224    141983.88   -49007.139    3744.8409    -52751.98   0.31385947 
  115400    271.44348   -419.27445    141775.76   -49021.081    3727.6226   -52748.704   0.30522451 
  115600    278.56814   -436.44918    141699.52   -49005.971    3825.4626   -52831.434   0.32130659 
  115800    277.23949   -536.08424     141860.5   -49020.312    3807.2168   -52827.528   0.33170637 
  116000    275.57433    -568.6051    141938.71   -49005.226    3784.3498   -52789.576   0.29734544 
  116200     277.5865   -501.80976    141820.37   -49022.504    3811.9821   -52834.486   0.32102841 
  116400    274.59698   -414.11135    141685.75   -49062.077    3770.9283   -52833.005   0.33332537 
  116600    269.86687   -487.21231    141739.45   -49072.904    3705.9717   -52778.876    0.3006418 
  116800    277.75462   -502.84506    141908.08   -49031.062    3814.2909   -52845.353   0.32261721 
  117000    272.35294   -588.41038    141963.49   -49036.644    3740.1118   -52776.756   0.31038138 
  117200    274.06553   -462.48675    141776.63   -49027.893      3763.63   -52791.523   0.31503923 
  117400    270.28037    -396.1833    141650.88   -49054.136      3711.65   -52765.786    0.3300859 
  117600     273.6563   -506.76273    141798.05   -49035.027    3758.0103   -52793.038   0.32433709 
  117800    271.90288   -580.05616    142007.52   -48995.738    3733.9313   -52729.669   0.30324107 
  118000    279.69738   -574.44615     141952.5   -48989.368      3840.97   -52830.338   0.29919284 
  118200    269.82034   -429.91301    141659.09   -49022.381    3705.3326   -52727.714    0.3455746 
  118400    271.31781   -396.44738    141534.14    -49071.26    3725.8967   -52797.156   0.32677159 
  118600    270.80412   -518.64003    141808.49   -49094.522    3718.8424   -52813.364   0.31041086 
  118800    265.59513    -665.6394    142092.08   -49138.907    3647.3095   -52786.217   0.32507112 
  119000    272.12506   -502.94907    141839.32   -49139.017    3736.9824   -52875.999   0.29755111 
  119200    275.34257   -321.03218    141386.33   -49144.156    3781.1672   -52925.323   0.33747562 
  119400    274.43654   -354.80478    141467.76   -49168.277    3768.7251   -52937.002   0.34771532 
  119600    275.75332   -632.27177    142009.26   -49106.491    3786.8078   -52893.299   0.29386937 
  119800    271.38019   -726.72464     142172.1   -49101.152    3726.7534   -52827.906   0.30919257 
  120000     268.3547   -442.09753    141648.32   -49121.791    3685.2056   -52806.997   0.33005195 
  120200    272.25911   -266.49079    141304.08   -49099.877    3738.8232   -52838.701   0.34585744 
  120400    268.79045   -460.96373    141728.68   -49141.683    3691.1896   -52832.873   0.32040931 
  120600    273.43517   -691.71356    142259.87   -49131.118    3754.9736   -52886.091    0.2921397 
  120800    272.53938   -665.80587     142027.6   -49124.801    3742.6721   -52867.473   0.30575551 
  121000    272.97776   -308.68989    141401.14   -49115.131    3748.6922   -52863.824   0.32446002 
  121200     270.0486    -288.1797    141413.62    -49114.54    3708.4672   -52823.007   0.35753636 
  121400    267.22318   -664.67104     142038.5   -49109.251    3669.6668   -52778.918   0.30373372 
  121600    269.46002    -753.7512    142253.36   -49097.062    3700.3845   -52797.446     0.289248 
  121800    273.93058   -475.17607    141712.21   -49100.116    3761.7769   -52861.893   0.34365319 
  122000    272.15509   -208.80443    141307.09   -49081.424    3737.3948   -52818.819   0.32836631 
  122200    269.36771   -472.93078    141701.77   -49050.669    3699.1169   -52749.786   0.32166561 
  122400    277.21381   -727.51851    142269.52    -49001.92    3806.8641   -52808.784   0.29957393 
  122600    278.97228   -611.29326    142146.01   -48928.064    3831.0125   -52759.076   0.28366371 
  122800    275.20581   -372.56378    141623.65   -48932.068    3779.2891   -52711.357   0.33586991 
  123000    277.91018   -327.03524    141601.42   -48978.672    3816.4271   -52795.099     0.324677 
  123200    277.34477    -596.1744    142100.05   -48998.809    3808.6625   -52807.471   0.29998474 
  123400    271.07001   -694.08169    142218.09   -49075.132    3722.4939   -52797.626   0.28990386 
  123600    273.74801   -469.21078    141751.96   -49029.153    3759.2697   -52788.423   0.31833135 
  123800    276.53852   -277.23954    141453.75   -49053.127    3797.5906   -52850.717   0.33564325 
  124000    275.65257   -482.54248    141779.23   -49035.435    3785.4242   -52820.859   0.30991308 
  124200    274.18487   -682.56922    142178.48   -49015.668    3765.2689   -52780.937   0.30987815 
  124400    272.79673   -581.61034    142040.89   -49029.206    3746.2062   -52775.413   0.30505835 
  124600    272.11967     -372.991    141650.54   -49048.583    3736.9083   -52785.491   0.31077831 
  124800    273.76262   -358.55956    141596.38   -49054.533    3759.4703   -52814.003   0.33766508 
  125000    271.84898   -519.15841    141924.24   -49060.122    3733.1911   -52793.313    0.2993314 
  125200    270.58441   -626.44099    142096.69    -49048.88    3715.8253   -52764.706   0.30472376 
  125400    267.49063   -572.44121    141880.49    -49115.04    3673.3397    -52788.38   0.31789314 
  125600    268.65043   -372.49724    141630.82   -49111.447    3689.2667   -52800.714   0.31539836 
  125800    269.86159   -439.33342    141759.77   -49103.558    3705.8991   -52809.457    0.3181125 
  126000    275.34746   -562.50638    142071.53   -49070.664    3781.2343   -52851.899   0.29255474 
  126200     275.6255   -596.42718    142070.95    -49052.95    3785.0525   -52838.003   0.30290247 
  126400     272.4135   -442.17759    141762.23   -49082.437    3740.9434   -52823.381   0.31927064 
  126600    269.81643   -383.62633    141606.52   -49107.493    3705.2789   -52812.772   0.32817305 
  126800    272.12187   -486.11056     141845.1   -49080.456    3736.9387   -52817.394   0.31957108 
  127000     273.1339   -648.20821    142092.24     -49094.1    3750.8363   -52844.937   0.29460146 
  127200    269.85891    -585.4274    141933.35   -49127.567    3705.8623   -52833.429   0.32201073 
  127400    272.79928   -345.57068    141613.05    -49128.71    3746.2411   -52874.951   0.32268784 
  127600    271.76389   -417.25568    141657.01   -49124.428    3732.0226    -52856.45     0.315994 
  127800    271.86399   -612.39346    141966.43   -49112.043    3733.3973    -52845.44   0.31439761 
  128000     264.6734   -592.31289    141990.42   -49107.124    3634.6518   -52741.775   0.30636463 
  128200    273.73109   -445.00512     141707.2   -49077.927    3759.0373   -52836.964   0.33287212 
  128400    272.62816   -370.39252    141618.11   -49104.191    3743.8912   -52848.082   0.33194927 
  128600    272.64044   -514.46818    141859.45   -49132.701      3744.06   -52876.761   0.30641319 
  128800    270.43672   -601.73394    142026.74   -49164.733    3713.7971   -52878.531   0.30003227 
  129000    269.12563   -528.86101    141849.16   -49197.947    3695.7924   -52893.739   0.31057094 
  129200    273.53411   -389.62385    141606.14   -49160.301    3756.3323   -52916.633   0.32696593 
  129400    270.37116   -442.95731     141691.6   -49159.187    3712.8968   -52872.084   0.32181132 
  129600    273.84497   -574.25711    141930.96   -49157.995    3760.6013   -52918.596   0.30267416 
  129800    266.36775   -575.25805    141950.25   -49168.049    3657.9196   -52825.969   0.31462987 
  130000    269.14443   -475.57461    141748.21   -49179.113    3696.0506   -52875.163   0.31310492 
  130200    271.56828   -434.60845    141648.29   -49197.639    3729.3363   -52926.975   0.32537781 
  130400    269.94354    -490.6418    141748.92   -49182.147    3707.0244   -52889.171   0.31822148 
  130600    270.22625    -545.7653    141871.91   -49139.232    3710.9069   -52850.139   0.30543809 
  130800      273.944   -522.86556    141850.23    -49159.75    3761.9611   -52921.712   0.30824403 
  131000    268.75594   -504.98884    141727.29   -49177.507    3690.7156   -52868.223   0.32214552 
  131200    265.22988    -477.9287    141660.23   -49152.749    3642.2937   -52795.043   0.33501322 
  131400    271.37075    -494.1688    141760.78   -49153.881    3726.6237   -52880.504   0.31629212 
  131600    273.68454    -510.7313    141886.44   -49146.019    3758.3981   -52904.417   0.30837835 
  131800    269.80328   -525.58344    141896.98   -49119.277    3705.0984   -52824.375   0.32508233 
  132000    272.90079   -486.90138    141798.59   -49068.328    3747.6352   -52815.964   0.30816437 
  132200    275.06177   -469.21879    141765.67    -49075.65    3777.3111   -52852.961   0.31937142 
  132400    272.60922   -490.89294    141831.59   -49077.296    3743.6311   -52820.927    0.3206852 
  132600    277.51103   -500.97772    141877.06   -49054.456    3810.9457   -52865.402   0.30758896 
  132800    270.55807    -544.1675    141856.11   -49025.585    3715.4636   -52741.048   0.32609469 
  133000    276.99713   -471.10713    141822.05   -49020.399    3803.8886   -52824.287   0.31688648 
  133200    276.64488   -521.40642    141851.96   -48971.602    3799.0513   -52770.653   0.31440186 
  133400    275.24499   -515.15277    141896.97   -48958.737    3779.8271   -52738.564   0.32078767 
  133600    272.97495   -520.83035    141907.19   -48969.356    3748.6536    -52718.01   0.32601481 
  133800    275.13245   -505.33555    141868.18   -48989.203    3778.2817   -52767.485   0.32499475 
  134000    276.17034   -475.97399    141807.57   -48941.736    3792.5346   -52734.271   0.31861871 
  134200    276.22811   -470.10349    141818.39   -48954.568    3793.3279   -52747.896   0.32342786 
  134400    283.53543   -493.83844    141884.66   -48953.595    3893.6763   -52847.271    0.3111067 
  134600    273.37644   -518.34624    141919.43   -48967.944    3754.1671   -52722.111   0.32020194 
  134800    273.82821   -489.94811    141858.88   -49008.433     3760.371   -52768.804   0.33342904 
  135000       274.06   -491.96005    141797.86   -49061.155    3763.5541   -52824.709   0.31505165 
  135200    274.25113   -496.23117    141793.34   -49070.633    3766.1789   -52836.811     0.319586 
  135400    274.16904   -505.73628    141849.06   -49090.687    3765.0515   -52855.739   0.32309622 
  135600    271.57549   -529.10523    141890.15   -49056.342    3729.4353   -52785.777   0.31449448 
  135800    270.76777   -478.69395     141818.6   -49123.543    3718.3433   -52841.886   0.32081921 
  136000    273.98082   -439.48521    141705.32   -49156.049    3762.4668   -52918.515   0.32041829 
  136200    271.37974   -464.64372    141758.47   -49165.612    3726.7472   -52892.359   0.31228165 
  136400    272.79461   -560.14557    141944.78   -49120.371    3746.1771   -52866.548   0.31013946 
  136600    273.33674   -522.58213    141967.93   -49066.608    3753.6219    -52820.23   0.31982952 
  136800    274.21281    -466.3286    141752.91   -49077.155    3765.6526   -52842.808   0.33270621 
  137000    275.86354   -343.45205    141645.94   -49082.063    3788.3215   -52870.384   0.32007342 
  137200    273.47155    -519.8582     141853.7   -49110.057    3755.4732    -52865.53   0.32313405 
  137400    268.32733   -598.39926    142008.48   -49068.088    3684.8297   -52752.918   0.31413493 
  137600    272.48716   -579.85599    141873.84   -49062.082     3741.955   -52804.037   0.31805732 
  137800    271.45876   -407.22294    141686.32   -49038.753    3727.8324   -52766.586   0.34716966 
  138000    279.02266   -434.08543    141768.03   -49036.157    3831.7043   -52867.861   0.31779867 
  138200    270.69927    -590.2546    141969.85   -49081.553    3717.4026   -52798.955   0.31950824 
  138400    274.09353   -548.97395    141932.23   -49067.365    3764.0145    -52831.38    0.3241536 
  138600    274.13063   -449.81792    141710.11   -49082.442    3764.5241   -52846.966   0.32412409 
  138800    274.45517   -394.94965    141678.99    -49035.91    3768.9809   -52804.891   0.32895042 
  139000    276.15685   -579.09619    141910.37   -49022.716    3792.3493   -52815.065   0.31653741 
  139200    274.01862   -582.16585    142016.88   -49021.528    3762.9859   -52784.514   0.31701884 
  139400    272.08583   -481.26812    141830.12   -49047.598    3736.4436   -52784.042   0.32121003 
  139600    273.87319   -396.38372    141644.07   -49032.865    3760.9888   -52793.854   0.33630689 
  139800     276.6911   -460.13195    141778.75   -48994.499     3799.686   -52794.185   0.32269099 
  140000    274.98048   -608.43361    142059.98   -48960.421    3776.1946   -52736.615   0.30691971 
  140200    272.47349   -646.81448    142034.26   -49000.437    3741.7672   -52742.204   0.32691057 
  140400    274.52913   -381.58447    141664.83    -49026.26    3769.9965   -52796.257   0.33380674 
  140600    275.32201   -357.30744    141528.46   -49028.335    3780.8848    -52809.22   0.33974822 
  140800    278.47749   -505.01404    141888.54   -49018.668    3824.2177   -52842.886   0.32186372 
  141000    270.19949   -684.67598    142197.78   -49050.315    3710.5393   -52760.855   0.30391066 
  141200    276.38062   -540.42449    141915.29   -49007.223    3795.4222   -52802.645   0.32812639 
  141400    280.49149   -311.68379    141476.79   -49016.105    3851.8751    -52867.98   0.34020462 
  141600    277.15479   -353.28915    141647.42   -48999.792    3806.0537   -52805.846   0.32260663 
  141800    271.06355    -701.9302     142218.8   -49045.454     3722.405   -52767.859   0.30105146 
  142000    271.31089   -724.53939    142210.15   -49059.559    3725.8018   -52785.361   0.30284769 
  142200    273.04934   -455.21525     141560.5   -49062.012    3749.6752   -52811.687   0.34643358 
  142400    270.76412   -249.51726    141279.48   -49066.743    3718.2931   -52785.036   0.34703608 
  142600    274.62452   -539.90037    141876.28   -49056.035    3771.3065   -52827.342   0.30982634 
  142800    275.18922   -814.23457    142426.27   -49053.108    3779.0613   -52832.169    0.2856355 
  143000    267.24242   -638.58814    141991.19   -49114.683    3669.9311   -52784.614   0.31231969 
  143200    272.72528   -210.72634    141204.98   -49090.243     3745.225   -52835.468    0.3625207 
  143400     274.0597   -295.13211    141344.24   -49057.252      3763.55   -52820.802   0.34604905 
  143600    274.43745   -706.17643     142211.1   -49040.634    3768.7375   -52809.372   0.29907902 
  143800    271.46869   -804.23318    142398.92   -49048.565    3727.9687   -52776.534   0.29286624 
  144000    273.02324   -396.78589    141658.09   -49042.681    3749.3168   -52791.998   0.32118979 
  144200    276.21526   -144.39162    141233.95   -49019.856    3793.1514   -52813.007   0.35918132 
  144400    273.16817   -475.59506    141757.46    -49020.52     3751.307   -52771.827   0.32081384 
  144600    277.06076   -693.53534    142281.92   -48989.122    3804.7623   -52793.884   0.29917735 
  144800    271.96958   -644.95126    142011.11   -48962.543    3734.8472    -52697.39   0.32092377 
  145000    274.16714   -352.54614    141506.72   -49006.697    3765.0255   -52771.723   0.32931611 
  145200    275.75572   -340.88277    141561.41   -49036.993    3786.8407   -52823.834   0.33524502 
  145400    273.92494    -632.9223    142008.76   -49038.292    3761.6995   -52799.991   0.31249419 
  145600    268.17324   -637.76885    142081.33   -49053.479    3682.7136   -52736.193   0.31224874 
  145800    270.31072   -489.78745    141698.32   -49071.196    3712.0668   -52783.262   0.33123156 
  146000    275.68757    -318.3235    141504.84    -49061.41    3785.9049   -52847.314   0.33662927 
  146200    274.88257   -499.31954    141771.98   -49089.259    3774.8502   -52864.109   0.32073669 
  146400    271.60036   -612.68702    142007.23   -49042.017    3729.7769   -52771.794   0.30511206 
  146600     270.4171    -512.3595     141919.7   -49008.109    3713.5277   -52721.636   0.33086519 
  146800    280.91059   -379.69713     141726.3   -48968.955    3857.6305   -52826.585   0.32466508 
  147000    279.00057   -437.44424    141797.31   -48982.701     3831.401   -52814.102   0.31681952 
  147200    277.31341    -555.9823    142026.36   -48950.862    3808.2319   -52759.094   0.31804953 
  147400    272.35708   -588.16618    142051.82   -49011.977    3740.1686   -52752.146   0.30004791 
  147600     273.1526   -451.34017    141807.74   -49026.376    3751.0932    -52777.47   0.32183147 
  147800    279.96135   -378.37799    141689.29   -49068.604     3844.595   -52913.199   0.33584819 
  148000    267.60835   -495.20011    141885.45   -49033.134    3674.9563    -52708.09   0.31653958 
  148200    271.50321   -624.31936    142071.25   -49072.895    3728.4428   -52801.337   0.30288184 
  148400    273.07683   -550.33093    141888.68   -49120.507    3750.0526    -52870.56   0.31233693 
  148600    270.53706   -361.83392    141589.09    -49093.99    3715.1751   -52809.165   0.33191654 
  148800    270.93016   -426.98664    141680.44   -49097.367    3720.5734    -52817.94   0.32482518 
  149000    273.53221   -617.02985    142030.63   -49101.557    3756.3063   -52857.863   0.30793198 
  149200    272.13679   -615.62509    142071.89   -49105.664    3737.1435   -52842.807   0.30479384 
  149400    267.10245   -439.73245    141707.29   -49129.786     3668.009   -52797.794   0.31635284 
  149600    269.35195   -353.54797    141528.79   -49131.558    3698.9004   -52830.458   0.34531642 
  149800    268.77121   -526.30175    141824.97   -49116.794    3690.9253   -52807.719   0.32718246 
  150000    274.02821   -620.13867    142070.78   -49075.407    3763.1176   -52838.525   0.29544084 
  150200    271.19335   -529.91206    141894.58   -49025.069    3724.1876   -52749.256   0.32644066 
  150400    272.43377   -367.87463    141610.19   -48998.951    3741.2217   -52740.173   0.32091959 
  150600    271.64596   -449.94294     141666.4   -49047.321    3730.4031   -52777.725   0.32898459 
  150800     273.9464   -547.90096    141950.31   -49010.145    3761.9942   -52772.139    0.3270299 
  151000    269.58562   -620.99535    141999.77   -49045.959    3702.1093   -52748.068   0.31298852 
  151200     277.3547   -471.83749    141705.95   -49035.867    3808.7989   -52844.666   0.33230009 
  151400    274.21343   -402.24463    141514.53   -48955.047    3765.6612   -52720.708   0.34467972 
  151600    273.67951   -516.31622    141799.25   -48940.945     3758.329   -52699.274   0.32371842 
  151800    278.83391   -651.21204    142138.89    -48948.96    3829.1123   -52778.072   0.30928163 
  152000     279.7635   -534.90003    141988.33   -48950.733     3841.878   -52792.611   0.31152282 
  152200    276.03972   -372.29276    141535.97   -48972.949    3790.7408   -52763.689   0.34007193 
  152400    278.07351   -310.82251    141488.97   -49019.902      3818.67   -52838.572   0.32440806 
  152600    275.53254   -582.68769     141963.2   -48987.377    3783.7759   -52771.152   0.32306905 
  152800    276.01819   -703.79228    142236.67   -48919.517    3790.4452   -52709.962   0.30718199 
  153000    274.54708   -481.37418     141851.1    -48986.65    3770.2429   -52756.893   0.31613418 
  153200    273.81547   -245.79597    141372.76   -48933.734    3760.1962    -52693.93   0.35674077 
  153400    275.83964    -405.8872    141611.26   -48984.597    3787.9932    -52772.59   0.32718635 
  153600    278.21324   -720.73417    142219.74   -49005.709    3820.5889   -52826.298   0.29754758 
  153800    272.78226   -724.58266    142166.04   -49030.842    3746.0075   -52776.849   0.30477145 
  154000    278.84754   -295.33596    141409.91   -49050.525    3829.2995   -52879.824   0.33272145 
  154200    271.90595   -183.88782    141160.33   -49000.758    3733.9734   -52734.731   0.36810629 
  154400    279.08639   -569.90099    141968.98   -48990.966    3832.5794   -52823.545   0.31617057 
  154600    274.87051   -919.82144    142590.98   -49002.844    3774.6845   -52777.529   0.28439806 
  154800    274.84582   -574.09507    141915.62   -49023.845    3774.3455   -52798.191   0.31174046 
  155000    272.54301   -29.039658    140961.01   -49017.702    3742.7219   -52760.424   0.36467874 
[...]
  163200    273.35397   -413.75981    141672.74   -49089.439    3753.8585   -52843.298    0.3200317 
  163400    270.33274    -653.2163    142099.04   -49118.499    3712.3692   -52830.869   0.29851215 
  163600    272.49618   -600.64611    142124.05       -49070    3742.0788   -52812.079   0.30849614 
  163800    272.95555   -412.51461    141721.97   -49130.742    3748.3872   -52879.129   0.31949004 
  164000    270.95626    -313.5527    141478.27   -49148.059    3720.9317    -52868.99   0.33368443 
  164200    273.37419   -474.73946    141811.93   -49144.164    3754.1362     -52898.3   0.31900073 
  164400    273.56121   -723.29372    142237.46   -49085.299    3756.7044   -52842.004   0.28501111 
  164600    277.49262   -602.79066    142023.36   -49067.477    3810.6929   -52878.169   0.31488759 
  164800    271.76687   -286.79508    141479.87   -49107.768    3732.0635   -52839.832   0.33662508 
  165000    278.05363   -302.24263    141501.17   -49086.425     3818.397   -52904.822   0.32911702 
  165200    271.00467   -683.49333    142083.36   -49078.503    3721.5966     -52800.1   0.30655314 
  165400    274.75269   -757.60941    142279.62   -49102.593    3773.0665    -52875.66   0.28767864 
  165600     275.2837   -399.81815    141705.79   -49048.226    3780.3587   -52828.585   0.32423783 
  165800    272.33668   -221.08533    141285.16   -49074.353    3739.8884   -52814.242    0.3515826 
  166000    275.51199   -467.65679    141748.71   -49034.909    3783.4938   -52818.403    0.3352591 
  166200    272.96175   -820.67115    142382.92   -49056.142    3748.4723   -52804.614    0.2899189 
  166400    273.06517   -688.56721    142089.27   -49053.634    3749.8926   -52803.527    0.3112295 
  166600    273.60343   -260.16436    141327.85   -49054.338    3757.2842   -52811.623   0.35142216 
  166800    271.36335   -270.04647       141338   -49111.619    3726.5221   -52838.141   0.32971745 
  167000    272.60233   -647.93438    142092.77   -49107.474    3743.5366    -52851.01   0.31365562 
  167200    269.68411   -819.97582    142387.77   -49053.634    3703.4619   -52757.096   0.30298085 
  167400    271.07678   -480.26947    141763.68    -49102.99    3722.5868   -52825.576   0.32037122 
  167600    271.60308    -207.1421    141260.84   -49089.125    3729.8142   -52818.939    0.3580871 
  167800    274.70637   -439.70349    141644.78   -49152.419    3772.4305   -52924.849   0.32398428 
  168000    269.24687    -738.1794    142225.21   -49135.102    3697.4573   -52832.559   0.29108939 
  168200    270.96662   -644.43047    142052.94   -49133.247    3721.0741   -52854.321   0.30789873 
  168400    270.43792   -351.16437    141476.13    -49097.18    3713.8136   -52810.993   0.33832611 
  168600    278.39402   -286.08156    141448.05   -49109.242    3823.0714   -52932.314   0.34026663 
  168800    268.79085   -592.44069    141958.18   -49143.699    3691.1951   -52834.894   0.31509141 
  169000    273.41014   -699.95792    142121.74   -49128.517    3754.6299   -52883.147   0.31440117 
  169200    272.15868   -462.54306    141775.83   -49102.187    3737.4441   -52839.631   0.32260986 
  169400    272.47402    -345.7218    141550.41   -49128.288    3741.7745   -52870.062   0.32475353 
  169600    274.66439   -470.82645    141723.26    -49137.14     3771.854   -52908.994   0.33450088 
  169800    276.01808   -582.24254     141958.9   -49140.963    3790.4437   -52931.407   0.30377904 
  170000     266.3757   -592.56906    141889.33   -49176.775    3658.0288   -52834.804   0.32028176 
  170200    270.24064   -445.33356     141645.6   -49187.367    3711.1045   -52898.471   0.33601325 
  170400    272.73165   -396.84116    141587.42   -49159.477    3745.3125    -52904.79   0.32821882 
  170600    269.03576   -506.60148    141789.98   -49140.081    3694.5583   -52834.639   0.33483194 
  170800    270.64466    -584.9133    141942.01   -49161.782    3716.6526   -52878.434   0.30899165 
  171000    270.38019   -536.02489    141826.77   -49161.804    3713.0208   -52874.825   0.32200283 
  171200    266.19937    -481.9758    141629.38     -49188.9    3655.6074   -52844.508   0.33512432 
  171400    269.70204   -445.17939    141640.34   -49184.583    3703.7081   -52888.291   0.33260521 
  171600    271.00947    -567.2659    141827.13   -49149.875    3721.6625   -52871.538   0.32818774 
  171800    269.91629   -573.22288    141907.99   -49127.645    3706.6503   -52834.296   0.30302259 
  172000    275.69385   -501.69966    141788.37   -49134.286    3785.9911   -52920.277   0.32763647 
  172200    271.78258   -416.05901    141643.96   -49140.379    3732.2793   -52872.658    0.3225725 
  172400     269.8986   -465.04608    141738.37   -49109.827    3706.4074   -52816.234   0.32069379 
  172600    276.73621   -524.12721    141939.95   -49094.643    3800.3055   -52894.948   0.32852511 
  172800    274.22452   -532.35043    141936.89   -49101.617    3765.8134   -52867.431   0.30467616 
  173000     272.3735    -470.7859    141753.26   -49120.792    3740.3942   -52861.186   0.32939093 
  173200    265.02651   -454.33882    141688.88   -49157.361    3639.5009   -52796.861    0.3319178 
  173400     268.0535   -497.38648    141818.88   -49142.814    3681.0693   -52823.883   0.31654908 
  173600    275.21238   -580.44661     141950.2   -49097.366    3779.3793   -52876.745   0.32323608 
  173800    272.82645   -544.00566    141898.83   -49097.549    3746.6143   -52844.163   0.30853254 
  174000    273.22114   -472.10128    141715.96   -49064.243    3752.0344   -52816.278   0.33560562 
  174200    270.45379   -452.94909    141697.05   -49059.015    3714.0315   -52773.047   0.32908638 
  174400    271.08318   -544.83219    141887.95   -49040.836    3722.6746   -52763.511   0.32153078 
  174600    276.89342   -584.70969    141986.45   -49051.462    3802.4644   -52853.926   0.31623543 
  174800     275.1528   -485.69037    141825.81   -49017.308    3778.5611   -52795.869   0.30661452 
  175000    270.50533   -438.27535    141655.63   -49063.325    3714.7393   -52778.064   0.35341504 
  175200    268.81165   -473.41177    141721.82    -49059.52    3691.4807   -52751.001   0.32264986 
  175400    274.75088    -518.5685    141901.34   -49067.099    3773.0417   -52840.141   0.30374111 
  175600    274.36838   -518.71639    141867.76   -49076.415     3767.789   -52844.204   0.32973535 
  175800    273.14094   -427.47851    141672.79   -49063.178     3750.933   -52814.111   0.31125264 
  176000    278.82516     -448.791    141684.25   -49052.072    3828.9922   -52881.064   0.33221476 
  176200    276.80168   -587.62503    141935.62   -49002.507    3801.2045   -52803.711   0.31837104 
  176400    266.79437   -654.92712    142036.43   -49036.579    3663.7782   -52700.357   0.31203207 
  176600    277.54302   -500.82177    141809.73   -49019.133     3811.385   -52830.518   0.33586734 
  176800    272.39444   -355.86174    141592.05   -49027.495    3740.6816   -52768.177   0.32788996 
  177000    270.80345   -448.85662    141769.48    -49041.24    3718.8332   -52760.073   0.32995453 
  177200    269.84264   -653.61787    142086.91   -49051.604    3705.6388   -52757.243   0.29769313 
  177400    270.53438   -625.38718     141980.3   -49136.395    3715.1382   -52851.533   0.31365905 
  177600    273.06399   -345.80182    141528.66   -49105.455    3749.8763   -52855.331   0.34371888 
  177800    273.74925    -284.5212    141515.49   -49087.095    3759.2867   -52846.382   0.32075167 
  178000    271.69067   -627.71906    142022.42   -49044.235    3731.0171   -52775.253   0.33127784 
  178200    275.21108   -694.82157    142222.45   -49075.495    3779.3615   -52854.856   0.29762682 
  178400    276.38382   -430.43349    141722.71   -49055.681    3795.4661   -52851.147   0.31298086 
  178600     275.4995   -292.76323    141315.29   -49073.764    3783.3222   -52857.086   0.36346759 
  178800    273.48741    -467.1569    141670.43   -49043.052     3755.691   -52798.743   0.32085863 
  179000    275.23293   -724.67728    142251.08   -49013.677    3779.6615   -52793.339   0.30375175 
  179200    275.47472   -675.33741     142136.4   -49035.505    3782.9819   -52818.487   0.30589332 
  179400    272.56509     -350.301    141484.79   -49015.521    3743.0251   -52758.546   0.34088592 
  179600    276.09935    -234.0221    141362.06    -49023.39    3791.5596   -52814.949   0.34163533 
  179800    272.41137   -619.55752    141975.15   -49045.616    3740.9142    -52786.53   0.31051797 
  180000    276.21495   -748.39599    142297.97   -49010.829    3793.1471   -52803.976   0.30824421 
  180200    271.56519   -515.12162    141831.89   -48977.781    3729.2939   -52707.075   0.31417001 
  180400    272.44477   -240.86107    141383.85   -48938.911    3741.3728   -52680.284   0.35677615 
  180600    279.94902   -431.99573    141698.24   -49023.561    3844.4257   -52867.987   0.32826743 
  180800     275.0005   -702.87848    142227.64   -48984.285    3776.4696   -52760.755   0.28001474 
  181000    269.82293    -671.8856    142093.46   -49023.527    3705.3682   -52728.895   0.32768103 
  181200    273.10017   -378.76638    141528.24   -49012.546    3750.3732   -52762.919   0.33057737 
  181400    276.69028   -322.46304    141443.62   -49051.055    3799.6747    -52850.73   0.34877902 
  181600    273.66073   -570.37493    141939.52   -49067.948    3758.0711   -52826.019   0.32988077 
  181800    273.24393   -729.48831    142239.41   -49037.453    3752.3474   -52789.801   0.29310356 
  182000    276.32008   -531.95107    141907.99   -49048.421    3794.5909   -52843.012   0.32357363 
  182200    272.51044   -352.43512    141546.26   -49066.113    3742.2747   -52808.388   0.32738075 
  182400    274.05043   -410.98742    141683.95   -49067.173    3763.4227   -52830.595   0.33018854 
  182600    272.46314   -611.60514    142050.54   -49030.172    3741.6251   -52771.797   0.31144089 
  182800    276.11707   -610.63586    142066.67     -48996.5     3791.803   -52788.303   0.30428043 
  183000    275.32456   -449.52333    141745.83   -48999.764    3780.9198   -52780.684   0.34184514 
  183200    278.86711   -360.75875    141607.39   -48984.932    3829.5683   -52814.501   0.31776146 
  183400    274.28826   -495.10197    141858.81   -48991.115    3766.6888   -52757.804   0.32700207 
  183600     274.7618   -671.97114    142085.53   -49017.483    3773.1916   -52790.674   0.31181354 
  183800    274.28332   -541.08739    141910.32   -49049.075    3766.6208   -52815.696   0.30497455 
  184000    276.15751   -436.80124    141664.11   -49063.893    3792.3584   -52856.251   0.35036707 
  184200    272.81852   -453.81778    141718.25   -49103.776    3746.5054   -52850.282   0.32127343 
  184400    267.96455   -583.05577    141918.93   -49111.592    3679.8478    -52791.44   0.31458022 
  184600    275.25571   -574.56087    141924.95   -49118.212    3779.9743   -52898.186   0.31485649 
  184800    271.89558   -456.33566    141743.05   -49107.898    3733.8311   -52841.729   0.32368324 
  185000    274.16082   -431.29257    141670.11   -49099.483    3764.9386   -52864.421   0.33629527 
  185200    272.48535   -499.80508    141749.93    -49151.58    3741.9301    -52893.51   0.31922765 
  185400    271.23814   -520.80212    141817.61   -49129.913    3724.8027   -52854.716   0.33061752 
  185600    275.14704   -486.53336    141784.21   -49133.239    3778.4819   -52911.721   0.30980279 
  185800    272.94268   -468.28104    141736.97    -49081.85    3748.2104    -52830.06   0.32078754 
  186000    270.25882   -484.04907     141778.5   -49067.842    3711.3541   -52779.196   0.33758486 
  186200     272.0322   -533.17153    141843.81   -49059.253    3735.7072   -52794.961   0.30817153 
  186400    275.10535   -542.17687    141866.52   -49012.281    3777.9096    -52790.19   0.32897475 
  186600    274.51031   -468.44778    141855.01   -49043.543     3769.738   -52813.282   0.31928316 
  186800    277.12773   -514.68578    141849.78   -49069.012     3805.682   -52874.695   0.30728358 
  187000    270.92395   -490.44435    141811.27   -49041.483    3720.4881   -52761.971   0.33596631 
  187200    273.97485   -501.53014    141750.27   -49060.708    3762.3848   -52823.093    0.3180457 
  187400     275.9256   -452.50821    141781.21   -49048.595    3789.1736   -52837.768    0.3228633 
  187600    276.69735   -491.94045    141859.35   -49085.677    3799.7718   -52885.449   0.31699543 
  187800    271.80661   -503.15279    141837.53   -49074.813    3732.6093   -52807.422   0.32117145 
  188000    276.21104   -495.35252    141773.42   -49050.933    3793.0935   -52844.027   0.33147863 
  188200    277.87345   -427.61166    141761.76   -49042.142    3815.9227   -52858.065    0.3099719 
  188400    272.99117   -515.10619    141828.47   -49029.683    3748.8763   -52778.559    0.3284851 
  188600     276.0236     -520.961    141887.28   -49035.135    3790.5194   -52825.655   0.30396211 
  188800    272.60955   -531.55948    141846.62   -49048.012    3743.6357   -52791.648   0.31154436 
  189000    273.69158   -441.36912    141779.31   -49042.538    3758.4948   -52801.033   0.33307786 
  189200    275.10934   -516.05175    141836.97   -49046.264    3777.9643   -52824.228   0.30961597 
  189400    276.44741   -518.50087    141897.11    -49009.19    3796.3394   -52805.529   0.32710525 
  189600    275.06148   -492.24595    141845.94   -49022.883    3777.3071    -52800.19   0.30866303 
  189800    275.87535   -447.17952    141730.65   -49060.358    3788.4836   -52848.842   0.31474999 
  190000    269.10333   -450.00061    141714.84     -49089.6    3695.4862   -52785.086   0.32872581 
  190200    267.87317   -480.30266    141828.75   -49064.292    3678.5929   -52742.885   0.31496634 
  190400    270.38251   -576.84431    141937.33   -49062.472    3713.0527   -52775.525   0.33491725 
  190600    273.54892   -527.34902    141846.28   -49009.572    3756.5357   -52766.108   0.31478065 
  190800    268.68377   -433.51601     141697.1   -49040.829    3689.7246   -52730.554   0.33985188 
  191000    278.35864   -470.60356    141734.34   -49054.378    3822.5856   -52876.964   0.33110053 
  191200    276.01381   -571.95851    141901.04   -49046.808     3790.385   -52837.193   0.29677882 
  191400    273.21755   -504.21682     141917.6    -49069.09    3751.9851   -52821.075   0.32581539 
  191600    271.76757    -476.3824    141756.22   -49028.798    3732.0731   -52760.871   0.33119768 
  191800    276.16964   -415.77322    141659.42    -49061.79     3792.525   -52854.315   0.32922169 
  192000    274.75672   -532.28874    141793.59   -49061.593    3773.1219   -52834.715    0.3204115 
  192200    278.26692   -591.06917    141955.08   -49031.546     3821.326   -52852.872   0.31642894 
  192400    276.38592   -516.42742    141887.56   -49038.598     3795.495   -52834.093   0.31500584 
  192600    271.53612   -472.43847    141691.36   -49068.744    3728.8947   -52797.639   0.31478402 
  192800    277.40199   -432.91687    141638.44   -49046.673    3809.4484   -52856.121    0.3490085 
  193000    275.37221   -521.88753    141788.91   -49035.916    3781.5741    -52817.49   0.32094015 
  193200    276.59621    -583.8593    141908.17   -48989.455    3798.3828   -52787.837   0.31681908 
  193400    270.91743   -527.48484    141807.77   -48991.278    3720.3986   -52711.677   0.35600403 
  193600    274.16371   -415.40992    141656.12   -49003.962    3764.9783    -52768.94   0.32168224 
  193800     278.3157   -471.05565       141736   -49048.992     3821.996   -52870.988   0.32702221 
  194000    270.98441   -584.80222    141895.18   -49071.534    3721.3182   -52792.852   0.32612153 
  194200    274.02954   -546.87928    141862.52   -49059.121    3763.1358   -52822.257    0.3219893 
  194400    275.98928   -473.50533    141746.39   -49042.319    3790.0481   -52832.367   0.33185009 
  194600    270.77832   -458.66019    141744.43   -49065.723    3718.4882   -52784.211   0.32821627 
  194800    276.37321   -535.88728    141868.24   -49052.501    3795.3205   -52847.822   0.33123101 
  195000    276.53229   -546.46251    141910.31   -49035.891     3797.505   -52833.396   0.30053968 
  195200    276.47141   -507.23359    141802.89   -49022.119     3796.669   -52818.788   0.32361972 
  195400    273.89183    -462.1392    141696.26   -49024.282    3761.2448   -52785.527   0.34187558 
  195600    280.28028   -483.35794    141755.24   -49028.139    3848.9747   -52877.113   0.30987445 
  195800    271.09578   -575.64847    141853.88   -49069.437    3722.8477   -52792.285   0.33958638 
  196000    273.53666   -517.13235    141827.17   -49041.594    3756.3673   -52797.961   0.32039993 
  196200    277.26027   -434.23254    141702.78   -49030.733    3807.5021   -52838.235   0.32220054 
  196400    277.55607   -438.56106    141690.59   -49030.545    3811.5643   -52842.109   0.33852413 
  196600    271.24408   -523.85721    141792.44   -49090.852    3724.8842   -52815.736   0.32154229 
  196800      277.178   -538.06923    141855.94   -49082.111    3806.3723   -52888.483   0.32966958 
  197000    273.57294   -487.02438     141768.8   -49091.993    3756.8656   -52848.859   0.32491658 
  197200     270.3944   -487.54814    141671.88   -49145.309     3713.216   -52858.525   0.33005933 
  197400    273.44395   -461.89653    141694.95   -49105.214    3755.0942   -52860.308   0.32072884 
  197600    275.25891   -494.76512    141804.07   -49022.652    3780.0183    -52802.67   0.31889405 
  197800    275.03037   -513.48414    141854.65   -49009.219    3776.8798   -52786.099   0.33589517 
  198000    269.79322   -476.38915    141742.29   -49037.022    3704.9602   -52741.982   0.32405767 
  198200    270.31945   -447.88018    141621.07   -49062.699    3712.1866   -52774.885    0.3367221 
  198400    274.20957   -459.37139    141727.29   -48993.271    3765.6082   -52758.879   0.33416087 
  198600    277.09163   -595.07699    141938.52   -48982.693    3805.1863   -52787.879   0.30040124 
  198800    270.61766   -583.18691     141910.6   -49012.726    3716.2819   -52729.008   0.33103833 
  199000    273.14509   -400.05756    141626.73    -49021.06      3750.99    -52772.05   0.32362457 
  199200    273.10143   -363.66425    141523.27   -49015.717    3750.3905   -52766.108    0.3351493 
  199400    272.83625   -528.86548    141793.84   -49024.683    3746.7488   -52771.432   0.33080606 
  199600    272.50809   -659.08902    142014.26   -49043.572    3742.2424   -52785.814   0.31608311 
  199800    274.53071   -526.44843    141764.06   -49024.496    3770.0182   -52794.514   0.33906359 
  200000    272.43881   -345.12401    141420.89   -49045.199     3741.291    -52786.49   0.33420359 
Loop time of 235.041 on 6 procs for 200000 steps with 4608 atoms

Performance: 367.596 ns/day, 0.065 hours/ns, 850.917 timesteps/s
99.0% CPU use with 6 MPI tasks x no OpenMP threads

MPI task timing breakdown:
Section |  min time  |  avg time  |  max time  |%varavg| %total
---------------------------------------------------------------
Pair    | 194.3      | 195.03     | 196.51     |   5.0 | 82.98
Neigh   | 12.795     | 13.085     | 13.571     |   9.3 |  5.57
Comm    | 15.546     | 16.639     | 17.699     |  17.0 |  7.08
Output  | 3.0351     | 3.0362     | 3.0401     |   0.1 |  1.29
Modify  | 5.6997     | 5.8241     | 5.9265     |   3.1 |  2.48
Other   |            | 1.43       |            |       |  0.61

Nlocal:        768.000 ave         777 max         754 min
Histogram: 1 0 0 1 1 0 0 0 1 2
Nghost:        1685.00 ave        1699 max        1660 min
Histogram: 1 0 1 0 0 0 1 0 0 3
Neighs:        0.00000 ave           0 max           0 min
Histogram: 6 0 0 0 0 0 0 0 0 0
FullNghs:      24256.7 ave       24541 max       23749 min
Histogram: 1 0 0 0 1 1 0 0 1 2

Total # of neighbors = 145540
Ave neighs/atom = 31.584201
Neighbor list builds = 13230
Dangerous builds = 0
write_data		data.${NAME}
write_data		data.ice_274K_-500atm_mW
System init for write_data ...
Total wall time: 0:05:49
