
# Define the lattice
#
variable	    lattice_constant equal 6.36339
lattice		    diamond ${lattice_constant}
lattice		    diamond 6.36339
Lattice spacing in x,y,z = 6.3633900 6.3633900 6.3633900

# Define region
# multiples of lattice spacing
#
region 		    simbox block 0 9 0 8 0 8

# Create Atoms
#
create_box          1 simbox
Created orthogonal box = (0.0000000 0.0000000 0.0000000) to (57.270510 50.907120 50.907120)
  3 by 1 by 2 MPI processor grid
create_atoms        1 box
Created 4608 atoms
  create_atoms CPU = 0.001 seconds
mass                1 18.015

# Define potential
#
pair_style          sw
pair_coeff          * * /data/emrosky-sim/Freezing_Simulations/Melting/mW_fancy/mW.sw mW
Reading sw potential file /data/emrosky-sim/Freezing_Simulations/Melting/mW_fancy/mW.sw with DATE: 2019-02-27

# Add velocity/set timestep
#
velocity            all create ${TEMP} 120598 rot yes dist gaussian
velocity            all create 274 120598 rot yes dist gaussian
timestep            5.0

# Define output
#
compute	            1 all msd
thermo              100
thermo_style        custom step temp press vol etotal ke pe c_1[4]

# Neighbor lists
#
neigh_modify        delay 0 every 1 check yes

# Set fixes
#
fix                 1 all momentum 10 linear 1 1 1 rescale
fix                 2 all nve
fix                 3 all temp/csvr ${TEMP} ${TEMP} 500.0 928347
fix                 3 all temp/csvr 274 ${TEMP} 500.0 928347
fix                 3 all temp/csvr 274 274 500.0 928347
fix                 4 all press/berendsen iso ${PRES} ${PRES} 1000.0 modulus 20000
fix                 4 all press/berendsen iso -500 ${PRES} 1000.0 modulus 20000
fix                 4 all press/berendsen iso -500 -500 1000.0 modulus 20000

# Run 0.5 ns equilibration
#
dump		    1 all custom 1000 eq.${NAME}.dump id type x y z vx vy vz
dump		    1 all custom 1000 eq.ice_274K_-500atm_mW.dump id type x y z vx vy vz
run                 100000
Neighbor list info ...
  update every 1 steps, delay 0 steps, check yes
  max neighbors/atom: 2000, page size: 100000
  master list distance cutoff = 6.3065
  ghost atom cutoff = 6.3065
  binsize = 3.15325, bins = 19 17 17
  1 neighbor lists, perpetual/occasional/extra = 1 0 0
  (1) pair sw, perpetual
      attributes: full, newton on
      pair build: full/bin/atomonly
      stencil: full/bin/3d
      bin: standard
Per MPI rank memory allocation (min/avg/max) = 4.778 | 4.778 | 4.778 Mbytes
Step Temp Press Volume TotEng KinEng PotEng c_1[4] 
       0          274   -4574.7557    148418.52   -52790.792    3762.7302   -56553.522            0 
     100    217.88678   -1088.7958    141739.52   -51619.743    2992.1502   -54611.893   0.24633674 
     200    216.35628    -527.3306    141152.66   -50736.169    2971.1325   -53707.301   0.32333093 
     300    225.79455   -470.68509    141304.83   -50166.025    3100.7444    -53266.77   0.33661768 
     400     245.0463   -501.57451    141497.13    -49778.47    3365.1208    -53143.59   0.30591242 
     500    262.55098   -520.49069    141637.18   -49504.388    3605.5055   -53109.893   0.31797377 
     600    261.45385   -448.79183    141758.59   -49240.439     3590.439   -52830.878   0.34180663 
     700    269.01002   -451.74294    141789.31   -49170.548    3694.2048   -52864.753   0.28980984 
     800    270.76989   -518.48665    141826.41   -49086.767    3718.3724    -52805.14   0.32294097 
     900    267.82093   -497.23901    141896.83    -49072.31    3677.8755   -52750.186   0.31860557 
    1000    277.15018   -458.01168    141851.17   -49117.709    3805.9904     -52923.7   0.30260104 
    1100     274.6925    -490.0459    141877.37   -49057.122    3772.2401   -52829.362   0.29813975 
    1200    280.60428   -468.80444    141874.76   -49059.831    3853.4241   -52913.255   0.30966177 
    1300     273.8461   -510.22838    141875.36   -48969.625    3760.6167   -52730.242   0.33351014 
    1400    273.82401   -504.28026    141879.66   -49061.298    3760.3134   -52821.611   0.29325077 
    1500    269.97693   -530.89632    141855.79   -49098.624     3707.483   -52806.107   0.31806871 
    1600    280.92696   -509.93359    141861.02   -49039.047    3857.8553   -52896.902   0.32835995 
    1700    273.26254   -499.56578    141880.35    -49061.56     3752.603   -52814.163    0.2970535 
    1800    272.99971   -488.92573    141889.58   -49054.598    3748.9936   -52803.591    0.3001805 
    1900    273.35264   -482.32937    141906.21   -48961.917    3753.8403   -52715.758   0.32210626 
    2000    278.27833    -488.8071    141921.04   -48914.261    3821.4827   -52735.744   0.32236512 
    2100     269.5293   -504.60629    141900.03   -49073.296    3701.3359   -52774.632   0.29278187 
    2200    275.36803   -550.67804    141888.82   -49019.662    3781.5168   -52801.179   0.31609954 
    2300    278.73248   -501.24841    141884.01   -48950.572    3827.7194   -52778.292   0.33183137 
    2400    278.62206   -496.03809     141893.6   -48972.653     3826.203   -52798.856   0.29413926 
    2500    275.90802    -501.9721    141878.45   -49013.954    3788.9322   -52802.886   0.30902364 
    2600    272.91202   -508.95149    141866.47   -49046.756    3747.7894   -52794.545   0.33087342 
    2700    275.64719    -477.8204    141869.64   -49028.024    3785.3504   -52813.374   0.31252597 
    2800    276.03404   -477.70616     141865.3   -48931.997    3790.6628    -52722.66   0.30261078 
    2900    279.70231     -509.546    141906.45   -48948.447    3841.0377   -52789.485   0.33023004 
    3000    276.32912   -506.80993    141866.43   -49005.751     3794.715   -52800.466   0.32265469 
    3100    274.41731   -494.20196    141867.72   -48980.977    3768.4609   -52749.438   0.30189975 
    3200    275.06039   -507.81758    141865.14     -49088.9     3777.292   -52866.192   0.32253292 
    3300    274.99253   -481.99654    141806.71   -49140.749    3776.3601    -52917.11   0.32451823 
    3400    270.63016   -514.73205     141824.7   -49080.308    3716.4536   -52796.761   0.30034319 
    3500    271.06806   -488.86973    141800.49   -49040.872     3722.467   -52763.339    0.3240263 
    3600    276.65773   -510.80437    141813.91   -49051.394    3799.2277   -52850.622   0.33916129 
    3700    275.04112   -524.50631    141818.85   -49013.967    3777.0275   -52790.995   0.31725698 
    3800    276.48645   -490.88038    141841.45   -49001.472    3796.8755   -52798.348   0.30549639 
    3900    275.98085   -504.41378    141831.02   -49004.005    3789.9324   -52793.937   0.34376931 
    4000    276.38396   -519.98609    141798.52   -49048.253    3795.4682   -52843.721   0.32574106 
    4100    270.60024   -504.34074    141815.61   -49063.654    3716.0427   -52779.697   0.30696775 
    4200     275.2663   -479.92485    141818.09   -49020.599    3780.1198   -52800.719    0.3221154 
    4300    271.41239   -550.91578    141805.98   -49152.556    3727.1956   -52879.752   0.32843166 
    4400    272.97217   -533.35735    141810.26   -49041.664    3748.6155    -52790.28   0.32050925 
    4500    271.10892   -516.62728    141830.73    -49101.43    3723.0281   -52824.458   0.30949455 
    4600    267.49552   -484.71799    141782.33   -49127.414    3673.4068   -52800.821   0.33958649 
    4700    275.10527    -513.6975     141786.5   -49030.755    3777.9084   -52808.664   0.31900335 
    4800      277.891   -481.99034    141818.49    -48937.26    3816.1637   -52753.423   0.31195686 
    4900    276.50669   -505.54149    141839.95   -48905.161    3797.1535   -52702.315    0.3341338 
    5000    274.17141   -495.02737    141863.16   -49035.103     3765.084   -52800.187   0.33151447 
    5100    277.69083   -483.88929    141831.32   -48956.932    3813.4148   -52770.347    0.3072557 
    5200    279.83731   -509.50924    141834.67   -49033.233    3842.8915   -52876.125   0.31743671 
    5300    270.87096   -501.84833     141764.8   -49127.326    3719.7603   -52847.086   0.35063228 
    5400    271.46495   -508.10806    141751.11   -49100.085    3727.9173   -52828.003   0.31150693 
    5500    271.52288   -461.74899    141755.06    -49064.87    3728.7129   -52793.583   0.31740718 
    5600     270.7655    -476.1341     141735.2   -49093.512    3718.3121   -52811.825   0.34166104 
    5700    270.89411   -517.35018    141754.35   -49088.786    3720.0782   -52808.865   0.33038694 
    5800    277.70718   -484.37902    141782.11   -49029.129    3813.6394   -52842.768   0.31425606 
    5900      271.149   -520.19258    141756.31   -49103.969    3723.5786   -52827.548   0.33025496 
    6000    273.48334   -445.19863    141744.23   -49080.591    3755.6352   -52836.226   0.33633344 
    6100    267.52711   -503.48529    141758.32   -49162.478    3673.8406   -52836.318   0.30182659 
    6200    271.81171   -507.59155    141761.39   -49143.341    3732.6793    -52876.02   0.32169792 
    6300    273.68716   -478.56277    141770.26   -49025.254    3758.4341   -52783.688    0.3352062 
    6400    279.07213   -500.02149    141807.92   -49079.868    3832.3836   -52912.252   0.30211684 
    6500    269.50455   -529.00828    141789.63   -49094.128     3700.996   -52795.124   0.32185015 
    6600    270.44577    -508.8758     141797.5   -49101.787    3713.9213   -52815.708   0.32641381 
    6700    269.83454    -531.2831     141794.9   -49149.748    3705.5277   -52855.276   0.32496593 
    6800    269.98567   -508.00302    141797.14   -49110.052    3707.6031   -52817.655   0.31034336 
    6900     272.5993   -508.44157    141807.51   -49033.766    3743.4949   -52777.261   0.31873187 
    7000    273.27348   -510.30203    141827.76   -49034.491    3752.7532   -52787.244   0.33480716 
    7100    272.30965   -497.29484    141814.96   -49042.968    3739.5173   -52782.485   0.30204444 
    7200    272.76059   -538.76014    141773.93   -49149.068    3745.7099   -52894.778   0.32180972 
    7300     268.7303   -534.03311     141753.6   -49195.434    3690.3635   -52885.798   0.33170042 
    7400    271.90139   -497.18433    141764.57   -49088.423    3733.9108   -52822.334   0.31617221 
    7500    274.10334   -484.21932    141827.83   -49029.189    3764.1493   -52793.338   0.30570843 
    7600    270.63771   -502.48577    141825.63    -49002.67    3716.5572   -52719.227   0.32164045 
    7700     271.5377   -508.25096    141831.27   -49096.741    3728.9165   -52825.658   0.33062573 
    7800    270.29723   -498.20199    141796.97    -49149.57    3711.8815   -52861.452   0.29333734 
    7900    273.41844   -511.18947     141778.8   -49101.315    3754.7438   -52856.059   0.33271031 
    8000     277.5961   -501.55536    141826.52   -48998.129     3812.114   -52810.243   0.33179283 
    8100    271.90107   -481.94478    141840.55   -48970.633    3733.9064   -52704.539   0.30691085 
    8200    276.59534    -472.8673    141828.38    -48988.12     3798.371   -52786.491   0.32094703 
    8300    280.71671   -469.01003    141842.37   -48947.949    3854.9681   -52802.917   0.31888094 
    8400    277.70424   -525.01344    141850.79   -48926.612    3813.5991   -52740.211   0.32780865 
    8500    277.36033   -470.58938    141834.33   -49008.846    3808.8762   -52817.722   0.30837464 
    8600    275.27538   -496.16008    141833.65   -49023.064    3780.2445   -52803.308   0.32663332 
    8700    276.85249   -483.08647    141832.08   -48996.795    3801.9023   -52798.697   0.32429057 
    8800    274.35302   -490.83733    141798.18   -49026.208    3767.5781   -52793.786   0.30626639 
    8900    273.44746   -491.04591    141789.53   -49091.721    3755.1424   -52846.863   0.33189733 
    9000    270.43203   -512.08043    141816.73   -49026.836    3713.7327   -52740.568   0.32863485 
    9100    271.59042   -531.33896    141810.67   -49074.691    3729.6405   -52804.331   0.31674789 
    9200    275.68065   -489.45671    141832.67   -48969.104    3785.8099   -52754.914   0.31137688 
    9300    269.61461   -504.91709    141815.59   -49111.875    3702.5075   -52814.382   0.33048757 
    9400    274.41464   -490.18112    141782.33   -49077.529    3768.4243   -52845.954   0.31516767 
    9500    270.10021   -488.12393    141778.42    -49117.03     3709.176   -52826.206   0.31341151 
    9600    271.09616   -515.78919    141789.72    -49112.34     3722.853   -52835.193   0.32722209 
    9700    276.09234   -512.12118    141821.43   -48996.077    3791.4635    -52787.54   0.32142001 
    9800    279.92887     -493.501     141831.3   -48950.471     3844.149    -52794.62   0.30675054 
    9900    279.08658   -504.04177     141834.4   -48978.091    3832.5821   -52810.673   0.32011972 
   10000    275.48111   -502.90145    141846.35   -49033.999    3783.0696   -52817.069   0.33512563 
   10100    277.41103   -487.29586    141805.78   -48980.874    3809.5725   -52790.446   0.30854732 
   10200    276.99103   -520.02202    141871.54   -48959.668    3803.8048   -52763.473   0.32457451 
   10300    273.04814   -496.20295    141877.22   -48956.558    3749.6587   -52706.216   0.32985702 
   10400    275.86882   -506.64909    141878.88   -48960.902    3788.3939   -52749.296   0.30938875 
   10500    268.32267    -527.6646    141844.84   -49004.742    3684.7657   -52689.508   0.31511476 
   10600    274.05143   -505.46191    141833.41   -49028.659    3763.4365   -52792.095   0.32261794 
   10700    275.26036   -513.49803    141828.68   -49053.577    3780.0382   -52833.615   0.32554525 
   10800    271.62272   -495.43447    141817.18   -49178.938    3730.0839   -52909.021   0.29773431 
   10900    269.96219   -477.95939     141792.6    -49166.83    3707.2806    -52874.11   0.31915333 
   11000    269.02683   -523.61056    141809.18   -49177.411    3694.4356   -52871.847   0.31820322 
   11100    276.96686   -487.38875    141841.62   -49087.579    3803.4728   -52891.052    0.3000147 
   11200    267.46122   -496.44238    141826.51   -49195.901    3672.9358   -52868.836   0.31622298 
   11300    273.11219    -487.5599    141818.59   -49112.423    3750.5382   -52862.961    0.3158305 
   11400    266.95234   -486.41315    141839.45   -49092.788    3665.9476   -52758.736    0.3158055 
   11500    277.48958   -496.31787    141848.64   -48994.157    3810.6512   -52804.808   0.30435792 
   11600    273.80047   -490.16942    141887.22   -48993.846    3759.9901   -52753.836   0.31712521 
   11700    278.24612    -506.6174    141920.27   -48872.599    3821.0404    -52693.64   0.32325415 
   11800    277.80294   -498.25368    141916.71   -48938.149    3814.9544   -52753.103   0.29761578 
   11900    278.86138   -505.12555    141889.08   -48987.504    3829.4895   -52816.993   0.31711917 
   12000    277.16656   -501.78499    141911.52   -48947.928    3806.2153   -52754.144   0.32007369 
   12100    276.03889    -466.6414    141887.18   -49006.607    3790.7294   -52797.337   0.30144676 
   12200    277.27688   -479.89964    141865.84   -49007.576    3807.7302   -52815.306   0.30668899 
   12300    271.83292   -484.36355     141828.4    -49061.37    3732.9706   -52794.341   0.32342407 
   12400    270.56456   -502.21106    141841.71    -49053.71    3715.5527   -52769.262   0.31939575 
   12500    270.93579   -488.48754    141841.25   -48979.469    3720.6506    -52700.12   0.30214584 
   12600    276.26342   -438.16499    141894.31   -48955.853    3793.8127   -52749.666   0.32507642 
   12700    270.57728   -526.37538    141880.35   -49025.781    3715.7274   -52741.508   0.32635023 
   12800    278.76864    -450.2516    141889.58   -49012.815    3828.2159   -52841.031   0.29145868 
   12900    274.34149   -506.76289    141859.05   -49066.739    3767.4198   -52834.159   0.32561573 
   13000     277.5061   -470.72264    141868.94   -49040.154    3810.8781   -52851.032   0.31896141 
   13100    270.54335   -512.87319    141842.03   -49103.303    3715.2614   -52818.565   0.30869977 
   13200    268.93744    -531.5628    141817.69   -49129.011    3693.2082   -52822.219   0.31315256 
   13300    269.64244   -554.88752    141812.29    -49214.58    3702.8896    -52917.47   0.32773905 
   13400    275.51462   -503.86272    141759.04   -49195.332    3783.5298   -52978.862   0.31538166 
   13500    272.30075   -492.09493    141789.74    -49111.77     3739.395   -52851.165   0.30418873 
   13600    274.82231   -494.05104    141811.93   -49063.651    3774.0226   -52837.673    0.3317889 
   13700    276.05181   -468.17339    141796.39   -49093.175    3790.9068   -52884.082   0.31364383 
   13800     273.0854    -535.4695    141805.11   -49049.061    3750.1703   -52799.231   0.31269038 
   13900     276.8675   -478.92714    141802.04   -49034.677    3802.1084   -52836.786   0.32669872 
   14000    278.33775   -444.20485    141862.69   -48928.396    3822.2987   -52750.695    0.3227049 
   14100    272.35581   -511.64274    141846.19   -49012.158    3740.1512    -52752.31    0.3150549 
   14200    273.19241   -471.30684    141852.38   -49021.601    3751.6399    -52773.24   0.30888923 
   14300    272.80145   -513.19477    141840.73   -49059.332     3746.271   -52805.603   0.33319206 
   14400    267.89876   -515.78691    141808.68    -49111.93    3678.9443   -52790.874   0.31738968 
   14500    270.40741   -517.46137    141777.26   -49130.969    3713.3946   -52844.364   0.31339837 
   14600    274.70339    -492.4737    141794.78   -49079.466    3772.3896   -52851.856   0.33461187 
   14700    278.94046   -484.83112    141822.83   -49036.316    3830.5755   -52866.892   0.31890503 
   14800    277.89986   -489.73473    141835.65   -49015.716    3816.2854   -52832.001   0.31156468 
   14900    273.21486    -524.4435    141842.66   -49020.629    3751.9482   -52772.578   0.32160324 
   15000     272.2652   -489.22078    141817.82   -49075.383    3738.9069    -52814.29   0.32891737 
   15100    270.24103   -508.08814    141799.93    -49089.59    3711.1098     -52800.7   0.31532849 
   15200    273.67971   -478.05508    141806.44   -49020.739    3758.3317   -52779.071   0.31455299 
   15300    273.39367   -514.75829       141812   -49106.182    3754.4036   -52860.586   0.33170117 
   15400    274.17352   -471.10427    141827.12   -49100.666     3765.113   -52865.779   0.31410915 
   15500    274.73275   -464.24934    141839.76   -49043.776    3772.7928   -52816.568   0.30670877 
   15600    278.93945   -503.61662    141879.21   -48931.312    3830.5616   -52761.874   0.32306861 
   15700    278.85934   -467.85458     141900.8   -48938.328    3829.4616    -52767.79   0.32268572 
   15800    276.36571    -547.5446    141893.17   -48945.592    3795.2175    -52740.81   0.31072465 
   15900      278.516   -510.72953    141874.39   -48966.656    3824.7466   -52791.402    0.3070669 
   16000    272.29066   -515.60071    141858.81   -49012.308    3739.2565   -52751.565   0.33299022 
   16100    273.59333   -505.46636    141797.51   -49041.379    3757.1456   -52798.524   0.31893645 
   16200    276.63613   -493.84002     141833.4   -49052.981    3798.9311   -52851.912   0.30178768 
   16300    274.77041   -509.15424    141825.52   -49069.011    3773.3099   -52842.321   0.33560128 
   16400    272.15509   -532.34331    141844.67   -49079.091    3737.3948   -52816.486   0.31782665 
   16500     271.7832   -475.81528    141854.64   -49003.656    3732.2878   -52735.944   0.29929213 
   16600    279.71947   -482.38476    141881.77   -48932.645    3841.2734   -52773.918   0.32836333 
   16700    277.46083   -522.71033    141879.31   -48974.883    3810.2564    -52785.14   0.31944275 
   16800    277.68228   -504.42419    141848.61   -49023.629    3813.2974   -52836.927   0.29085884 
   16900    276.89433   -487.00767    141850.65   -49050.275    3802.4768   -52852.752   0.31589451 
   17000    276.89647    -488.6455    141839.48   -49096.813    3802.5062    -52899.32   0.32269479 
   17100    276.71991   -489.94993    141828.03   -49049.454    3800.0816   -52849.535   0.30285598 
   17200    273.31727   -517.86708    141810.47   -49108.154    3753.3545   -52861.509   0.31123553 
   17300    270.65625   -525.37338     141788.7   -49196.005    3716.8118   -52912.816   0.32397931 
   17400    265.60229   -519.63408    141800.12   -49186.857    3647.4079   -52834.265   0.30603177 
   17500    267.97837   -504.20314    141822.13   -49085.236    3680.0377   -52765.274    0.3032025 
   17600    270.97853   -522.98321    141846.48   -49099.168    3721.2376   -52820.405   0.32805934 
   17700    269.90283   -510.61409    141842.64   -49156.139    3706.4654   -52862.604   0.31154334 
   17800    273.69243   -467.35922    141849.29   -49109.745    3758.5065   -52868.252   0.30018627 
   17900    273.03319   -449.89139    141854.34   -49054.209    3749.4533   -52803.663   0.30938017 
   18000      276.673   -489.04908    141886.75   -48972.615    3799.4373   -52772.052    0.3203214 
   18100    274.55333   -497.93198    141894.32   -48981.084    3770.3288   -52751.413   0.31672332 
   18200    278.40238   -476.20997    141861.19   -49019.285    3823.1863   -52842.471   0.29444013 
   18300    274.85762    -510.7421    141875.86   -49030.128    3774.5075   -52804.635   0.32455097 
   18400    274.54619    -535.4591    141849.06   -49120.196    3770.2308   -52890.427   0.31704189 
   18500    275.17478   -481.15488    141846.74   -49064.442     3778.863   -52843.305   0.29086424 
   18600    276.06777   -512.75215    141871.54   -49020.064    3791.1261    -52811.19    0.3206617 
   18700    273.16888   -517.89093    141862.73   -49031.916    3751.3168   -52783.232   0.33005527 
   18800    277.10397   -490.58051    141861.12   -49047.525    3805.3557   -52852.881   0.29670796 
   18900    275.40778     -549.755    141868.35   -49005.938    3782.0626   -52788.001   0.30835313 
   19000    272.09365   -518.29193    141859.01   -49030.276    3736.5511   -52766.827   0.34146852 
   19100    273.21385   -490.03384    141868.36   -48941.957    3751.9344   -52693.891   0.30983121 
   19200    273.63083   -494.70461    141851.87   -48974.805    3757.6605   -52732.466   0.30365938 
   19300    277.18469   -448.87279    141888.89   -48862.238    3806.4643   -52668.702   0.34322343 
   19400    276.56036   -479.29662    141879.53   -48930.797    3797.8906   -52728.688   0.31592578 
   19500    275.73507    -496.6859    141887.57   -48930.248    3786.5572   -52716.806   0.30285245 
   19600    281.67085   -514.54396    141874.84   -48923.853    3868.0708   -52791.924    0.3285483 
   19700    275.20099   -512.22178    141877.32    -48972.26    3779.2229   -52751.483   0.32340032 
   19800    285.05831   -504.12432    141850.78   -48923.528    3914.5894   -52838.117   0.30265852 
   19900    274.69031    -557.6552    141861.21   -49004.896    3772.2099   -52777.106   0.32000958 
   20000    273.72317    -488.5332    141874.91   -49032.774    3758.9286   -52791.702   0.32897576 
   20100    268.70614    -516.7946    141839.43   -49076.426    3690.0318   -52766.458   0.30804446 
   20200    274.91903   -481.83163    141821.92    -49053.78    3775.3509   -52829.131   0.30915849 
   20300    275.63424   -496.50174    141848.03   -49018.646    3785.1725   -52803.818   0.33369821 
   20400    273.27334   -491.14703    141849.14   -49074.187    3752.7513   -52826.938   0.30534787 
   20500    272.13576    -504.4138    141825.32    -49111.84    3737.1293   -52848.969   0.30835444 
   20600    272.73147   -494.22878    141798.58   -49135.674      3745.31   -52880.984   0.31642265 
   20700    272.52905   -542.93211    141790.49   -49080.897    3742.5302   -52823.427   0.33264183 
   20800    276.55414   -458.93114    141868.19   -48950.164    3797.8051   -52747.969   0.30794896 
   20900    270.29067   -542.54366    141851.55   -49052.399    3711.7915    -52764.19   0.30934744 
   21000    273.32505    -537.7478    141837.35   -49060.768    3753.4614   -52814.229   0.33646083 
   21100    276.61108   -443.63027    141849.56   -48944.603    3798.5871    -52743.19   0.31052412 
   21200    279.72997   -501.59699    141846.08   -48965.989    3841.4176   -52807.406   0.30592497 
   21300    275.87241   -492.61417    141843.78   -48957.011    3788.4432   -52745.454   0.32874659 
   21400    272.62856   -527.79492    141829.86   -48994.089    3743.8968   -52737.986   0.33229674 
   21500    279.66691   -499.94675    141852.07    -48901.22    3840.5516   -52741.771   0.30369183 
   21600    278.94163   -508.24589    141839.51   -48901.582    3830.5916   -52732.174   0.31756085 
   21700    272.87762   -500.18979    141833.74   -49030.081     3747.317   -52777.398    0.3418992 
   21800    272.59982   -507.90538    141825.08   -49065.117    3743.5021   -52808.619   0.29910383 
   21900    271.39187   -507.99514    141817.65   -49042.777    3726.9139   -52769.691   0.31379511 
   22000     275.4894   -506.39684    141793.67   -49074.281    3783.1835   -52857.465   0.33957394 
   22100    272.11566   -477.55987    141816.24   -49113.306    3736.8534    -52850.16   0.30595064 
   22200    271.38421   -537.69929    141779.83   -49194.448    3726.8086   -52921.256   0.30575862 
   22300    275.98905   -476.49245     141803.4   -49092.855     3790.045     -52882.9   0.33000486 
   22400     272.8228   -480.94971    141838.54   -49041.471    3746.5642   -52788.035   0.32665513 
   22500    277.85609   -471.84046    141852.71   -48996.791    3815.6843   -52812.475   0.29262242 
   22600    272.84366    -508.7413    141833.88   -49028.875    3746.8506   -52775.726   0.33013828 
   22700    271.40084   -526.22288    141837.58   -49088.202    3727.0369   -52815.239   0.33197751 
   22800    278.48652   -466.15159    141845.92   -49011.756    3824.3417   -52836.097   0.29477107 
   22900    275.22265   -500.32813    141842.97   -49050.748    3779.5203   -52830.269   0.31576704 
   23000    270.08617    -496.4003       141842   -49118.127    3708.9831    -52827.11   0.32092469 
   23100    273.57378   -464.79522    141830.45   -49063.985    3756.8771   -52820.862   0.31008167 
   23200    274.89134   -492.49212    141839.74   -49010.818    3774.9706   -52785.789   0.30956395 
   23300     279.3323   -485.27906    141858.75   -49007.997    3835.9565   -52843.953   0.31787678 
   23400    271.18899   -508.16981    141876.53   -49053.254    3724.1277   -52777.382   0.31960087 
   23500    281.67447   -513.62099    141903.77   -48956.474    3868.1205   -52824.595   0.30970525 
   23600    275.07497   -532.88706    141910.15    -48968.69    3777.4923   -52746.183   0.30967184 
   23700    272.31618   -511.40105    141905.57   -48958.294     3739.607   -52697.901   0.32519303 
   23800    276.49803   -485.79295    141881.06    -48964.29    3797.0346   -52761.324   0.30853633 
   23900    275.12386   -486.42189    141857.58   -49054.096    3778.1637    -52832.26   0.30189801 
   24000    273.71922   -506.40399    141858.12   -48996.855    3758.8744    -52755.73   0.32926998 
   24100    278.16582    -525.8785    141854.71   -48927.434    3819.9377   -52747.372   0.32506103 
   24200     273.5121   -500.77611    141829.26   -49046.412    3756.0301   -52802.442   0.30586564 
   24300     274.6537   -531.78137    141801.26   -49087.564    3771.7071   -52859.271   0.32356876 
   24400    275.47562   -501.45715    141778.43   -49112.393    3782.9943   -52895.388   0.33680408 
   24500    276.62731   -475.98997    141762.59   -49068.432      3798.81   -52867.242   0.30079857 
   24600    276.85889   -468.22276    141749.39   -49109.763    3801.9901   -52911.753   0.31283111 
   24700    271.15247   -487.43823    141760.56    -49111.93    3723.6263   -52835.556   0.34283847 
   24800    270.52578   -494.93808    141764.15   -49052.052    3715.0201   -52767.072   0.31373683 
   24900    272.19084   -535.01504    141764.57   -49109.046    3737.8858   -52846.932   0.31645566 
   25000    270.62667   -507.70107    141783.49   -49094.536    3716.4057   -52810.942   0.33815554 
   25100    269.20704   -512.47755    141779.36   -49148.802    3696.9105   -52845.713   0.31400815 
   25200    262.65494   -484.35181    141743.04   -49277.085     3606.933   -52884.018   0.31366327 
   25300    273.25325   -487.46398    141734.69   -49122.371    3752.4754   -52874.847   0.32822691 
   25400    271.23107   -506.99253    141751.18   -49156.936    3724.7055   -52881.642   0.32417548 
   25500    274.96723   -496.23566    141770.19   -49048.452    3776.0128   -52824.464   0.31186623 
   25600     275.2338    -509.7727    141812.18   -48976.008    3779.6734   -52755.682   0.32613459 
   25700     276.8151   -496.02763    141803.79   -49062.162    3801.3888   -52863.551   0.32544316 
   25800    275.38502   -513.63747    141820.35   -48924.371    3781.7501   -52706.122   0.31760173 
   25900     270.8801   -509.51313    141861.78   -48949.257    3719.8858   -52669.143   0.32760087 
   26000     276.8176   -490.73803    141830.76   -48989.779    3801.4231   -52791.202   0.32230639 
   26100    275.21135   -493.01117     141818.1   -48978.618    3779.3651   -52757.983   0.32573383 
   26200     271.4461   -517.76634    141800.52   -49080.663    3727.6586   -52808.321   0.31537652 
   26300    272.68591    -516.3534    141785.34   -49042.358    3744.6843   -52787.043   0.31876736 
   26400    272.39664   -530.82643     141777.1   -49096.489    3740.7118     -52837.2   0.33390801 
   26500    272.70116   -504.85522    141802.89   -49013.681    3744.8938   -52758.574   0.32213086 
   26600    274.23368   -477.21889    141826.17   -48966.958    3765.9392   -52732.897    0.3143778 
   26700    278.35462   -517.28997    141832.57   -48963.535    3822.5304   -52786.066   0.33532686 
   26800    276.08691   -478.31522    141813.09    -49012.87    3791.3889   -52804.259   0.32257418 
   26900    270.19345   -489.74799    141854.85   -48951.409    3710.4564   -52661.866   0.30951011 
   27000    279.14629   -501.15947    141836.63   -48980.233    3833.4021   -52813.635   0.32568719 
   27100    280.94095   -485.65279    141851.91   -48930.391    3858.0475   -52788.439   0.33172882 
   27200    278.08847   -487.98967    141843.64   -48999.581    3818.8754   -52818.456    0.3049854 
   27300    282.20856   -447.58536    141871.99   -48839.405     3875.455    -52714.86   0.32128606 
   27400    277.72531   -490.90199    141859.09   -48957.764    3813.8884   -52771.652   0.33023751 
   27500      268.446    -532.3024    141838.36   -49058.697    3686.4593   -52745.157   0.30780302 
   27600    269.33458   -512.89776    141811.81   -49104.172    3698.6619   -52802.833   0.32109057 
   27700    275.16931   -469.86781    141808.37   -49004.735    3778.7878   -52783.523   0.34141127 
   27800    274.41952   -546.83424    141815.72   -48978.804    3768.4913   -52747.295   0.32179855 
   27900    273.51388    -502.7136    141814.47   -49041.278    3756.0544   -52797.333   0.30804294 
   28000     267.5259   -498.28411    141783.36   -49108.199    3673.8241   -52782.023   0.33581504 
   28100    272.91578   -488.11558    141790.34   -49086.377    3747.8411   -52834.218   0.31781739 
   28200    276.98888   -490.53368    141820.51   -49062.754    3803.7753    -52866.53   0.30918336 
   28300    275.84251   -492.51266    141812.61   -49082.299    3788.0326   -52870.332   0.32471788 
   28400    275.07157   -509.62453    141811.72   -49018.928    3777.4456   -52796.373   0.32609302 
   28500    271.62142   -525.38699    141802.14   -49046.746    3730.0661   -52776.812   0.31668584 
   28600    272.53781   -513.40565    141776.84   -49051.066    3742.6506   -52793.717   0.32559317 
   28700    274.93009   -489.24686    141792.69   -49050.672    3775.5027   -52826.175   0.33179754 
   28800     274.7041   -494.12085    141779.11   -49092.302    3772.3993   -52864.701   0.31826375 
   28900    269.11709   -540.53046    141802.22   -49058.582    3695.6752   -52754.257   0.32152132 
   29000    273.89314   -465.74288    141836.89   -49003.364    3761.2627   -52764.627   0.32477163 
   29100    274.41314   -515.20841    141855.41   -48993.329    3768.4037   -52761.733    0.3243618 
   29200    272.46854   -501.95551    141865.12   -48926.786    3741.6992   -52668.485   0.32562772 
   29300    269.83681   -545.46178     141860.3   -48927.777    3705.5587   -52633.336   0.33450214 
   29400     274.8201   -516.50179    141869.38   -48946.486    3773.9923   -52720.478   0.33105201 
   29500     276.1354    -522.2356    141851.74   -48991.159    3792.0548   -52783.214   0.32242581 
   29600    276.86419    -510.2476    141842.97   -48966.153     3802.063   -52768.216   0.31445806 
   29700    270.69507   -500.07484    141787.52   -49041.078     3717.345   -52758.423    0.3386785 
   29800    270.22988   -512.73672    141744.65   -49129.446    3710.9567   -52840.403   0.32611906 
   29900    267.80363   -515.98277    141754.23   -49107.414    3677.6379   -52785.051   0.31485696 
   30000    273.23763    -503.3297    141756.57    -49079.36    3752.2609   -52831.621   0.33050532 
   30100     276.8077   -501.00993    141790.42   -49052.731    3801.2871   -52854.018   0.33172117 
   30200    276.99441   -516.62125    141810.53    -49064.12    3803.8512   -52867.971   0.30833187 
   30300    279.60134   -496.04317    141832.99   -49052.717     3839.651   -52892.368   0.31045273 
   30400    273.02001   -516.46229    141811.68   -49083.137    3749.2724    -52832.41   0.33969951 
   30500     268.8627   -491.70142    141780.84   -49176.866    3692.1817   -52869.048   0.30666179 
   30600    272.33861   -474.72915    141832.47   -49067.701     3739.915   -52807.616   0.31538858 
   30700    273.86644   -498.55529     141806.1     -49094.9    3760.8961   -52855.796   0.32670925 
   30800    274.19585   -474.64273    141817.39    -49031.09    3765.4197    -52796.51   0.31220297 
   30900    272.99435   -509.75689    141876.57   -49008.606      3748.92   -52757.526   0.31634293 
   31000    271.80514   -498.04116    141880.86   -49045.038    3732.5891   -52777.627   0.32355542 
   31100    278.86337    -480.0774    141857.11   -49051.058    3829.5168   -52880.574   0.31554452 
   31200    272.31325   -510.11999    141854.52    -49001.74    3739.5667   -52741.307   0.30692911 
   31300    275.39341   -469.67532    141866.46   -48935.117    3781.8653   -52716.982   0.33111461 
   31400    271.67546   -540.75775    141856.13   -49045.648    3730.8082   -52776.457   0.32619254 
   31500    274.06689   -507.62372    141864.45   -49000.132    3763.6488    -52763.78   0.30762288 
   31600    274.61218   -490.06367    141868.08   -49021.348     3771.137   -52792.485   0.32449021 
   31700    278.31319   -509.82027    141891.49   -48998.157    3821.9615   -52820.118   0.31445166 
   31800    271.75155   -480.86344    141880.03    -49061.13    3731.8531   -52792.983   0.32830062 
   31900    273.25896   -527.89129    141864.28   -49053.103    3752.5538   -52805.657   0.30989986 
   32000    275.09819   -496.54052    141845.29    -49004.02    3777.8111   -52781.831   0.31665732 
   32100    279.34822   -496.80942    141861.27   -49040.874    3836.1751   -52877.049   0.31923342 
   32200    270.77222   -466.92996    141822.56   -49153.866    3718.4044    -52872.27   0.30618409 
   32300    265.92656   -543.74586    141795.42    -49099.59    3651.8609   -52751.451   0.32580639 
   32400    267.45301    -502.6427    141799.47   -49187.403    3672.8231   -52860.226    0.3175218 
   32500    273.93963    -493.8819    141832.99   -49054.499    3761.9012     -52816.4   0.32462566 
   32600    278.19567   -465.05607    141875.79   -49016.694    3820.3475   -52837.042    0.2998133 
   32700    270.70845   -511.96845    141848.79   -49100.127    3717.5286   -52817.655   0.32228732 
   32800     279.2851   -484.85219    141871.06   -48977.228    3835.3083   -52812.537   0.31957367 
   32900    273.60072   -500.27031    141871.55   -49042.042    3757.2471   -52799.289   0.30058224 
   33000     273.5024    -492.4201    141860.57   -49025.488    3755.8968   -52781.385   0.32362902 
   33100    275.84669   -483.60149    141864.14   -49060.148      3788.09   -52848.238   0.31949414 
   33200     274.7262   -519.66298    141834.96   -49037.411    3772.7028   -52810.114   0.31472301 
   33300    274.64439   -509.42298    141848.91   -49037.275    3771.5793   -52808.854   0.31376792 
   33400    275.33903   -497.48787    141820.53   -49063.188    3781.1185   -52844.307   0.32927127 
   33500    268.36484   -495.82236    141803.02   -49079.174    3685.3448   -52764.518   0.32804378 
   33600    276.25943   -444.20357    141790.01   -49089.282     3793.758    -52883.04   0.30474518 
   33700    272.91474   -494.45401    141808.78   -48991.287    3747.8267   -52739.114   0.32791392 
   33800    273.73391   -517.69994    141847.32     -48887.6     3759.076   -52646.676   0.32571022 
   33900    278.55519    -536.5247    141858.81   -48910.913    3825.2848   -52736.198   0.31108544 
   34000    273.48774   -502.59842    141828.29    -49051.12    3755.6955   -52806.815   0.32283887 
   34100    268.14992   -498.75488    141824.11   -49064.172    3682.3934   -52746.566   0.32029639 
   34200    269.66845   -494.27031    141832.97   -49070.525    3703.2468   -52773.772   0.31207301 
   34300    271.69332   -520.03534    141808.98   -49102.483    3731.0534   -52833.536   0.31624222 
   34400    273.40793   -465.35162    141798.38   -49031.553    3754.5995   -52786.153    0.3195091 
   34500    278.02765   -440.10424    141833.28   -48955.343    3818.0402   -52773.383   0.31794566 
   34600    275.16479   -530.73525    141875.33   -48963.358    3778.7258   -52742.084   0.31754181 
   34700    273.09455   -534.21758    141832.39   -49068.686    3750.2959   -52818.982   0.32310698 
   34800    271.27425   -492.14282    141805.87   -49062.611    3725.2986    -52787.91   0.32045506 
   34900     274.5359   -469.64055    141813.75   -49047.591    3770.0894   -52817.681   0.31233792 
   35000    274.71359   -530.38509    141811.44    -49019.55    3772.5296    -52792.08   0.31568279 
   35100    274.84455   -486.74695    141846.25   -49040.721     3774.328   -52815.049   0.31779134 
   35200    279.33773   -452.71954    141889.95   -48977.027     3836.031   -52813.058   0.31446903 
   35300    269.12759   -526.00477    141873.29   -49053.977    3695.8193   -52749.796   0.31034207 
   35400    274.19332   -469.39135    141830.86   -49051.334     3765.385   -52816.719   0.32422971 
   35500    272.32672   -516.21322    141844.18   -49050.069    3739.7518    -52789.82   0.32296637 
   35600    274.41231   -491.08158    141842.02   -49018.653    3768.3922   -52787.046      0.30796 
   35700    274.68967   -543.24511    141843.45   -49035.823    3772.2012   -52808.024   0.32371063 
   35800    284.36508   -484.90244    141892.81   -48880.322    3905.0695   -52785.392   0.31864616 
   35900    275.06452   -539.37177    141876.08   -48985.733    3777.3489   -52763.082   0.31589086 
   36000    272.92401   -509.01826    141854.22   -49040.214     3747.954   -52788.168   0.31610009 
   36100    275.71987   -488.08602    141854.83   -49082.087    3786.3484   -52868.435   0.32751489 
   36200    271.98653    -499.0293    141859.21   -49113.009      3735.08   -52848.089   0.30338865 
   36300    271.45195   -500.16902    141825.22   -49046.262    3727.7388       -52774   0.32152859 
   36400    272.67502   -531.92622    141798.31   -49102.253    3744.5348   -52846.787   0.33048719 
   36500    273.47206    -474.2918    141819.77   -49078.901    3755.4802   -52834.381   0.30726229 
   36600    277.16877   -504.36395    141823.88   -49078.637    3806.2456   -52884.883   0.31294841 
   36700    276.60219    -499.7821    141828.74   -49112.566     3798.465   -52911.031     0.318989 
   36800    267.92611   -489.96075    141797.47    -49180.76    3679.3199    -52860.08   0.31563624 
   36900    272.44612   -470.43785    141791.51   -49106.087    3741.3914   -52847.478   0.30552402 
   37000    274.01869   -512.11852    141776.95   -49090.061    3762.9868   -52853.047   0.32566204 
   37100    271.31132   -481.57123    141778.35   -49136.878    3725.8076   -52862.685   0.31159818 
   37200    274.18892   -512.94097    141768.41   -49133.466    3765.3246   -52898.791   0.31887334 
   37300    270.51143   -460.22862    141788.77   -49131.968    3714.8231   -52846.791    0.3166828 
   37400    269.22925   -505.28695    141772.19   -49142.302    3697.2155   -52839.517   0.32014909 
   37500    275.20571   -509.37344    141769.47   -49118.027    3779.2877   -52897.314   0.32121974 
   37600    272.15725   -522.95468    141758.81   -49165.696    3737.4244   -52903.121   0.31296229 
   37700    273.85461   -478.17373    141747.27   -49239.495    3760.7336   -53000.229   0.32272936 
   37800    269.48175    -508.8615    141736.12   -49259.212    3700.6829   -52959.895   0.32303733 
   37900    263.73521   -499.63035     141756.1   -49170.538    3621.7681   -52792.306   0.31382914 
   38000    272.88627   -505.95358    141784.29    -49104.08    3747.4357   -52851.515   0.31424014 
   38100    273.66568   -506.25376    141787.77   -49040.073    3758.1391   -52798.213   0.33050192 
   38200    275.80107   -497.18337    141806.93   -49010.344    3787.4635   -52797.807   0.32038084 
   38300    271.64359   -494.21002    141822.78   -49061.764    3730.3706   -52792.134   0.30273065 
   38400    274.02667   -506.04452    141818.53   -48993.397    3763.0965   -52756.493   0.33494374 
   38500     273.7789   -512.36953    141806.73   -49047.972    3759.6939   -52807.666   0.32312008 
   38600    276.61806   -522.98954    141794.65   -49014.559     3798.683   -52813.242   0.30761772 
   38700    274.66137   -464.64549    141810.04   -48979.446    3771.8124   -52751.259   0.32761864 
   38800    277.61233   -477.65322    141800.72   -49015.131    3812.3368   -52827.467    0.3136713 
   38900    277.62806   -518.52074    141838.45   -48959.902    3812.5529   -52772.455   0.31169409 
   39000    274.27799   -550.66839    141834.46   -49010.187    3766.5478   -52776.735   0.31513886 
   39100    273.97127   -500.82293    141794.52   -49032.273    3762.3357   -52794.609   0.32745118 
   39200    271.64883   -528.47292    141762.26   -49155.048    3730.4425   -52885.491   0.31343851 
   39300    270.13031    -490.2407    141727.67   -49163.797    3709.5893   -52873.386   0.31266147 
   39400    270.66045   -511.99421    141768.83   -49046.144    3716.8695   -52763.014   0.33265025 
   39500    276.47809   -490.54245    141796.86   -49031.314    3796.7608   -52828.075   0.31390054 
   39600    271.54196   -538.67639    141791.53    -49025.67    3728.9749   -52754.644   0.32340148 
   39700    275.89799   -462.84635    141796.93   -49011.319    3788.7946   -52800.113   0.31172915 
   39800    274.89352   -494.50592    141811.75   -49037.476    3775.0005   -52812.476     0.322498 
   39900    272.92009   -509.48362    141799.31   -49001.225    3747.9003   -52749.125    0.3225842 
   40000    273.07622   -491.27504    141807.84   -49065.533    3750.0442   -52815.577   0.30463711 
   40100    271.79559   -491.60641    141792.14   -49077.267    3732.4579   -52809.725   0.32607971 
   40200    276.94943   -498.36749    141810.73   -49052.239    3803.2335   -52855.473   0.31523747 
   40300    274.95014   -505.20503    141807.52   -49065.706    3775.7781   -52841.484   0.30851679 
   40400    270.30197   -491.40313    141798.92   -49149.984    3711.9466   -52861.931   0.31616468 
   40500    274.59285     -468.302    141833.13    -49016.98    3770.8715   -52787.851   0.31955731 
   40600    272.54356   -528.39504    141832.01   -49085.274    3742.7295   -52828.004   0.30707904 
   40700    272.56878   -525.41415    141797.61   -49088.571    3743.0758   -52831.647   0.31502971 
   40800    271.70985   -509.21379    141832.89   -49068.313    3731.2804   -52799.593   0.33376033 
   40900    275.56159    -507.8696    141804.68   -49052.021    3784.1749   -52836.196   0.30550742 
   41000    271.65261    -473.7868    141805.59   -49113.633    3730.4945   -52844.127    0.3042325 
   41100    273.84632   -480.39161     141816.3   -49083.135    3760.6197   -52843.755   0.32263328 
   41200    276.39065   -513.73292    141850.92   -48979.394      3795.56   -52774.954   0.30651442 
   41300    270.84859   -502.88514    141844.18   -49060.192    3719.4532   -52779.645   0.30515198 
   41400    279.19914   -498.73307    141815.81   -49003.951    3834.1278   -52838.079   0.31865199 
   41500    274.29207   -535.78609    141814.12   -49020.967    3766.7411   -52787.708    0.3201124 
   41600    277.59081   -492.11653    141815.13   -49027.848    3812.0413   -52839.889   0.30092231 
   41700    270.68223   -494.05752    141780.39   -49129.298    3717.1685   -52846.467   0.31822087 
   41800    276.02708   -456.34446    141813.21   -49047.059    3790.5672   -52837.626   0.31760066 
   41900    271.12109   -471.47675    141774.25   -49123.856    3723.1953   -52847.052   0.30273066 
   42000    275.83265   -521.70198    141795.11   -49096.647    3787.8972   -52884.544   0.31572048 
   42100    271.37695   -528.67705    141758.79   -49161.191    3726.7089     -52887.9   0.32166816 
   42200     268.6261   -516.14664    141780.87   -49128.596    3688.9326   -52817.529   0.31144211 
   42300     271.0561   -470.99638    141802.49   -49086.032    3722.3028   -52808.335   0.31364553 
   42400    269.23097   -521.48894     141820.8   -49116.336     3697.239   -52813.575   0.31622269 
   42500    270.20843   -510.32916    141798.98   -49077.522    3710.6621   -52788.185   0.32377523 
   42600    272.56336   -497.75875     141824.5   -49115.091    3743.0014   -52858.092   0.30840712 
   42700    271.26095   -521.87617    141825.09   -49184.922     3725.116   -52910.038   0.30114613 
   42800    274.48657   -458.62481    141834.81   -49105.625     3769.412   -52875.037   0.31506793 
   42900    270.56196   -475.27773    141831.06   -49119.391    3715.5169   -52834.908    0.3121424 
   43000    270.78755   -529.61739    141806.09   -49135.183     3718.615   -52853.798   0.30533943 
   43100    272.25456   -492.27042     141853.6   -49065.016    3738.7608   -52803.777   0.31799076 
   43200    273.78934   -506.44252    141864.69   -49078.514    3759.8373   -52838.351   0.32074186 
   43300    278.10144   -460.69386    141838.01   -49072.448    3819.0536   -52891.501    0.2960256 
   43400    274.04048   -522.99078     141865.8   -49005.565    3763.2861   -52768.852   0.31359831 
   43500    274.78223   -512.59114    141870.59   -49055.002    3773.4722   -52828.474   0.31974243 
   43600    269.98674   -520.62865    141865.97   -49101.489    3707.6177   -52809.107   0.29907294 
   43700     273.8568   -532.98401    141817.47   -49140.609    3760.7637   -52901.373   0.30653026 
   43800     270.6548   -502.07426    141818.53   -49178.514     3716.792   -52895.306   0.32561533 
   43900     268.9515   -488.36218    141825.83   -49093.412    3693.4012   -52786.813   0.30347493 
   44000     269.1164   -489.98893    141799.62   -49175.338    3695.6657   -52871.004   0.30599946 
   44100     270.2991   -478.93871    141786.22   -49131.923    3711.9072    -52843.83   0.32650832 
   44200    270.43258   -500.87809    141804.32   -49085.836    3713.7403   -52799.577   0.30744845 
   44300    273.72888   -465.55272     141810.4   -49088.289     3759.007   -52847.296   0.31459515 
   44400    274.11538    -450.4436    141795.43   -49097.889    3764.3147   -52862.203   0.31448263 
   44500    272.61637   -504.40353    141770.14   -49105.773    3743.7294   -52849.502   0.31510298 
   44600    268.49585    -477.8977    141770.93   -49109.655    3687.1439   -52796.799   0.31799382 
   44700    271.93638   -448.62045    141752.24   -49091.259    3734.3914    -52825.65   0.31062902 
   44800    274.85528   -453.19487     141784.2     -49060.2    3774.4754   -52834.676   0.31910765 
   44900     273.7814   -488.21023    141814.53   -49046.099    3759.7283   -52805.827   0.31609368 
   45000    269.27339   -478.61816    141827.48    -49090.35    3697.8216   -52788.172   0.31300474 
   45100    276.74834   -497.33142    141845.03   -48980.136     3800.472   -52780.608   0.30878529 
   45200    275.09382   -513.59195    141836.33   -49018.885    3777.7511   -52796.636   0.32429743 
   45300    271.49463   -501.58815    141835.35   -49041.576    3728.3249   -52769.901   0.31773557 
   45400    272.48926   -506.17345    141813.74   -49097.402    3741.9838   -52839.385   0.29921164 
   45500     271.1199    -501.6695    141836.54   -49044.697    3723.1789   -52767.876   0.33272993 
   45600    274.30649   -487.63118    141823.62   -49033.211     3766.939    -52800.15   0.30893443 
   45700    278.87179   -461.83054    141833.71   -48987.164    3829.6325   -52816.796   0.29657493 
   45800    271.99833   -510.46815    141862.27   -49062.579     3735.242   -52797.821   0.32811243 
   45900    280.87032   -449.57829    141883.49    -48933.21    3857.0775   -52790.288   0.30523014 
   46000     278.1438   -497.94781    141898.33   -48993.406    3819.6353   -52813.041   0.29999628 
   46100    276.15411   -498.60651    141916.31   -48906.833    3792.3116   -52699.145   0.31751635 
   46200    280.17678   -497.34539    141923.05   -48963.977    3847.5533    -52811.53   0.31922184 
   46300    278.98828   -500.74432    141878.99   -48949.048    3831.2322    -52780.28   0.30150251 
   46400    273.72765   -473.83746    141882.46   -48997.501    3758.9901   -52756.491   0.31185665 
   46500    279.37671     -526.157    141870.43    -48960.79    3836.5664   -52797.357   0.32235002 
   46600    275.45979   -473.55679    141860.33   -49014.827    3782.7768   -52797.603   0.29683741 
   46700     270.9435   -500.81427    141888.43   -48955.327    3720.7565   -52676.083    0.3177493 
   46800    280.63414   -464.46437     141908.2   -48966.294    3853.8341   -52820.128   0.31121522 
   46900    277.35758   -457.91289    141903.43   -49019.146    3808.8384   -52827.984   0.29798304 
   47000    274.16458   -455.34685    141907.34   -49054.073    3764.9903   -52819.063   0.30798128 
   47100    275.89979   -500.25127    141878.68   -49065.875    3788.8192   -52854.694   0.30345138 
   47200    274.77432   -472.66287    141847.79   -49032.982    3773.3636   -52806.346   0.31389109 
   47300    274.28121    -510.8756    141861.24   -49148.921    3766.5919   -52915.513   0.30873954 
   47400    275.46994   -501.20731     141840.7   -49090.531    3782.9163   -52873.447   0.29852981 
   47500      274.148   -510.73346    141817.52   -49090.915    3764.7626   -52855.677   0.32056262 
   47600    271.73415   -520.14352    141811.58   -49086.455    3731.6142   -52818.069   0.31182396 
   47700     274.9885   -505.79508    141846.25   -49013.617    3776.3048   -52789.921   0.30637564 
   47800     276.4983   -494.43612    141844.21   -49068.669    3797.0384   -52865.707   0.30612716 
   47900    274.84718   -473.25037    141824.67    -49111.42    3774.3641   -52885.784   0.32186929 
   48000    273.57349   -504.87094    141828.64   -49079.233    3756.8731   -52836.106   0.30179881 
   48100    274.58112   -469.48031    141801.49   -49117.041    3770.7105   -52887.752   0.30258298 
   48200    271.58795   -466.77807    141812.23    -49103.92    3729.6064   -52833.526   0.32605477 
   48300    273.29758   -495.10377    141842.88   -49064.392    3753.0841   -52817.476   0.29981794 
   48400    273.91793   -505.59386    141845.98   -49096.596    3761.6032   -52858.199   0.30144124 
   48500    269.72302    -505.1102    141813.03   -49175.423    3703.9962   -52879.419   0.32349743 
   48600    268.77319   -504.34546    141811.64   -49179.228    3690.9525   -52870.181   0.30697948 
   48700     274.3991   -499.49965    141815.29   -49068.285    3768.2109   -52836.495   0.30173284 
   48800    275.94397   -498.75439    141817.61   -49058.988    3789.4259   -52848.414   0.31501372 
   48900    270.53271   -495.94085    141833.56   -49081.947    3715.1153   -52797.062   0.31430722 
   49000    273.03639   -502.67467     141822.1   -49113.251    3749.4973   -52862.748   0.29981306 
   49100    276.52116    -481.4825     141824.5    -49029.93    3797.3522   -52827.282   0.30986117 
   49200    270.90875   -496.46235    141856.09   -49069.548    3720.2793   -52789.827   0.32182023 
   49300    270.08481    -563.4446    141824.75    -49130.48    3708.9645   -52839.445   0.30596224 
   49400    268.32791   -511.99512    141808.13    -49144.47    3684.8376   -52829.308   0.30601694 
   49500    271.15407   -521.46403    141825.71   -49086.877    3723.6481   -52810.525   0.32056245 
   49600    271.14682   -490.74709     141803.1   -49080.413    3723.5486   -52803.962    0.3161536 
   49700    273.82668   -458.67058    141833.03    -49093.48      3760.35    -52853.83   0.30699664 
   49800    274.51744   -507.18986    141803.52   -49097.466     3769.836   -52867.302   0.31118151 
   49900    269.99316   -486.48322    141797.46   -49072.836    3707.7058   -52780.541   0.32108461 
   50000     274.8719   -513.75372    141794.37   -49085.532    3774.7037   -52860.235   0.31292979 
   50100    278.02192   -482.32088    141828.27   -48951.544    3817.9615   -52769.505   0.30494466 
   50200    274.02407   -517.11626    141811.87   -49023.951    3763.0608   -52787.011   0.32192355 
   50300    272.32975   -504.31128     141795.8    -49034.98    3739.7934   -52774.773   0.32025652 
   50400    270.19112   -515.97073    141776.55   -49049.626    3710.4244   -52760.051   0.30985202 
   50500    281.74833     -514.248    141814.31   -48966.317    3869.1348   -52835.452    0.3192965 
   50600    280.32332   -528.98527    141843.08   -48893.535    3849.5658   -52743.101   0.32373405 
   50700    272.46092   -494.16627    141768.67   -49118.787    3741.5947   -52860.382   0.30550064 
   50800    272.34553   -500.45062    141758.66   -49099.056      3740.01   -52839.066   0.31301477 
   50900    269.51849   -482.73374    141768.53   -49125.623    3701.1874   -52826.811   0.33379209 
   51000    267.23936    -503.5174    141790.03   -49083.847     3669.889   -52753.736   0.31227505 
   51100    271.52085   -496.61822    141808.43   -49093.321     3728.685   -52822.006   0.30679747 
   51200    271.06316   -535.18745    141791.72   -49154.305    3722.3997   -52876.705   0.33106186 
   51300    269.95085   -458.13529    141754.81   -49161.013    3707.1248   -52868.138   0.31313105 
   51400    273.23394   -498.96407     141780.3   -49108.334    3752.2102   -52860.545   0.30670624 
   51500    267.03148   -493.65967    141768.19   -49161.167    3667.0344   -52828.201   0.32313081 
   51600    273.98486   -492.32447     141774.9   -49080.217    3762.5222   -52842.739   0.32025368 
   51700    272.03178   -506.20785    141809.13   -48987.956    3735.7014   -52723.657   0.31483126 
   51800    275.70505   -541.33862    141809.53   -49034.349    3786.1449   -52820.494   0.31593836 
   51900    272.30717   -529.39891    141794.85   -49091.605    3739.4832   -52831.089    0.3263965 
   52000    272.21281   -488.39417     141762.9   -49073.526    3738.1874   -52811.713   0.31472523 
   52100    267.60529     -487.505    141762.97   -49145.766    3674.9143    -52820.68   0.31770902 
   52200    268.66901   -485.40885    141739.65   -49200.328    3689.5218   -52889.849   0.32099155 
   52300    270.54568   -490.78615    141723.02   -49178.803    3715.2935   -52894.097   0.31412175 
   52400    267.77467   -482.38901    141710.53   -49258.599    3677.2403   -52935.839   0.31448795 
   52500    271.55571   -467.86633    141733.94   -49115.473    3729.1637   -52844.637   0.31396488 
   52600    274.19507   -513.40599    141774.57   -49086.501     3765.409    -52851.91   0.32859491 
   52700    271.71459   -500.88067    141764.59   -49023.185    3731.3456   -52754.531   0.31783641 
   52800    281.77819   -510.20318    141814.51   -48996.855     3869.545     -52866.4   0.30681946 
   52900    275.71091   -509.65365     141808.8    -49017.28    3786.2254   -52803.506    0.3287337 
   53000    280.86917   -462.19753    141817.27   -48971.388    3857.0617   -52828.449   0.30484676 
   53100    272.78279   -533.85379    141777.36   -49099.808    3746.0147   -52845.823   0.31222931 
   53200    270.79729   -469.81678    141748.84   -49142.166    3718.7486   -52860.915   0.32629524 
   53300    274.20471   -485.55721    141759.01   -49112.246    3765.5414   -52877.787   0.32606822 
   53400    277.38004   -527.00834    141768.81   -49043.272    3809.1468   -52852.419    0.3107654 
   53500    278.03474   -517.87501    141774.01   -49031.188    3818.1376   -52849.326   0.31833648 
   53600    268.55344   -507.38823    141759.69   -49097.535    3687.9348    -52785.47   0.34127105 
   53700    275.65831   -484.89877    141787.08   -49081.699    3785.5031   -52867.202   0.30377366 
   53800    269.01088   -506.98953    141775.23   -49104.616    3694.2166   -52798.832   0.32462361 
   53900     270.0765   -484.33905    141798.61   -49117.462    3708.8504   -52826.313   0.32958715 
   54000    273.34431   -481.34915    141823.32   -49131.241    3753.7259   -52884.966   0.30546435 
   54100    271.55733   -508.77653    141827.62   -49099.683     3729.186   -52828.869   0.31065816 
   54200    269.93435   -484.73654    141844.77   -49053.973    3706.8982   -52760.871   0.32262324 
   54300    273.77856   -495.84948    141861.64   -48983.297    3759.6892   -52742.986   0.31393533 
   54400    279.33686   -484.18862    141887.18   -48909.938    3836.0191   -52745.957   0.30278493 
   54500     271.6172    -464.8125    141889.66   -48973.814    3730.0082   -52703.823   0.31719273 
   54600    275.71483   -513.07287    141891.04   -48986.724    3786.2793   -52773.004   0.31461089 
   54700     275.4236   -523.71813    141860.64   -49046.616    3782.2799   -52828.896    0.3052736 
   54800    276.56052   -473.74291    141870.67    -48975.78    3797.8927   -52773.673   0.31623219 
   54900    279.86628    -482.9427    141868.96   -48992.593    3843.2893   -52835.882   0.31474238 
   55000    272.12702   -496.73874    141856.84   -49023.985    3737.0093   -52760.994   0.31268954 
   55100    274.34085   -539.53429    141850.99   -49041.565     3767.411   -52808.976    0.3073917 
   55200    272.54226    -497.4773    141800.53   -49145.313    3742.7116   -52888.024   0.31628413 
   55300    271.47446   -464.86913    141745.67   -49185.038     3728.048   -52913.086   0.31613198 
   55400    267.06771   -491.34991    141766.01   -49152.283    3667.5319   -52819.815   0.31294549 
   55500    268.86743   -513.38848    141783.94   -49117.825    3692.2467   -52810.071   0.31651788 
   55600    279.07831   -522.71193    141796.31   -49018.655    3832.4686   -52851.124   0.32622654 
   55700     276.0886   -514.61194    141787.36    -48979.73     3791.412   -52771.142   0.32144761 
   55800    278.34001   -454.67662    141808.14    -48959.77    3822.3297     -52782.1   0.30672599 
   55900     277.7483   -493.02609    141798.93   -48977.428    3814.2041   -52791.632   0.32848884 
   56000    279.60138   -494.05749    141798.24   -48986.629    3839.6517   -52826.281   0.32694143 
   56100    272.30424   -532.86064     141818.5   -48973.012     3739.443   -52712.455   0.31458061 
   56200    275.02198   -507.25282    141806.19   -49005.084    3776.7646   -52781.849   0.31953767 
   56300    274.06441   -523.43678    141799.75    -49066.71    3763.6147   -52830.325   0.32624226 
   56400    270.02224   -500.22283    141800.09   -49114.615    3708.1052    -52822.72   0.31217997 
   56500    268.20795   -517.20271    141769.04   -49157.653    3683.1903   -52840.843   0.31424419 
   56600    273.87258   -502.64824    141741.29   -49214.448    3760.9804   -52975.429   0.32391999 
   56700    269.90352   -535.42547    141758.81   -49196.565    3706.4749    -52903.04   0.30787151 
   56800    270.84186   -469.22181    141753.34    -49087.79    3719.3608    -52807.15    0.3135362 
   56900    270.97034   -497.19125    141744.04   -49177.749    3721.1252   -52898.875   0.32740524 
   57000    270.40579   -489.20879    141747.98   -49168.368    3713.3724    -52881.74    0.3077253 
   57100    271.98991   -492.10164     141789.4     -49095.7    3735.1265   -52830.826   0.30998194 
   57200    278.17411   -509.34544     141794.7   -49047.212    3820.0515   -52867.263   0.32687718 
   57300    271.85488   -501.83876    141780.11   -49181.575    3733.2722   -52914.847    0.3061924 
   57400    273.11525   -483.44949     141780.4   -49064.484    3750.5803   -52815.065   0.31055315 
   57500    277.74808   -497.71463    141799.45   -49033.073     3814.201   -52847.274   0.31291672 
   57600    268.98166     -482.554    141732.76   -49132.263    3693.8154   -52826.078   0.31517123 
   57700    278.82408    -465.6776    141725.13   -49048.858    3828.9773   -52877.835   0.31554503 
   57800     274.8636   -483.17539    141779.56   -49006.468    3774.5896   -52781.058   0.32462166 
   57900    273.85115   -529.97113       141793   -49041.239    3760.6861   -52801.925   0.32295591 
   58000    277.38433   -462.90632    141803.73   -49007.135    3809.2058   -52816.341   0.31239397 
   58100    274.23211   -500.09182    141782.46   -49048.472    3765.9176    -52814.39   0.32274677 
   58200    275.69348   -450.71686    141831.08   -48952.908     3785.986   -52738.894   0.30544682 
   58300    277.45877   -476.48397     141840.2    -49014.34    3810.2281   -52824.569   0.31888604 
   58400    272.75661   -484.35563    141801.97   -49053.311    3745.6552   -52798.966   0.31336137 
   58500    276.21025   -512.58916    141770.93   -49055.657    3793.0826    -52848.74   0.30488782 
   58600    273.57802   -519.45973    141760.83   -49092.795    3756.9353   -52849.731   0.32915252 
   58700      278.439   -463.16685     141763.1   -49047.329    3823.6892   -52871.018   0.31122661 
   58800    271.88077   -535.87552    141773.62   -49088.728    3733.6277   -52822.356   0.30962175 
   58900    269.76917   -501.18658    141785.43   -49013.354    3704.6299   -52717.984   0.32164653 
   59000    271.52099   -497.98472    141805.85    -48980.44     3728.687   -52709.127    0.3312423 
   59100    282.55709   -490.43354     141841.2   -48944.235    3880.2413   -52824.476   0.29935377 
   59200     271.3176   -517.26377    141811.16   -49056.917    3725.8939   -52782.811   0.31830545 
   59300    275.04989    -498.0895    141805.13   -49040.122    3777.1479    -52817.27   0.32738066 
   59400    270.51192   -491.32559    141824.76   -49026.504    3714.8298   -52741.334   0.29715027 
   59500    273.58843   -510.08709    141802.97    -49131.61    3757.0783   -52888.689   0.31603155 
   59600    271.56889   -475.17563       141806    -49101.99    3729.3447   -52831.335   0.32490928 
   59700    273.59178   -487.37361    141809.27   -49036.724    3757.1243   -52793.848   0.30508231 
   59800    269.87638   -520.62857    141793.33   -49148.343    3706.1022   -52854.445    0.3143785 
   59900    270.30209   -492.99627    141793.59   -49146.182    3711.9483    -52858.13   0.32073542 
   60000    273.98338   -492.83085     141792.1   -49106.921    3762.5019   -52869.423   0.30909654 
   60100    270.33778   -490.94765    141784.17   -49066.941    3712.4384    -52779.38   0.30967208 
   60200    275.07876   -504.83627    141817.14   -49040.007    3777.5444   -52817.551   0.33282695 
   60300     276.2432    -487.2277    141818.86   -49001.704    3793.5351   -52795.239   0.31399429 
   60400    279.16956   -529.42015    141808.15   -48950.198    3833.7217    -52783.92   0.30851581 
   60500    277.28288   -492.37744    141842.67   -48973.851    3807.8126   -52781.663   0.32457955 
   60600    273.78564   -508.43545    141824.29   -49031.872    3759.7865   -52791.658   0.30874693 
   60700    278.36887    -509.3551     141866.9   -48863.903    3822.7261   -52686.629   0.31178504 
   60800    280.91312   -482.58398    141863.66    -48889.16    3857.6653   -52746.826   0.32016565 
   60900    270.00099   -479.88093    141829.02   -48980.363    3707.8134   -52688.176   0.32111063 
   61000    272.77899   -469.78532    141818.47    -49018.79    3745.9625   -52764.752   0.31804711 
   61100    272.87304    -496.3025    141777.63   -49006.808    3747.2541   -52754.062   0.32652685 
   61200    276.52037   -451.84946    141788.99   -48944.784    3797.3413   -52742.126   0.31490391 
   61300    271.72743   -519.53692    141806.67   -49035.292    3731.5219   -52766.814   0.32447841 
   61400    269.43148   -527.39685    141792.76   -49088.142    3699.9926   -52788.134   0.32823189 
   61500     275.0445   -512.27813    141816.87   -49036.137    3777.0738    -52813.21   0.31321668 
   61600    274.28378   -505.28493    141771.28   -49075.326    3766.6272   -52841.953   0.32625181 
   61700     270.9388   -514.71965    141761.02   -49135.842     3720.692   -52856.534   0.32502849 
   61800    272.27895   -505.58254     141756.8   -49128.112    3739.0957   -52867.208    0.3051854 
   61900    267.21413   -525.80115    141774.85   -49026.563    3669.5426   -52696.105   0.33617991 
   62000    273.15673   -488.39869    141802.13   -49042.128    3751.1499   -52793.278   0.32588221 
   62100    270.77267   -490.87126    141749.57   -49102.049    3718.4106    -52820.46   0.30459172 
   62200    274.13623   -503.35802    141792.34   -49000.332     3764.601   -52764.933   0.32907059 
   62300    271.67693   -494.65628     141781.2   -49041.607    3730.8284   -52772.435    0.3303119 
   62400    274.26015   -505.22841    141787.15   -49089.741    3766.3027   -52856.043   0.29908556 
   62500    276.16581   -510.94837    141762.32   -49076.719    3792.4724   -52869.191   0.32008569 
   62600    271.57073   -519.69264    141757.22   -49103.279      3729.37   -52832.649   0.33933247 
   62700    271.15765   -494.48863    141742.01   -49141.599    3723.6973   -52865.296   0.30584521 
   62800    272.35683   -483.57597    141735.01   -49113.949    3740.1652   -52854.114    0.3193749 
   62900    275.88938   -461.59617    141762.99   -49024.153    3788.6763    -52812.83   0.33591167 
   63000    276.18906   -480.14111    141809.63   -49057.626    3792.7916   -52850.418   0.30482791 
   63100    271.82786   -482.21878    141779.23   -49128.274    3732.9011   -52861.176   0.31487495 
   63200    277.33186   -506.26482     141803.3    -49014.28    3808.4853   -52822.766   0.32504352 
   63300    274.01013   -459.99052    141765.72   -49100.474    3762.8693   -52863.343   0.31176063 
   63400     269.9349   -500.36255     141752.6   -49189.942    3706.9058   -52896.848   0.30883259 
   63500    274.16843   -520.53663    141766.85   -49168.122    3765.0431   -52933.165   0.31877742 
   63600    268.13666   -517.49094     141731.3   -49214.917    3682.2114   -52897.128   0.31793964 
   63700    269.59501   -498.32601    141738.88   -49184.558    3702.2383   -52886.796      0.31209 
   63800    268.17799   -521.91674    141720.74   -49246.139    3682.7789   -52928.918   0.31897969 
   63900      271.688   -511.15417    141746.73    -49145.13    3730.9804    -52876.11   0.31093232 
   64000    275.46735   -530.00576    141775.98    -49059.37    3782.8807    -52842.25   0.32477485 
   64100    272.96247   -535.81796     141824.5   -49020.114    3748.4823   -52768.596   0.31457257 
   64200    277.62128   -508.03953    141829.53   -49011.555    3812.4598   -52824.015   0.31040899 
   64300    268.37149   -557.96755    141820.03   -49046.968    3685.4362   -52732.404   0.33751922 
   64400    272.66821   -498.71771       141820   -49100.245    3744.4413   -52844.686   0.30323849 
   64500    270.75141    -512.6568    141783.29   -49087.626    3718.1186   -52805.745   0.31135515 
   64600    267.81211   -532.96408    141796.84   -49125.956    3677.7545   -52803.711   0.32884694 
   64700    272.79655   -519.63148    141795.28   -49129.548    3746.2036   -52875.751   0.32221234 
   64800    271.77474   -472.14498    141822.01   -49079.312    3732.1716   -52811.483   0.29926263 
   64900    277.55506   -432.62311    141842.51   -48997.252    3811.5504   -52808.802   0.32837801 
   65000    273.67703   -498.64055    141882.19   -48987.465     3758.295    -52745.76   0.32101162 
   65100    274.09472   -499.74893    141863.02   -49050.488    3764.0309   -52814.519   0.29511587 
   65200    271.20037   -502.73849    141849.46   -49069.444     3724.284   -52793.728   0.32294073 
   65300    271.11712   -512.33676    141858.13   -49007.314    3723.1407   -52730.455   0.31853503 
   65400    272.18681   -499.19358    141803.95    -49042.92    3737.8304    -52780.75   0.30041442 
   65500    280.40957   -494.73802    141843.55   -48983.699    3850.7502    -52834.45   0.31354559 
   65600    274.92824   -509.86796    141854.47   -48999.427    3775.4773   -52774.905   0.32371903 
   65700    279.16683   -499.74714    141841.16   -48956.297    3833.6841   -52789.981   0.30522869 
   65800    276.50475   -526.94612    141870.69   -49021.726    3797.1269   -52818.853   0.31454369 
   65900    271.09985   -505.08246     141855.3   -49034.211    3722.9036   -52757.115   0.33246515 
   66000    272.60628   -489.53314    141844.06   -49043.492    3743.5908   -52787.083   0.30372556 
   66100    272.11075    -491.3381    141852.34   -49017.104    3736.7859    -52753.89   0.31103779 
   66200    275.58804   -505.58692    141811.76   -49144.456    3784.5381   -52928.994   0.31306526 
   66300    274.23001   -486.77016    141789.59   -49074.711    3765.8888     -52840.6   0.31049667 
   66400    273.46894   -489.10132    141798.01   -49076.008    3755.4374   -52831.446   0.31524211 
   66500    271.45702   -524.06632       141809    -49112.68    3727.8085   -52840.488   0.31052947 
   66600    267.78987   -529.20257    141789.52   -49110.132     3677.449   -52787.581   0.32997987 
   66700    271.54806   -495.15456     141796.6   -49098.837    3729.0587   -52827.895   0.31355111 
   66800    267.97524   -507.53805    141781.06   -49122.823    3679.9946   -52802.818   0.31569577 
   66900    272.40405   -497.46084    141772.94   -49135.556    3740.8137    -52876.37   0.31368216 
   67000    265.12016   -505.17519    141726.66   -49231.059     3640.787   -52871.846   0.32004079 
   67100    271.00271   -512.99849    141749.05   -49075.671    3721.5697    -52797.24   0.32222432 
   67200    268.01337   -501.24504    141753.43   -49176.872    3680.5182    -52857.39   0.30970473 
   67300    269.87215   -491.38592    141761.16   -49102.618    3706.0441   -52808.662   0.32604766 
   67400    275.48983   -456.15469    141778.22   -49072.948    3783.1894   -52856.138   0.30571731 
   67500    272.42796   -488.64669     141799.7    -49057.73    3741.1419   -52798.872   0.31340729 
   67600    281.08589   -514.28297    141829.16   -48925.267    3860.0378   -52785.305   0.32095932 
   67700    274.56559   -509.86679    141835.31   -48998.389    3770.4972   -52768.886   0.31274163 
   67800    272.49689    -510.2397    141824.37   -49036.696    3742.0886   -52778.785     0.308739 
   67900    274.00554   -508.71679       141812   -49065.024    3762.8063    -52827.83   0.32248153 
   68000    271.62052   -508.27159    141771.48   -49101.731    3730.0537   -52831.785    0.3261305 
   68100    272.65601   -463.56152    141775.65   -49104.903    3744.2738   -52849.177   0.30258284 
   68200    274.01593    -491.5093     141761.7   -49075.443    3762.9489   -52838.392   0.32378443 
   68300    275.47549   -506.55995    141774.98   -49021.201    3782.9926   -52804.194    0.3276195 
   68400    273.21179    -492.6444    141816.57   -48984.186     3751.906   -52736.092    0.3025108 
   68500    275.59112   -481.23528    141831.92   -48983.396    3784.5804   -52767.976    0.3196121 
   68600    273.90246   -513.36616    141814.53   -49076.571    3761.3908   -52837.961   0.31603983 
   68700    272.92319    -527.8037    141769.16    -49046.65    3747.9428   -52794.592   0.31419332 
   68800    273.79738   -460.11745    141819.18   -49049.067    3759.9477   -52809.015   0.31907832 
   68900     275.5059   -472.90161    141795.64   -49046.495      3783.41   -52829.905   0.31437412 
   69000    277.35947   -515.96745    141820.94   -49048.241    3808.8644   -52857.105   0.31381247 
   69100    268.49461   -504.94557    141792.43    -49113.33    3687.1269   -52800.457   0.31288382 
   69200    272.91546   -518.12847    141790.33   -49126.464    3747.8366   -52874.301   0.32329068 
   69300    272.39941   -495.01414    141773.76   -49157.457    3740.7499   -52898.207   0.30988202 
   69400    267.17648   -515.83889    141742.66   -49200.684    3669.0255    -52869.71   0.32211016 
   69500    273.68214   -494.55153    141769.27   -49069.969    3758.3652   -52828.335   0.32159786 
   69600    273.88526   -477.77165    141841.01   -48970.158    3761.1546   -52731.313   0.32211763 
   69700    272.06382   -510.22927    141819.56   -49060.257    3736.1413   -52796.398   0.32509957 
   69800    273.53702    -485.7851    141835.01   -49059.889    3756.3722   -52816.261    0.3020292 
   69900    273.29638   -521.75758    141788.85   -49149.053    3753.0677   -52902.121   0.32438688 
   70000    273.36391   -528.00108    141801.87   -49086.677     3753.995   -52840.672   0.32689539 
   70100    267.88974   -537.71395    141761.07   -49194.909    3678.8204    -52873.73   0.30602553 
   70200    276.18033   -498.01682     141777.3   -49044.283    3792.6717   -52836.954   0.32583193 
   70300    273.47514   -488.92611    141757.64   -49046.479    3755.5225   -52802.001    0.3353603 
   70400     274.4202   -492.44877    141802.65   -48945.561    3768.5006   -52714.062   0.31830202 
   70500    275.58536   -481.21662    141808.25   -49017.487    3784.5013   -52801.988   0.32106543 
   70600      273.878   -511.60819    141795.62   -49070.308    3761.0549   -52831.363   0.33494412 
   70700    275.68693   -460.58151    141807.04   -49043.401    3785.8961   -52829.297   0.30538689 
   70800    271.74208   -471.88202     141816.5   -49071.471    3731.7231   -52803.194   0.31152231 
   70900    270.84191   -485.45309    141825.61   -49072.334    3719.3614   -52791.695    0.3304488 
   71000    276.31225   -500.27703    141837.45   -49091.304    3794.4834   -52885.788   0.30541381 
   71100    274.34563   -527.21593     141825.8   -49087.747    3767.4766   -52855.223   0.31136658 
   71200    273.08879   -542.74051    141840.55   -49122.934    3750.2169   -52873.151    0.3297503 
   71300    274.28923   -504.73365    141828.76    -49175.07    3766.7021   -52941.772   0.31333667 
   71400     274.2669   -496.14483       141815   -49115.656    3766.3953   -52882.051   0.30077749 
   71500    273.48624   -486.29896    141832.16   -49060.577    3755.6749   -52816.252   0.31874712 
   71600    275.94848   -496.95121    141842.26   -49084.196    3789.4878   -52873.683   0.30972238 
   71700    276.19196   -495.83297    141840.45   -49069.676    3792.8315   -52862.508   0.30702304 
   71800    267.18408   -523.04913    141812.59   -49236.471      3669.13   -52905.601   0.31630289 
   71900    269.00546   -475.92131    141814.85   -49175.712    3694.1422   -52869.854   0.30823044 
   72000    273.56862   -522.79375    141839.15    -49153.82    3756.8062   -52910.626   0.31697752 
   72100    274.68908   -505.36515    141870.52   -49028.025     3772.193   -52800.218   0.31429777 
   72200     280.1257   -482.52807    141921.99   -48925.504     3846.852   -52772.356   0.30393318 
   72300    281.15497   -521.00235       141948   -48896.147    3860.9864   -52757.133   0.31266835 
   72400    280.28721    -497.4929    141884.94   -49007.425    3849.0699   -52856.495   0.30464605 
   72500    273.19014   -481.95492    141843.53   -49004.699    3751.6087   -52756.308   0.31189278 
   72600    275.36228   -494.09715     141838.6   -48949.256    3781.4378   -52730.694   0.32415542 
   72700    266.80251   -521.29594    141844.13   -49103.607      3663.89   -52767.497   0.32429261 
   72800    273.58347   -477.35284    141821.23   -49029.274    3757.0102   -52786.285   0.30894472 
   72900    272.42591   -484.02059    141819.78   -49042.482    3741.1138   -52783.596   0.32406757 
   73000    275.62866   -522.67711    141830.26   -49052.972    3785.0959   -52838.068    0.3235476 
   73100    277.68881   -450.31665    141818.11   -49005.555    3813.3871   -52818.943   0.29607898 
   73200    274.74487   -508.42805    141850.59   -48991.751    3772.9592    -52764.71   0.32467244 
   73300    277.62683   -542.85565    141865.27   -48975.322    3812.5359   -52787.858   0.32097262 
   73400    275.48885   -504.20196    141856.48   -48954.589    3783.1759   -52737.765   0.30829183 
   73500    276.44993   -495.21673    141860.48    -48962.27    3796.3741   -52758.644   0.31713483 
   73600    273.45528    -527.8457    141831.12   -48996.472    3755.2497   -52751.722   0.32428188 
   73700    270.04971   -475.88979    141807.11   -49052.544    3708.4825   -52761.027    0.3133463 
   73800    267.71222   -479.71662    141788.46    -49140.36    3676.3827   -52816.743    0.3132767 
   73900    274.94981   -486.88961    141792.39    -49120.27    3775.7735   -52896.044   0.31731433 
   74000    271.57558   -473.73977    141799.96   -49041.634    3729.4366   -52771.071   0.31228077 
   74100     279.5871   -479.25749    141866.03   -48887.991    3839.4555   -52727.446   0.31431925 
   74200    272.35138   -548.04382    141855.17    -49050.07    3740.0904    -52790.16   0.32322371 
   74300    273.30444   -493.54269     141793.1   -49050.747    3753.1784   -52803.926   0.31402717 
   74400    274.66709   -506.29713    141783.43   -49081.237     3771.891   -52853.128   0.32099737 
   74500    269.98304    -495.9456    141784.17   -49096.594    3707.5669    -52804.16   0.31672361 
   74600    270.22688   -509.27206    141820.82   -49107.166    3710.9154   -52818.082   0.31649285 
   74700    276.91048   -488.33117    141820.92   -49020.986    3802.6987   -52823.685   0.32115262 
   74800    272.36892   -512.43518       141823   -49077.949    3740.3313    -52818.28   0.31178315 
   74900    275.64621   -491.65173    141792.73   -49075.414    3785.3369   -52860.751   0.31609668 
   75000    275.97382   -494.06692    141788.33   -49060.604    3789.8358    -52850.44   0.31592895 
   75100    274.66223   -511.55161     141816.6   -48992.483    3771.8243   -52764.308   0.31649316 
   75200    269.88271   -513.11904    141832.37   -49037.648    3706.1891   -52743.837   0.31812383 
   75300    273.03612   -498.28915     141799.7   -49077.925    3749.4937   -52827.419   0.32126032 
   75400    268.39782   -539.96204     141825.2   -49094.103    3685.7977     -52779.9   0.32223872 
   75500    273.94028   -491.32145    141806.14   -49094.297      3761.91   -52856.207   0.30539393 
   75600     275.7731   -508.19244    141815.11   -49022.255    3787.0794   -52809.334   0.32706683 
   75700    272.03393   -510.73804    141851.03   -48978.726    3735.7309   -52714.457   0.32120288 
   75800    276.78619   -521.50376    141834.05   -49003.187    3800.9918   -52804.179   0.31395248 
   75900    274.44261   -497.50151    141826.51   -49019.298    3768.8084   -52788.106   0.32924626 
   76000    274.20474    -473.1306    141836.41   -49024.984    3765.5418   -52790.526    0.3216125 
   76100    271.21369   -498.07161     141813.2   -49113.475    3724.4669   -52837.941   0.31180641 
   76200    273.10285   -488.12131    141793.71   -49151.796      3750.41   -52902.206   0.31395598 
   76300    269.08056   -460.20546    141822.21   -49093.507    3695.1735    -52788.68   0.32523841 
   76400    273.39431   -485.62133     141802.4   -49093.577    3754.4125    -52847.99   0.31058461 
   76500    269.19757   -527.67752    141790.89   -49082.603    3696.7804   -52779.383   0.32054778 
   76600    267.09475   -531.47916    141821.32   -49123.788    3667.9032   -52791.691   0.32747138 
[...]
   81900    270.87845   -472.63688    141792.92   -49120.699    3719.8632   -52840.562   0.31159586 
   82000    274.01409   -503.48752    141806.27   -49038.036    3762.9237    -52800.96   0.32884789 
   82100    274.98497    -486.3211    141859.63   -48987.429    3776.2564   -52763.686    0.3141773 
   82200    269.16835   -544.81784     141845.7   -48998.283     3696.379   -52694.662   0.31512605 
   82300    273.57523   -534.41985    141830.72   -49068.879     3756.897   -52825.776   0.32195616 
   82400    274.74789   -520.33526    141831.36   -48949.344    3773.0006   -52722.345   0.32457214 
   82500    281.04019   -499.94616     141844.8   -48855.626    3859.4103   -52715.037   0.30871671 
   82600    276.79075   -536.49885    141857.54   -48950.964    3801.0543   -52752.018   0.32093759 
   82700    274.58453   -466.38217    141822.88   -49030.715    3770.7573   -52801.472   0.33730878 
   82800    269.37276   -500.56629    141805.31   -49036.032    3699.1862   -52735.218   0.30570256 
   82900    279.20545   -508.37312    141859.11   -49002.775    3834.2145   -52836.989   0.30631101 
   83000    276.03266   -502.78124    141865.77   -48937.527    3790.6438   -52728.171   0.33379037 
   83100    271.10524   -507.06736    141872.03   -48981.021    3722.9776   -52703.998   0.30231102 
   83200    276.60708   -478.53152    141882.88   -49012.987    3798.5321   -52811.519   0.30177096 
   83300    277.35193   -530.90879    141838.15   -48997.905    3808.7609   -52806.666   0.33606933 
   83400    277.43923   -511.63143    141858.77   -49080.629    3809.9597   -52890.589   0.30611515 
   83500    270.59201   -491.87516       141830   -49178.625    3715.9297   -52894.555   0.29856078 
   83600    272.52447   -465.02381    141843.27   -49126.345    3742.4673   -52868.812   0.32586789 
   83700    272.33309    -497.4729    141855.42   -49160.861    3739.8391     -52900.7   0.30800947 
   83800     274.2259   -497.16288    141812.89   -49118.595    3765.8324   -52884.428    0.3008869 
   83900    274.98766   -517.88648    141817.51   -49117.463    3776.2933   -52893.757   0.32618954 
   84000    272.40461    -531.7485    141818.65   -49134.053    3740.8214   -52874.875   0.31388618 
   84100    269.56382   -498.66717    141833.88   -49067.774    3701.8099   -52769.584   0.30680147 
   84200    274.72168   -475.01643    141839.95   -49025.108    3772.6408   -52797.749   0.31858002 
   84300    268.16054   -494.95175    141813.47   -49073.758    3682.5392   -52756.297   0.31915889 
   84400    271.40085   -512.05631    141818.15   -49070.114    3727.0371   -52797.151   0.31176304 
   84500    273.46894   -553.00903    141811.19   -49125.573    3755.4374    -52881.01    0.3178702 
   84600    279.71097   -498.09502    141827.85   -49041.061    3841.1567   -52882.218   0.31876457 
   84700    274.26425   -505.55011    141817.23   -49045.193     3766.359   -52811.552   0.31736348 
   84800    272.14293   -509.83075    141820.33   -49038.419    3737.2278   -52775.647    0.3153757 
   84900    274.46733   -486.41373    141839.37   -48963.794    3769.1479   -52732.942   0.30994904 
   85000    276.36087   -494.55131     141853.6   -49040.352    3795.1511   -52835.503   0.31796524 
   85100    271.27366   -514.82374    141801.86   -49050.389    3725.2904   -52775.679   0.32585936 
   85200    271.57796   -501.52997    141801.69   -49092.156    3729.4693   -52821.626   0.30288692 
   85300     270.7115   -496.49248    141816.28   -49100.181    3717.5705   -52817.752   0.31923684 
   85400    274.96824   -486.04063    141794.31   -49129.467    3776.0267   -52905.494   0.32921819 
   85500    267.93301    -523.0014    141787.54   -49075.111    3679.4147   -52754.526   0.29988963 
   85600    267.54443   -494.17967    141780.69   -49105.611    3674.0785   -52779.689    0.3270381 
   85700    275.63213   -469.48367    141794.97   -49056.207    3785.1435   -52841.351   0.32971694 
   85800    271.97208    -538.2577     141795.8   -49042.844    3734.8815   -52777.726   0.30909093 
   85900    272.33751   -524.04605     141817.9   -49012.947    3739.8999   -52752.847   0.31550459 
   86000     277.6628   -484.98253    141801.38   -49064.111    3813.0299   -52877.141   0.33335956 
   86100     275.9131   -485.60052    141795.22   -49039.185     3789.002   -52828.187   0.31045813 
   86200    277.52931    -478.6052     141821.3   -49002.404    3811.1967   -52813.601   0.30401337 
   86300    275.87031   -519.24179    141802.54   -49049.582    3788.4144   -52837.997   0.34280373 
   86400     275.0449   -472.61083    141783.41   -49102.099    3777.0794   -52879.178   0.30825294 
   86500    275.76519    -484.9965    141787.63   -49138.004    3786.9709   -52924.975   0.30539364 
   86600    277.72939   -506.94989    141791.69   -48983.955    3813.9444     -52797.9   0.33745748 
   86700    273.79047   -532.35254    141815.19   -48985.346    3759.8528   -52745.199   0.31733651 
   86800    272.17145   -463.90973    141804.43   -49097.981    3737.6195     -52835.6   0.31090565 
   86900     272.4222   -492.80722    141793.83   -49080.938    3741.0629   -52822.001   0.32843823 
   87000    271.40213   -535.27411    141811.94   -49055.644    3727.0547   -52782.699   0.32379929 
   87100    276.05044   -480.54329     141826.1    -49037.95     3790.888   -52828.838   0.31117583 
   87200    272.09656   -482.40676    141848.75   -48972.914    3736.5911   -52709.505   0.32711283 
   87300     273.9601   -502.38536    141877.66   -48985.557    3762.1823   -52747.739   0.30696651 
   87400    276.53196   -487.42023    141843.53   -49039.922    3797.5005   -52837.423   0.31019495 
   87500     275.8495   -490.42707    141832.34   -49011.097    3788.1285   -52799.225   0.32494685 
   87600    274.05471   -479.99512     141849.5   -49036.085    3763.4815   -52799.566   0.30666459 
   87700    275.25813   -507.76215    141860.78   -49009.364    3780.0075   -52789.371    0.3212394 
   87800    271.61226   -521.04272     141859.4   -49093.841    3729.9403   -52823.782   0.31878635 
   87900    272.95963   -464.30465     141868.8   -49115.645    3748.4432   -52864.088   0.30104149 
   88000    270.07583   -491.73711    141842.44   -49085.754    3708.8411   -52794.595   0.31836235 
   88100    274.43959   -473.63738    141863.72   -49054.351    3768.7669   -52823.118   0.32072317 
   88200    269.46944   -499.06506    141820.66   -49146.984    3700.5139   -52847.498   0.30209558 
   88300    276.38515   -465.63512    141842.59   -49099.437    3795.4845   -52894.921    0.3111878 
   88400    277.05031   -487.31031    141854.53   -49028.587    3804.6189   -52833.206   0.32791778 
   88500    272.52707    -502.2717    141849.99   -49095.873    3742.5031   -52838.376   0.29804042 
   88600    273.51082   -501.90763    141868.22   -49085.861    3756.0124   -52841.873   0.31822665 
   88700    269.94018   -491.68948     141903.5   -49059.387    3706.9784   -52766.365    0.3226796 
   88800    270.48378   -516.47328    141896.47   -49122.789    3714.4434   -52837.232    0.2901812 
   88900    275.45775   -495.22581    141874.66   -49068.731    3782.7488    -52851.48   0.31334078 
   89000    273.95477   -467.14438    141876.24   -49031.464     3762.109   -52793.573   0.31938446 
   89100    274.74462   -524.77455    141873.97   -49078.365    3772.9557   -52851.321   0.30227135 
   89200    273.31458   -531.10695    141845.98   -49025.125    3753.3176   -52778.443   0.31651594 
   89300    273.59559   -492.27169    141815.33   -49139.892    3757.1765   -52897.069   0.32189114 
   89400    272.54479   -552.77522    141825.59    -49041.75    3742.7463   -52784.496   0.31304589 
   89500    270.10859   -484.49144    141808.05   -49132.493     3709.291   -52841.784   0.31159633 
   89600    269.69218   -542.91795    141764.11   -49158.338    3703.5726   -52861.911   0.32888978 
   89700    271.03904   -484.53774    141769.26   -49076.443    3722.0686   -52798.511    0.3126581 
   89800    276.42693   -511.65478    141812.65   -49025.554    3796.0583   -52821.613   0.31720188 
   89900    276.75071   -459.52533    141828.74   -49010.439    3800.5046   -52810.943   0.32274292 
   90000    276.80218   -507.04976    141836.76   -49025.593    3801.2113   -52826.804   0.31126923 
   90100     277.5965   -487.74407    141828.82   -49009.976    3812.1194   -52822.095   0.31572043 
   90200    269.13967   -532.70754    141843.21   -49079.347    3695.9853   -52775.332   0.31796945 
   90300    277.29589   -469.87654    141844.55   -49062.013    3807.9913   -52870.004   0.30656817 
   90400    273.08862   -499.69594    141837.09   -49049.758    3750.2145   -52799.973   0.32035561 
   90500    276.16686   -478.01338    141835.88   -49055.389    3792.4868   -52847.875   0.30802269 
   90600    272.67545   -517.27195    141857.78    -49085.41    3744.5406   -52829.951   0.31085654 
   90700    269.25956   -571.52773    141835.32    -49112.59    3697.6317   -52810.222   0.32809013 
   90800    271.17213   -522.98586    141829.56   -49132.652    3723.8962   -52856.548   0.30469349 
   90900    270.94047   -507.33505    141827.71   -49105.497    3720.7149   -52826.212   0.31200095 
   91000    270.93167   -498.00834    141812.08   -49124.473     3720.594   -52845.067   0.32410591 
   91100    266.60398   -498.43955    141772.73   -49218.359    3661.1637   -52879.522   0.31134006 
   91200     272.0666   -492.82833    141785.28   -49172.078    3736.1796   -52908.257   0.29963906 
   91300    271.96679   -457.50339    141797.15   -49104.467    3734.8089   -52839.276   0.31792068 
   91400    275.93285   -487.75612    141830.28   -49083.468    3789.2732   -52872.741   0.31444156 
   91500    279.92653     -478.078    141870.77   -48930.215    3844.1168   -52774.332   0.29864334 
   91600    274.98232   -508.88534    141889.91   -48992.073      3776.22   -52768.293   0.31553703 
   91700    271.51864   -511.70644    141837.64   -49056.645    3728.6547     -52785.3    0.3189698 
   91800    273.47828   -500.47883    141828.38   -49030.205    3755.5656   -52785.771   0.30040761 
   91900    271.91076   -469.75744    141830.94   -49018.307    3734.0395   -52752.347   0.31774003 
   92000    274.22646   -496.01005    141818.38   -49059.773    3765.8401   -52825.613   0.31867831 
   92100    277.52295    -527.8532    141795.19   -49045.822    3811.1093   -52856.932   0.31357611 
   92200    274.66885   -510.83509    141784.31   -49074.423    3771.9153   -52846.338   0.31786046 
   92300    280.19205   -443.76767    141823.72    -48954.68     3847.763   -52802.443   0.31306042 
   92400    274.05279   -493.52011    141822.75   -48997.192    3763.4551   -52760.647   0.31923831 
   92500    275.23985   -471.30907    141802.37   -48989.135    3779.7565   -52768.891   0.31363461 
   92600    278.01798   -485.63174    141828.46   -48907.854    3817.9075   -52725.762   0.31642862 
   92700    265.85858   -510.27704    141827.88   -49027.656    3650.9273   -52678.584   0.32492639 
   92800    276.58182   -482.49803    141833.15     -49039.7    3798.1852   -52837.885   0.30217736 
   92900    272.61232   -507.11069    141820.06   -49078.095    3743.6738   -52821.768   0.30973592 
   93000    274.72547   -511.12273    141818.01   -49086.847    3772.6928    -52859.54   0.31326332 
   93100    275.36395   -469.20601    141806.37   -49003.373    3781.4608   -52784.834   0.31860296 
   93200    269.08929   -529.74144    141831.13   -49066.495    3695.2933   -52761.789   0.31398979 
   93300    274.46215   -479.92433    141820.08   -49115.186    3769.0767   -52884.262   0.31170299 
   93400    266.92325   -499.42488    141776.25   -49164.701     3665.548   -52830.249   0.32648558 
   93500    270.18822   -511.57406    141792.38   -49168.453    3710.3845   -52878.837   0.29996588 
   93600    266.56072   -492.14819    141800.21   -49117.995    3660.5695   -52778.564    0.3143817 
   93700    271.64971   -514.00986    141822.14   -49104.553    3730.4546   -52835.007   0.31807574 
   93800    276.08632   -497.28342     141805.5   -49101.074    3791.3808   -52892.455   0.30874118 
   93900    274.18586   -532.93989    141782.05   -49172.887    3765.2825    -52938.17    0.3178714 
   94000    269.75217   -477.58913    141762.16   -49139.981    3704.3964   -52844.377   0.32052247 
   94100    268.97742   -464.02955    141813.71   -49026.244    3693.7572   -52720.001   0.31648961 
   94200    273.40914   -535.61947    141830.82   -49013.019    3754.6161   -52767.635   0.31685491 
   94300     273.0248   -506.56531    141841.17   -49034.373    3749.3382   -52783.711   0.32283052 
   94400    275.76508   -492.86504    141809.67   -49026.252    3786.9694   -52813.221    0.3163646 
   94500    275.00615   -520.13647    141827.01   -49029.401    3776.5473   -52805.948   0.30986466 
   94600    273.84828   -473.99444    141805.75    -49028.06    3760.6467   -52788.706     0.315513 
   94700    268.74223     -478.426    141782.64   -49066.585    3690.5274   -52757.113   0.31849323 
   94800     275.2794   -495.55691    141768.93   -49105.319    3780.2996   -52885.619   0.31801006 
   94900    269.35867   -523.24722    141763.46   -49133.907    3698.9926     -52832.9    0.3208866 
   95000    274.55612   -473.84979    141778.19   -49093.792    3770.3672   -52864.159   0.31729932 
   95100    271.79504   -475.44288    141792.74   -49052.518    3732.4504   -52784.968   0.32307957 
   95200    269.66494   -512.88484    141775.84   -49083.588    3703.1986   -52786.786   0.31984514 
   95300    271.70876   -512.57389     141793.7   -49039.671    3731.2655   -52770.937   0.32316094 
   95400    276.61655   -535.12907     141844.3   -49014.226    3798.6621   -52812.888   0.31942433 
   95500    275.16479   -484.03708    141854.52   -49036.834    3778.7258    -52815.56    0.3114741 
   95600    278.60543   -479.91129    141832.27   -49021.108    3825.9746   -52847.083   0.30672055 
   95700    277.28409   -475.19804    141828.96   -49059.276    3807.8293   -52867.105    0.3164209 
   95800    276.44844   -476.52587    141802.79   -48995.808    3796.3535   -52792.161   0.31967012 
   95900    273.17222   -473.97977    141822.14   -49020.521    3751.3626   -52771.883   0.30633447 
   96000    277.36752   -482.22791    141832.17   -48987.933     3808.975   -52796.908   0.31966648 
   96100    278.81999   -515.96401    141877.06    -48943.12    3828.9211   -52772.041    0.3197136 
   96200      277.064   -489.79188    141876.59   -48962.295    3804.8069   -52767.102   0.30284681 
   96300     274.3262   -506.85643    141850.84    -48974.29    3767.2098     -52741.5   0.31917952 
   96400    270.75311   -512.36522    141826.42   -49025.318     3718.142   -52743.459   0.32646631 
   96500    275.73984   -456.13046    141831.96   -49017.643    3786.6227   -52804.265   0.30857446 
   96600    271.34599   -529.78885    141830.66   -49069.523    3726.2837   -52795.806   0.31850372 
   96700    271.99341   -508.66685    141805.64   -49038.259    3735.1745   -52773.433    0.3188982 
   96800     271.6135   -501.16818    141808.36   -49057.054    3729.9574   -52787.012   0.31378754 
   96900    274.98916    -462.9913    141793.51   -49066.072    3776.3139   -52842.386   0.31339527 
   97000    273.67062   -525.36004    141767.91   -49138.115     3758.207   -52896.322   0.32362657 
   97100    272.16612   -493.44722    141791.79   -49108.677    3737.5462   -52846.223   0.31308301 
   97200    277.01462   -476.21715     141796.4   -49054.214    3804.1287   -52858.343   0.31361654 
   97300    279.93351   -498.75094    141839.54   -48951.414    3844.2127   -52795.627   0.32104656 
   97400    272.65242   -489.11766    141834.11   -49036.587    3744.2244   -52780.811   0.31425719 
   97500    273.16471   -532.61159    141812.32   -49011.947    3751.2594   -52763.206   0.33009717 
   97600    281.34078   -486.50126    141844.47   -48950.216    3863.5382   -52813.754   0.31778362 
   97700    276.03799   -479.28425    141845.54   -48908.415    3790.7171   -52699.132   0.32226323 
   97800    274.69949   -521.72759    141803.12   -49010.474     3772.336    -52782.81   0.32862697 
   97900    273.11859   -529.35792     141803.2   -48969.617    3750.6261   -52720.243   0.32120914 
   98000    275.01845   -503.57219    141801.16    -49054.39    3776.7162   -52831.106   0.31909368 
   98100     279.3358   -474.22081    141815.56   -49037.396    3836.0045   -52873.401   0.32653938 
   98200    274.21951   -505.29314    141813.36   -49040.016    3765.7447   -52805.761   0.32084453 
   98300    274.40474   -517.95804    141834.62   -48983.128    3768.2883   -52751.416   0.31865719 
   98400    274.27986   -508.49244    141846.15   -49024.546    3766.5733    -52791.12   0.32020917 
   98500     275.7185   -474.02754    141827.21   -49003.599    3786.3296   -52789.929   0.30850724 
   98600    276.17671   -505.48777    141820.44   -49005.705     3792.622   -52798.327   0.30960251 
   98700    273.39875   -478.40574    141867.86   -48979.583    3754.4734   -52734.056   0.32270057 
   98800    271.53325   -495.71094    141873.95   -48991.228    3728.8553   -52720.084   0.31738693 
   98900    274.53555    -533.8814    141860.75   -49057.866    3770.0847   -52827.951   0.31498542 
   99000    274.51072   -493.95218    141834.11    -49050.81    3769.7437   -52820.554   0.32299055 
   99100    274.10557   -528.02109    141806.87   -49108.897    3764.1799   -52873.077    0.3198906 
   99200    272.51091   -551.61938    141796.11    -49110.27    3742.2811   -52852.551   0.30798522 
   99300    274.63692   -474.89815     141810.7   -49031.329    3771.4767   -52802.806   0.32421497 
   99400     269.0685   -492.03773    141810.78   -49067.573    3695.0079   -52762.581   0.31842468 
   99500    273.85316   -477.70401    141812.93    -49029.43    3760.7137   -52790.144    0.3153899 
   99600    273.59646   -483.56938     141803.6   -49022.435    3757.1885   -52779.623    0.3258007 
   99700    268.67839   -486.95689    141795.02   -49062.697    3689.6507   -52752.348   0.31633529 
   99800    270.07033   -504.76355    141802.01   -49081.085    3708.7657   -52789.851   0.32204043 
   99900    265.31898   -504.51543    141781.49   -49130.877    3643.5173   -52774.395    0.3209532 
  100000    271.45834   -498.41268    141826.83   -49055.967    3727.8265   -52783.793   0.31476057 
Loop time of 114.751 on 6 procs for 100000 steps with 4608 atoms

Performance: 376.467 ns/day, 0.064 hours/ns, 871.452 timesteps/s
98.9% CPU use with 6 MPI tasks x no OpenMP threads

MPI task timing breakdown:
Section |  min time  |  avg time  |  max time  |%varavg| %total
---------------------------------------------------------------
Pair    | 97.093     | 97.505     | 98.129     |   3.3 | 84.97
Neigh   | 6.3585     | 6.5209     | 6.7632     |   6.7 |  5.68
Comm    | 7.5421     | 7.9711     | 8.5733     |  11.8 |  6.95
Output  | 0.16846    | 0.16928    | 0.17265    |   0.4 |  0.15
Modify  | 1.8543     | 1.9104     | 1.9489     |   2.5 |  1.66
Other   |            | 0.6742     |            |       |  0.59

Nlocal:        768.000 ave         778 max         761 min
Histogram: 2 0 0 0 3 0 0 0 0 1
Nghost:        1682.33 ave        1708 max        1651 min
Histogram: 1 0 1 0 1 0 1 0 0 2
Neighs:        0.00000 ave           0 max           0 min
Histogram: 6 0 0 0 0 0 0 0 0 0
FullNghs:      24229.0 ave       24656 max       23899 min
Histogram: 1 0 1 1 1 1 0 0 0 1

Total # of neighbors = 145374
Ave neighs/atom = 31.548177
Neighbor list builds = 6595
Dangerous builds = 0

undump              1
unfix               2
unfix               3
unfix               4




################################################
#######         Run Simulation         #########
################################################

reset_timestep      0
log                 log.run_${NAME}
log                 log.run_ice_274K_-500atm_mW
