LAMMPS data file via write_data, version 29 Oct 2020, timestep = 200000

4608 atoms
1 atom types

-0.07273314174038603 53.472733141741045 xlo xhi
0.03843385057952986 50.8686861494185 ylo yhi
0.03843385057952986 50.8686861494185 zlo zhi

Masses

1 18.015

Atoms # atomic

4268 1 4.181364980830947 5.6618987935378104 24.421673124623318 0 2 1
573 1 1.2293461949002298 4.20533200533307 4.474626180300028 -1 -1 0
3158 1 0.08929947592230292 31.746898744231984 23.758378207021252 2 0 -1
3444 1 5.923631631079446 2.9469514493068787 3.2743729479866737 1 1 0
2821 1 13.020155866491478 2.455157378679384 1.461128796817794 0 0 1
1039 1 11.484918325773174 0.5838107670999991 2.3120904122437134 -1 1 1
2091 1 13.116368124531727 43.78819428843175 1.226739456230645 1 0 1
2085 1 3.149927854974988 45.411756415031086 1.8083181196460878 0 -1 2
4154 1 3.8661743667459043 7.4078041130011645 1.3025096250443875 0 0 2
567 1 17.101287634384665 10.464651434329355 24.503801870873996 1 -1 -1
845 1 13.234481013155463 4.920062106923648 3.3035273060595745 0 0 1
1353 1 13.361813197496476 16.654175850239206 1.4178272996140393 -1 0 1
3942 1 9.40006247748696 9.084711780444636 1.8505369910060954 -1 0 0
29 1 3.600249540623607 5.842893363724862 4.2326062168676515 0 1 -1
1816 1 12.116544401898743 7.263056380509656 2.430472996215882 0 0 1
4417 1 1.1575696119916163 41.18428439140755 11.86874881795563 1 -1 1
4152 1 8.587248233242573 48.53811908791397 23.285390056533668 0 0 0
3694 1 16.114325373123126 39.45980976336509 24.094667993071436 1 0 1
2902 1 5.269851883837444 8.570069663961924 3.444730873840315 0 0 1
3682 1 0.28701448864975243 9.64240658898515 7.516624697544454 0 0 0
46 1 4.292300647728936 8.502952194994101 6.547962081737963 -1 1 0
2178 1 13.60229547083395 11.32545584136261 4.739158785927336 0 1 0
1393 1 11.52079782610779 30.66020376524423 0.7884732770065975 1 0 1
2971 1 5.25059208736205 12.555830426535255 3.5164801811376094 0 1 1
2671 1 0.9694171535451146 22.4663566982261 8.55005341008645 1 1 1
3481 1 5.981437498747254 17.138298032329242 0.5234616772545657 1 0 0
934 1 15.352617062556313 12.23454576592759 2.649883152331433 -1 0 1
2127 1 8.93669120479676 44.008417399205335 23.92771758274 1 0 -1
141 1 1.1964524841962938 44.30787708508142 8.193089078647917 0 1 0
3536 1 4.309371953023079 17.38366257023029 2.8276832746212093 1 0 0
2165 1 1.4676596042508039 35.124146034353615 4.0937915116917365 0 0 0
3798 1 10.942684436958913 16.630325931773935 2.759504796789013 1 1 0
910 1 17.290371326536093 50.080116209166746 0.07010518122856377 -1 0 1
152 1 14.4820937538986 19.04028519581676 0.7950436446737867 -1 0 -1
3717 1 0.340643424434009 29.528191864956337 14.18085872360675 0 -1 0
4384 1 6.6874839572257025 21.73718729206543 1.8849646854898474 1 0 0
1482 1 8.786261567332675 22.165396151738502 3.509172399253454 0 0 0
4102 1 8.319076858036906 19.072637360672832 1.4450836371386324 1 -1 1
4447 1 9.893262354780349 19.147818697071347 3.760082057414329 0 0 1
1041 1 1.58153398686622 18.946701472887757 1.2066507940879219 1 0 1
4134 1 1.2763886650338883 24.662037677742422 1.5934210442942813 0 0 0
45 1 17.366950298780594 9.829331906006763 3.0746009460173904 0 1 1
1350 1 8.163275415209057 24.751275122169556 3.0005744796165543 1 -1 1
436 1 17.104844685736868 29.86875235598134 0.889737744777127 0 -1 1
984 1 16.183391894503064 22.55348134867436 1.4200286602441838 0 1 1
200 1 0.663275019418119 26.319229223313723 13.37223300592027 0 0 -1
2808 1 10.560348275818633 21.268627610595434 0.3563929141363692 1 0 1
4280 1 1.4425198666497745 15.042346367375734 19.835733755439446 1 0 1
4565 1 0.5140978957937646 34.14698177259426 10.671346372243146 2 0 0
1125 1 7.7194612540404455 27.627168102399782 5.8498974263265895 0 1 0
2095 1 16.06893974831219 25.29527236459906 6.199388314565202 0 0 1
4575 1 7.605683664542326 31.276015386978518 3.4073482189344384 1 -1 0
3753 1 10.087072507321638 28.424448879484533 0.9013159858816561 0 -1 0
3458 1 11.627177199618762 31.04477061216995 3.4890116969148104 1 -1 0
4033 1 15.10994259185387 24.863078599311535 23.54675381941479 0 0 0
480 1 2.369728655858594 22.159051482052313 0.9625056613625532 0 0 1
1255 1 1.6206039775548062 33.005133064535876 13.82662436900207 1 -1 0
409 1 7.6718919643473 35.50040227002098 1.8664812657297432 0 0 0
4405 1 9.851107759270983 32.81939000280868 4.03643438152857 0 0 0
1236 1 13.641415919411747 35.17866270827651 3.8372767392313882 0 0 1
619 1 11.015923255809293 34.7911050221467 0.48016639557853735 -1 0 0
3306 1 1.6647249100765715 3.5509280287755813 11.629320220972641 2 0 1
1488 1 8.83695420789379 3.0502390999399935 1.025561481273267 1 1 0
744 1 0.899469463173755 8.28274581531246 3.9649518923504115 2 0 -1
442 1 3.384599927151638 9.668099862658899 15.129474274566476 0 2 0
43 1 11.508473294819666 37.023861717710666 4.5604085817377085 -1 0 0
1419 1 12.056513086562843 39.48339977680388 3.041470458301069 0 -1 1
4235 1 16.353765581503126 39.17941252067217 5.377334741194544 1 -1 2
644 1 3.0012879011062097 35.62201983119659 11.497764664909464 -1 0 0
3101 1 4.281236432492927 1.5034198562949528 1.4908557885673361 1 1 0
3178 1 9.808672313746483 46.423634650430444 24.849614728509504 0 -2 0
3368 1 5.3078084374583545 22.16590613187754 24.146808220231968 1 1 0
3517 1 7.742365098473442 18.564047753910245 23.386727865602243 1 -1 0
4491 1 17.058540250092907 44.41945127561511 4.465006846192252 2 1 1
1846 1 16.770883088567423 30.628736980888423 19.350886090417024 0 0 0
4448 1 8.770634416141906 42.59664798720562 3.752325103057436 1 -1 1
4146 1 10.417737555778055 44.39360933585437 2.105958988697698 0 0 0
48 1 1.5447838612822564 22.708699778063718 16.031756844350603 1 0 1
3546 1 1.1073518910481868 32.32111118599346 4.268227026705795 0 0 0
2876 1 2.730858570570663 47.62933886688916 0.8454519666782911 0 -2 0
1686 1 0.7448275623040325 40.76999062426961 21.033803143964704 0 0 0
2790 1 16.53420826442311 18.981833572581706 25.006276886577556 0 0 1
2748 1 8.14084346576393 47.51144459360347 4.811346374972138 0 -1 2
4068 1 13.171053261701836 46.52436269838809 1.2032056911103926 0 -1 1
4348 1 2.609898496681571 30.151490270945196 24.32103817311577 1 -1 0
2492 1 3.393870428775804 40.961074965135275 0.35047602572070774 0 -1 2
3624 1 15.704226929859797 36.28134270209247 1.384052127057748 1 0 1
3221 1 14.861352830914084 2.2525808814762684 24.610388226522357 0 1 0
1705 1 9.020416461909862 0.23635795175980737 1.3703559945589274 1 1 0
3476 1 12.32688373663985 48.604093756991965 3.0865759325744246 0 -1 1
2285 1 2.5497329659070544 37.62303185112731 5.317678072995044 1 -2 1
698 1 1.4183729159320106 3.5061043449169196 7.297982999028742 1 1 2
1761 1 4.02085071132889 4.457509185879374 8.289963786471349 0 1 0
590 1 9.276740477833757 1.1613124026848152 6.795490129125247 -1 0 0
987 1 11.440565493566432 1.2957243078784872 4.887535681892124 0 -1 2
3137 1 16.00552865272792 1.3503787042513895 5.521438193317688 1 0 0
4400 1 1.9011155120100927 7.166977808339283 6.1958351243552245 0 0 0
4116 1 3.3434556360066976 24.836586699735218 4.053223189185813 0 0 0
3727 1 7.9352546954791965 7.638090410932358 3.755730442647504 -1 1 1
668 1 7.8809799420417574 3.417212906281162 7.2349183266670565 0 1 0
1128 1 5.563207049523216 19.625754037417604 24.95131914829232 1 -1 0
1391 1 16.282157458861306 28.364897309615216 24.13197958977604 0 1 1
1492 1 7.048222167878215 7.438982704054239 6.687790786039067 0 0 1
2666 1 3.52715490925547 7.574118913039106 9.17363229661529 1 1 2
4383 1 6.002783615321228 4.652489237670064 5.9980798424723245 0 0 1
1348 1 10.952333535113848 7.395460437700621 5.192688783516906 1 0 0
265 1 15.49798747988865 6.605894766936742 4.768956481268087 0 -1 0
1995 1 16.936697972381015 5.782044593863897 2.2104820762869735 0 0 0
1787 1 16.28931480796389 48.16016847037553 15.330616221313207 0 -1 0
2669 1 6.508405028798068 7.39191551669692 24.511937614119244 -1 0 0
4071 1 4.863622856529765 11.238454731932435 6.469179451827959 0 1 1
3668 1 16.508117609680546 10.902419620998941 5.6070024326874774 0 1 0
4001 1 16.12521072001969 7.856443544373163 0.8165192613215223 0 0 0
3241 1 2.3740715684267015 10.039154990978451 0.9972712202690722 1 0 0
144 1 0.24728344488770165 4.8977557941067635 13.752077094429403 0 0 0
3467 1 9.88827427487316 11.79376533060432 2.2313016562062282 1 0 1
739 1 0.7625662492026112 21.819467709280794 20.899545353675986 0 -1 0
3220 1 2.8716922190378242 10.475746830985576 3.852736649836596 -1 -1 0
3465 1 8.695337765857335 13.517435462950415 6.079491705723604 0 1 0
3336 1 2.346604028440884 13.233212725665197 4.674379782290422 0 0 1
2539 1 10.571839386829947 11.794697456425652 5.041655335853983 0 1 1
1428 1 9.36227495884728 9.528832375655853 6.417993982283306 0 1 1
4533 1 1.90529390690988 16.252676524512534 3.834863607804917 1 -1 1
3793 1 7.1884184567396 14.412635535904979 4.003290960009843 1 0 1
1696 1 10.446939914639316 17.038042639220894 6.405765044355726 0 0 0
3617 1 9.03618633417334 14.631247209941657 2.0629395474378143 1 -1 1
791 1 12.810152324997377 15.622506509848096 5.01166374321402 1 0 0
2690 1 14.896374456625855 17.163255206980924 7.013207605337667 1 1 0
2834 1 15.590883715405406 15.182499506548822 2.367869867012308 -1 0 1
1732 1 5.9647522748131 16.760156856396737 5.019312319899023 0 1 -1
1132 1 4.733441025328556 20.171716047791712 3.6375483335373096 1 1 0
83 1 10.66012102662419 20.500228348906866 5.966414958137758 0 -1 0
154 1 7.81145486704266 18.240170167641136 6.203351224315005 0 0 -1
3859 1 15.461081675143404 1.0950839376314416 2.7159320002131606 0 1 0
363 1 0.3432546321668255 48.86504511477084 6.080259559491279 1 -1 0
3303 1 3.5488188897506556 27.88081761976605 3.8112919903997935 2 0 1
2675 1 4.784016376089524 24.3642570451931 6.108636163160016 1 0 1
3987 1 7.332320963669789 22.98914975162918 5.835415434092285 1 0 1
861 1 11.685968940985294 22.69415710679411 2.7043562048027745 0 -1 1
498 1 13.571025763639973 23.942650814563425 6.4644272504675815 -1 -1 0
3720 1 3.435981260751493 30.506374196649897 3.010876316562067 1 0 1
37 1 6.57965386880764 27.262093239259976 3.55513228317477 0 0 0
246 1 3.4633721239347004 28.898697962702194 6.311814600911441 0 1 0
4602 1 13.73675791591453 24.095235768005363 1.1703586115382687 0 0 1
493 1 11.538122668577278 24.61210718647969 4.8538358292178545 -1 0 -1
2689 1 14.829302192057671 28.156366233837446 5.761997994282409 1 1 1
3488 1 16.91643114721712 27.332098583658464 2.103500519002457 1 0 0
256 1 15.56261259864473 27.101918804128644 8.431758734300889 0 -1 0
381 1 7.770364009906671 29.293727515747285 1.678979556121055 0 0 0
3006 1 8.555618046821376 30.175060316821565 6.06428892645695 0 0 1
101 1 10.78097701528271 28.665150086151225 4.195315842656769 0 1 0
4060 1 12.857492025358479 27.05333595513103 4.208907087999703 0 0 0
1359 1 4.476394359138922 29.97401560111849 0.5620441900552647 0 0 0
3751 1 5.192187203000432 32.50587741364001 4.1119198613359185 1 -1 0
2194 1 5.566079093369533 35.16538376956437 3.4965227650190798 1 0 -1
515 1 0.14939472833082754 37.377367238079344 6.757452739056614 1 0 -1
3136 1 6.493249521110128 33.91125661210526 6.97030350529607 1 0 0
2507 1 9.039290936947761 33.08549897670436 6.698664068945545 0 0 1
3550 1 12.975959537869521 30.41195622762915 6.004213908079838 1 0 1
3678 1 6.340689442647501 39.41391510485658 3.762293238395504 0 -1 1
662 1 0.7995152140121816 42.679839606215616 3.490849807097748 1 0 0
2672 1 6.337896392486402 36.45027374171533 6.053030691531658 1 1 1
3894 1 9.871984872259597 35.3366269886044 3.325698825145137 1 0 1
295 1 7.629207757799528 38.196333608657746 1.0507878277890204 0 0 0
3812 1 11.502566778893963 37.429778397457056 7.3331424194060695 2 0 -1
133 1 16.205056960403127 36.704632212346276 4.204368812689267 -1 0 0
3667 1 9.524702365795367 39.46981720978206 7.17020077126475 1 1 0
4465 1 7.15468423679091 41.324121315855635 2.1868783717059 1 0 2
1569 1 14.715422893766178 40.280095370088915 3.2233108831399764 0 0 0
2988 1 10.721008635875517 40.870371034780646 5.183198001337515 0 -1 1
3128 1 8.28197059861811 47.041850658230786 1.3091920012490894 1 -1 1
3005 1 4.954357318801378 41.04196929482779 5.426475851590368 0 0 0
2744 1 7.219600378027615 44.79766816544368 5.9577624344760896 0 -1 0
2201 1 15.003003249750106 43.216919382841056 3.697916462235516 0 0 1
2637 1 12.986464495200225 46.34554987866189 24.64623246145033 1 0 1
1266 1 0.7176099889582789 38.35975364053578 24.11508209092309 0 0 0
1884 1 2.6017766714997683 0.7781523744282991 4.182162326816502 0 0 -1
2575 1 5.110249389269247 43.62753847587891 4.21913503145893 0 -1 1
1433 1 6.863637173144596 49.221106362996146 2.4048356272272007 0 -2 1
2566 1 10.526829739614701 46.583356448816446 3.878523853530113 0 0 1
3230 1 8.286655889722706 49.5608309019548 7.041066627052903 1 0 0
1881 1 13.566745894423347 48.825243747170965 5.572066996343309 0 1 0
1363 1 13.469221499936957 42.605196286042386 5.97580326244659 0 -1 1
648 1 3.5585934530903782 48.321721045274415 4.865445421960327 1 -2 0
1281 1 0.5658358200995002 0.9086864057077305 5.779602206723632 0 1 2
4264 1 4.174351698202321 50.63149624930782 5.900574246598902 0 0 1
2169 1 6.646012155753265 0.4112920015179631 4.651440341867112 1 0 -1
3374 1 10.80462855828937 21.42191731035386 25.10481238000322 1 0 0
1898 1 5.425325192922408 0.1688860571486195 12.73331243567956 1 1 0
251 1 3.241292117190106 0.8079004726958849 8.719719510474793 0 0 0
2326 1 11.064487818217499 0.9133388729248448 8.555681991093492 1 1 -1
3417 1 14.225824902293972 49.98888306809571 9.459659982043641 2 -1 0
3765 1 4.842837696345434 33.36649534165275 0.897436128417986 1 0 0
2353 1 1.23593199247975 7.584648354190187 10.817807401494763 1 1 -1
939 1 6.544894973436917 3.3886472669677574 9.599028894720504 0 1 0
3351 1 11.892490813176485 4.138332787447851 5.272607356082351 1 0 -1
867 1 16.447704441886476 3.868788708784459 6.247391010144369 0 1 1
4137 1 1.941638249449067 3.0509924760539135 1.2635309061310045 1 0 1
1894 1 7.744061313146987 7.028168575413588 9.423769604987337 1 0 0
533 1 4.137823613465964 4.889970064981909 11.560594863184512 0 0 0
2323 1 8.883631016141186 9.412455626350157 9.897912508405698 0 0 1
1405 1 12.41716666018047 7.506050355722966 10.99633996890504 -1 0 0
1416 1 9.504257861927877 5.529027995214574 6.8579662780406805 0 0 0
510 1 15.107317872899968 6.1836465605601525 8.107190540211132 0 0 0
3127 1 15.181063364704533 40.79595424970225 0.3813403951681605 2 0 0
1219 1 0.8241831479921575 22.664096378575707 11.886318668097553 0 1 0
4120 1 4.244355211923678 10.743655949033819 9.120186251712669 1 0 1
3522 1 11.19918205509133 10.150695135009245 8.363464500277642 0 1 -1
3257 1 13.648035966761979 8.579399815090543 5.550440627682498 1 1 0
666 1 7.015036579999578 10.710858981334102 1.9607755678828218 0 -1 0
2450 1 3.50039923921877 13.688422944322687 7.368766353804316 0 0 1
2320 1 12.58958092974899 13.351625522431831 6.570925229472556 0 -1 0
1820 1 10.415767410411322 13.543333713501516 25.042349249681322 0 1 -1
2354 1 14.790480136672832 47.0982703557424 9.975375832896564 0 0 0
3343 1 5.616703802193994 15.859351185996884 8.212869147085136 0 0 0
1797 1 9.941744444820657 14.806250959626066 8.263370097906783 0 0 1
4475 1 14.126229621010296 21.104232573722353 9.792838716958352 0 -1 1
2383 1 6.264266385269727 20.628043716668245 6.126152860919312 0 0 0
3661 1 14.293169214892073 20.253937724326054 6.873845771364635 0 -1 0
901 1 13.259428615384358 21.446768007600724 4.735665225690355 1 2 1
2080 1 15.918855326753073 23.80444595887562 9.046851713596908 0 1 0
1408 1 15.330058152914802 20.69000209172278 3.0511523712066073 0 0 1
4293 1 0.8369556331056001 17.519185656035965 6.577599067381239 0 1 0
21 1 3.867384699697908 23.14551549749486 8.612227504639309 0 0 1
4189 1 5.110305476977777 20.591409191266113 8.809882981648258 0 0 0
3757 1 6.1512813964065565 26.65280586040733 9.914408232576001 0 1 0
3463 1 9.380546983494655 25.265564675264564 6.360656502964652 2 0 0
555 1 9.326079108579124 22.115140118152915 7.687547834228351 -1 0 1
391 1 11.707553837849572 22.934740089475977 8.597862677939183 -1 -1 0
4074 1 5.372485505160328 24.288230321765845 2.1526190902477245 1 -1 -1
361 1 16.90690737189788 13.829624909227574 18.90668837816485 0 0 -1
3483 1 13.854828468788156 48.9713059142067 24.503710884293753 0 -1 -1
264 1 0.3886977512264213 27.14650363778706 9.818389546942225 -1 0 0
1707 1 5.274491008184956 26.727889099145614 7.298461378740561 0 0 0
3734 1 13.856922852633362 24.95433535702267 10.451801702174915 0 -1 -1
4052 1 11.535910210280948 26.1585778376233 8.735217138917893 1 0 1
2501 1 13.76638658981676 29.690833210205856 11.82130653577044 0 1 1
2413 1 1.5195069353051676 31.084410536088544 6.799271590781187 1 0 1
1101 1 8.586953352663727 9.566064385222662 23.569957987196112 1 1 1
273 1 4.683668376122705 31.58510982147661 6.936142646680185 0 0 1
2035 1 10.905894466901358 30.34053011774074 7.658611123099391 1 0 1
1740 1 11.613682615410575 28.684889913805375 9.796849568470407 1 -1 1
3024 1 14.965602701951823 32.93505904884486 9.726447383287747 -1 0 1
1066 1 1.0605504133295514 31.53595611391038 10.301039670293639 0 -2 1
1865 1 6.5278191054652215 31.361073304008602 9.218165677333117 0 0 1
2940 1 11.023788323707215 32.74403467227155 8.532483076534445 1 0 1
2941 1 16.817184848968584 32.750132071961595 5.848140175332435 1 0 1
1334 1 4.266898329053289 34.724003914131906 9.135311465497095 -1 0 1
3725 1 4.2433239626640455 37.05555359956816 7.618472798619707 1 0 -1
4365 1 5.2059951111260965 32.93134945108983 11.139848881502507 1 0 0
866 1 8.253854336903656 37.68301084560455 10.017090308455707 0 0 0
4105 1 9.019257935106832 35.522308799218706 11.761591369630791 1 -1 1
1571 1 9.532352511426048 35.7227315681525 8.454253539941659 0 0 1
1685 1 17.27173663189459 47.29886514065581 17.939327767858693 0 0 1
4553 1 2.5882073571734248 40.188317500771895 5.9365501668381375 0 0 1
2716 1 16.633549290037333 48.41238105381482 5.306884771108585 0 0 1
2321 1 7.038154701599497 40.59910124351459 7.279361465196367 0 -1 0
3378 1 5.715200588558558 38.939947172042324 9.087626058576033 0 -1 0
82 1 8.376416920691977 38.010902069956884 5.054161251978146 0 -1 0
3142 1 11.122183102598376 42.24015460138909 8.696662510366474 1 0 0
2027 1 12.942532115554227 39.99955479477067 7.741125576139692 0 1 0
1185 1 13.37615580666764 39.706787430314115 10.547764885264026 -1 -2 1
4094 1 1.871673745520982 41.64780257185406 8.00450587056216 1 0 0
3360 1 8.770578692399665 43.18359452936037 7.173031961536367 1 1 0
2906 1 10.98953051835109 44.050994533642275 5.550622238003 0 0 2
1380 1 0.4697574171619373 19.010719901322954 11.152593000986633 1 1 0
1660 1 2.6987253217869704 44.74923383816815 4.814687889295737 0 0 0
1277 1 5.35051648009405 46.647289261622205 7.550165481428422 0 0 1
3204 1 5.449139092538235 46.79352263507714 3.5453335428571724 1 -1 1
4514 1 12.142552313765307 46.57905207554581 6.723176652048455 0 -1 0
2030 1 16.59658158573906 45.75984075772243 6.946661694284625 0 0 0
1604 1 1.9896386503715329 49.05022901700521 8.410070426713554 1 -1 0
3247 1 2.728563656913793 46.461398126766866 7.2054913125917555 1 0 -1
2494 1 6.218213461390781 48.9460868280308 8.922420108019798 0 0 0
1204 1 13.447851294038681 0.39329265867798036 6.79019796857825 -1 1 0
2584 1 10.54136264662169 48.327402694517005 8.021589392629295 0 0 0
1115 1 5.119958820658062 43.09130056828702 1.2704867116785339 0 -1 -1
4466 1 2.3992585520980514 0.9479466525192821 11.77958586454428 0 1 1
3911 1 15.627570417747647 0.8410339356976463 16.881582293024213 1 0 0
4367 1 2.4400162505065497 0.11232230424558765 14.393239911055293 0 -1 0
2884 1 5.7746878481986945 0.7004387624084935 10.09838767480761 1 1 -1
2925 1 7.885714305616941 50.47556619932998 13.538229100188055 1 0 1
2345 1 9.711733542629805 2.6130432480713988 11.768092406574139 1 1 0
3215 1 12.633001836342526 1.4176305183650457 12.141070696993943 0 0 0
2827 1 13.734187012001737 3.685711800947915 7.228310184796792 1 0 1
3938 1 17.117457855438644 3.6810065818659505 9.263493240176922 1 -1 1
877 1 5.5957924833433195 3.0389351742041075 13.291655941883224 1 1 0
2408 1 8.127184374012128 4.814527539763961 11.214695901294116 0 0 1
1527 1 10.723684089097285 5.739112475837871 9.505213986542074 0 -1 1
4561 1 11.960770362742412 3.464317048966571 9.562907735380962 1 0 1
1085 1 15.995944112644231 5.820062085112629 12.692197822739798 0 0 1
1728 1 11.381431453276345 40.52348079861142 0.4022663527615287 0 0 0
1923 1 3.362686629066709 7.61102201518925 13.11466788201163 1 0 -1
3353 1 5.499444815649307 8.142888441684415 11.278654856500884 0 0 0
2720 1 14.256267635389797 3.7497344909810537 10.543410795469116 0 0 0
1844 1 13.10735838461074 5.340057753046866 12.470235534145734 0 0 0
3646 1 0.462587052748334 46.14737554023339 3.486770859894912 1 -1 0
4174 1 14.092846495609319 9.471916681784842 1.9337408005182521 0 0 1
282 1 1.3805036636449337 14.46678568847356 9.073187916017256 -1 0 1
1902 1 4.746760060108735 15.758379182752487 11.12607819588445 1 0 1
2148 1 13.493057365405503 10.618491256257299 11.972459068109663 0 1 0
1536 1 13.956420645281721 8.638691436004862 8.535383983062976 1 0 1
3572 1 15.770863722749423 9.766891010034138 10.646996752228855 -1 1 -1
2751 1 14.946494561136308 10.851942181856304 14.432852062716636 1 1 -1
4601 1 1.2893045279791293 48.861429387773484 3.1428455008901244 1 0 1
2409 1 2.2565859520197242 40.187718032495546 2.9104704829957257 0 0 0
4002 1 6.1176740214507745 10.82589597855047 11.413867642774973 1 -1 -1
4359 1 1.8744704572202495 12.118790876893467 10.584510296760696 1 1 1
1278 1 7.9001489188661544 12.089994145293373 9.856111748919949 -1 1 -1
2654 1 11.392119167175569 12.649307591664188 9.460569273220509 0 0 0
3908 1 15.508673643747812 16.292682004734157 9.254089189033829 1 -1 0
1349 1 0.47775489159689033 39.33858118287829 8.720725005125017 0 -1 1
1650 1 13.900990880644956 13.000163635315598 10.638187343854623 1 1 1
191 1 16.200925938564556 41.78756180150827 15.539113671589117 -1 0 1
2375 1 2.4168469085220954 16.891203177325835 10.369290536239603 0 0 1
1076 1 12.302812576347431 15.112191862833864 12.550623783580638 1 1 1
1976 1 11.188974469601593 16.447339171334978 10.177493315263485 1 -1 -1
1597 1 0.5294068156454022 19.680541545399638 8.267330171440648 0 0 -1
2100 1 3.4516642580065104 18.068419679996047 8.140701419907963 0 0 -1
1869 1 7.438255187846594 11.538423898084337 7.282625334476057 0 1 1
204 1 7.934525968515485 18.060757738011862 11.061703481761034 0 0 0
1953 1 4.084130495139497 22.899674693384355 13.506034344033884 1 0 0
4092 1 7.55526114877804 14.92763086952177 9.841674623883232 0 0 2
1431 1 15.84904648728858 21.216708571034573 14.363049624942793 -1 -1 1
2920 1 12.023547452390744 20.598238914664904 11.64022671471306 1 1 -1
788 1 13.008712820701856 19.31852092715081 13.96556452803063 -1 0 1
2460 1 12.779654462832463 16.679367655594724 25.228224313403054 0 0 0
3205 1 2.549787784267627 20.49377785083973 12.37981364219369 0 0 0
2619 1 12.23429263435178 18.560793438142518 7.941227801958832 0 2 0
3304 1 14.877282946560758 26.095986489516207 12.875409328194932 1 0 0
2211 1 16.605884487273862 25.331076695932158 16.535387001971706 1 1 0
1421 1 1.8306412355685686 28.63073956138385 11.794410977254344 0 0 0
1544 1 0.9506002643536224 7.817592865591856 24.75744546724205 0 0 1
3315 1 8.989721281362407 26.50631592400751 10.003625519194857 1 0 -1
4457 1 9.287777334677676 24.919792902575914 12.1352022737156 0 0 0
312 1 11.892779167833929 23.511186247166833 11.583633260883513 1 -1 0
3314 1 12.340334385658863 30.981173551782746 13.990358964808118 0 0 0
2933 1 17.310452724459395 4.890987311008478 18.924789127354163 1 0 0
2833 1 15.349208985411588 17.34597811809819 13.394067167726737 1 0 0
3586 1 0.017402346063917662 46.02832192344452 20.024385382638144 0 -1 0
2542 1 3.1389719791452375 31.45009850252915 12.183383630371699 0 0 1
3689 1 6.701113353529318 29.273300731423177 10.72837863474128 0 0 0
1730 1 13.317211489602096 33.60768613106203 11.697565988052533 0 0 0
2995 1 9.49882675758968 28.906895860965356 11.630710765352056 1 0 1
2704 1 14.727938927837558 29.943674362856264 8.855149992807862 1 0 0
2363 1 4.69506332987704 29.019974162624024 12.887031004621416 1 -1 0
2306 1 6.6706598696392625 34.96005675862485 12.587490432979617 1 0 0
1411 1 10.632607322677762 33.23964843222762 11.155327121580978 0 1 0
158 1 11.115945136293128 33.47363035206496 14.896378746158947 0 0 1
2945 1 14.209713173968138 32.8887793666529 5.347400101543402 1 -1 0
1 1 15.666979352817998 13.961320400087205 8.155002779512007 0 1 1
3828 1 2.2077297454705156 21.062219295119245 3.7625420901459252 2 -1 1
1677 1 16.82314037062991 46.513135230735756 25.396711633083466 1 -1 -2
2734 1 6.010188280523409 37.84985497347812 12.174230258002497 1 0 -1
2787 1 10.569024841868664 37.04627922004006 13.68693633678993 1 0 0
3299 1 14.86291799800143 37.23125341288824 11.053972085242759 0 1 0
3036 1 13.278608638200636 34.66622788707286 7.500079223727891 1 -1 0
3849 1 2.510660474733223 38.67096363021055 11.829122627860816 0 1 1
4327 1 11.015507811888854 39.87367344375633 13.10970253073256 2 0 -1
3249 1 10.400181177810195 39.66955888651901 10.26657928282838 0 -1 0
1200 1 12.207655922825902 41.60682381983154 15.042682923968748 -1 -1 1
128 1 14.692955519759545 41.80858670452298 11.50743087912806 -1 0 0
335 1 14.794776798836821 42.11258513223512 23.271637195113303 1 -1 0
3123 1 4.795175368800902 42.99507034533986 10.943358239293504 1 0 0
3168 1 3.667357948921891 40.68791536881735 10.03276804813005 1 1 -1
1887 1 7.148530479220586 41.85900893492642 12.358212940990274 1 0 1
475 1 9.189857286293456 44.776408320140135 9.678115524676437 0 0 0
3429 1 14.172474242755591 45.27325153373665 7.949241928069307 1 -1 -1
1024 1 9.583443494397208 42.496358369773006 11.255557549524852 -1 -1 0
1168 1 13.234049301964438 43.58400619929287 10.01195063118658 0 -1 1
2082 1 0.6255109103883852 42.82773420130102 24.18877339567387 1 0 -1
1123 1 15.00988481316636 33.45296603711325 24.417772583098973 0 0 0
4248 1 6.192838204707764 44.74216380605515 9.69809361153001 1 -2 1
3649 1 6.6000432152506034 47.36433860077904 11.126197699362098 1 -1 0
1935 1 11.878221835407484 45.08073422591477 11.865452484873641 0 1 2
750 1 8.16162734484947 47.62242299167277 13.394519029887475 -1 0 1
2772 1 8.714560880155414 0.42255766617092927 10.773926361153926 0 0 1
3332 1 1.7308075570052375 48.63531397622343 11.346692945810327 1 -2 1
2442 1 9.976832643961465 47.204284958206394 10.600360540138519 0 -1 1
558 1 11.471713601221389 50.131080838205385 10.852770251336178 0 -1 0
2892 1 13.33737847973974 47.845801037642985 12.348393372307031 0 -1 0
3818 1 0.5689123264276263 49.80568952595839 16.95847688639617 1 0 1
3593 1 7.98679374280769 2.907617023181175 14.593193484885083 1 0 -1
171 1 10.405321024830887 50.745725316555486 15.653085315343082 0 -1 0
1515 1 15.367940982916423 1.0363790594271192 13.984555166199364 0 1 0
1628 1 0.7861035920183287 44.5444074595047 10.883680537269589 1 1 0
1826 1 2.2309142946519365 15.948888708772692 24.749340227009995 0 1 0
4281 1 3.813278937260031 1.8968011637771682 15.298257256316441 1 1 0
3830 1 4.2944687912695985 5.453305853284547 14.694657499425846 1 0 0
470 1 8.566731537785673 5.79198458166022 13.941310432788617 1 1 0
2463 1 11.32813158172461 4.861489658788746 14.446973170464863 0 1 1
1481 1 15.734230822826426 3.8329412877282842 14.886779801583463 0 1 1
1340 1 0.722312620517411 9.31641590978104 13.622745037840923 0 0 0
517 1 10.606250692627961 9.297127029250445 12.04412267031833 -1 -1 -1
4242 1 9.546810898372012 8.395976940965264 14.241472961908647 1 0 2
1954 1 7.840615129267695 5.513606874445464 18.157740931956752 0 1 0
2391 1 16.76882983286647 7.2692760122544815 14.832749780780171 0 0 0
1640 1 14.10584535424929 26.76435615004525 1.6721757004953204 1 0 0
412 1 3.484896869827747 13.556323136840396 12.52513853912015 1 0 0
4509 1 9.430072279628323 2.994493744133374 24.674682266399763 1 0 1
2487 1 7.208706748823284 9.62524510327176 13.868814158893207 1 1 0
1967 1 9.488613341111337 10.115678868809958 16.60938363049735 0 2 1
3076 1 14.024182787399427 13.434385932314553 14.417811228740561 0 0 0
4530 1 14.278322135864162 9.350584598199623 16.991802176616805 0 1 2
1354 1 9.977963071140852 35.21289783319512 24.207291327206324 0 -1 0
1367 1 4.337871698128464 17.09365379549469 13.822518638705814 0 0 1
893 1 8.46141377526905 12.132205970161525 14.726511260636544 1 1 0
3324 1 10.067318959814772 13.171326088115253 12.110848867586423 0 0 0
2384 1 17.211082183724372 11.769592668286696 12.889600575106224 1 0 -1
3684 1 15.6636175558875 14.683035929425028 12.252675696985616 1 -1 0
3880 1 1.3780765903539394 17.003901405862486 13.64623773591563 0 0 0
1557 1 5.202655748293599 19.053824902211073 11.550716391589336 0 1 -1
3082 1 7.798437055604528 14.875508435492648 12.79830187162258 1 0 1
2162 1 8.613551835296125 18.076154221174004 13.58093941548017 1 -1 -1
1678 1 10.724405837374112 15.40044022758778 15.9689984638817 0 0 0
69 1 13.966000171375658 17.937125643362155 10.846365633422852 -1 0 1
75 1 17.761282053990822 2.0376593787087476 24.00548221287691 -1 0 0
2361 1 1.2905982888780998 20.147287679949482 14.678664417212968 0 1 0
2088 1 6.415833305444287 21.16960705509577 13.504064839237937 1 -1 1
3633 1 10.354449967153394 19.34491996844988 9.942311415375778 1 0 -1
1063 1 11.198106246256954 17.3151127036615 14.064932801230462 0 0 0
1025 1 0.4761549521065289 44.044963573926935 0.938935254204373 0 0 1
116 1 16.65497033879061 29.937945493918843 11.329783342399466 0 1 0
1829 1 12.998970230453924 9.11279740094816 24.93763695954254 0 2 0
2108 1 5.325057163082172 24.32362139920426 10.800889875451311 1 0 1
3408 1 7.656030074936602 21.048998232178132 9.733033294905027 1 1 -1
3766 1 9.481833289088136 22.68734577693523 14.2335240860419 0 2 -1
3924 1 13.230468737747088 27.718131660403795 14.254844171593158 1 -1 2
785 1 14.06763639362959 25.551624876650543 17.718011024536573 0 0 1
2783 1 0.3029286872519591 27.545057936276574 16.24209973872759 0 0 2
2551 1 2.732455376573834 25.187715265978426 14.981824464509662 0 0 1
970 1 3.8883495382065614 26.386256459794286 12.256326476510898 0 0 0
588 1 10.479563212034659 27.484583768275428 14.050722651801761 -1 1 0