LAMMPS data file via write_data, version 29 Oct 2020, timestep = 200000

4608 atoms
1 atom types

0.01972464735528945 57.25078535264174 xlo xhi
0.017533019872534084 50.88958698012593 ylo yhi
0.017533019872534084 50.88958698012593 zlo zhi

Masses

1 18.015

Atoms # atomic

5 1 1.5741815360518832 1.6590872352657202 1.2847532388419398 0 0 0
2 1 0.08434763715468904 3.068047743268598 2.8047568544342685 0 0 0
13 1 8.198571045669107 1.3119475873502642 1.9006472123461933 0 0 0
148 1 3.3522705720762795 41.94447365248719 0.14710256087547552 0 0 0
409 1 0.1529921047130553 6.398113180190821 12.940399997171186 0 0 0
21 1 14.689626678683878 1.7987844400880593 1.687021914483689 0 0 0
137 1 12.677269751424152 31.59141597266904 0.12339079992756384 0 0 0
27 1 2.942407375743306 6.309280617773103 3.09165913479068 0 0 0
673 1 0.25102620271874687 25.515631053757584 18.704579576199077 0 0 0
8 1 4.962051812256922 4.659688895806144 1.6525751692235713 0 0 0
16 1 11.329872844396023 4.528709032568414 1.5230764364444849 0 0 0
24 1 17.872912955361457 4.653001341194514 1.5174543049691618 0 0 0
29 1 1.5017606481253005 8.373802084213557 1.870189925361661 0 0 0
35 1 9.5241386874578 6.288216939920813 3.2709119367790693 0 0 0
37 1 8.200368827188042 7.702180958624745 1.3255185985266873 0 0 0
45 1 14.199639408633715 7.901061736342536 1.4938487213983438 0 0 0
51 1 3.1945893099624576 12.873442866243067 3.195801306491871 0 0 0
32 1 4.8364037612093185 11.26410901992929 1.6028496830413252 0 0 0
92 1 16.009238373962365 22.67398645548199 0.052639569890466864 0 0 0
40 1 11.075217350264868 11.227669290192416 1.5065126142166947 0 0 0
59 1 9.569071809266298 12.464230904871803 3.233985520385273 0 0 0
42 1 12.689823862563047 9.637047466583795 3.1013911812615405 0 0 0
48 1 17.731243112627784 11.117488754044105 1.4428136438659223 0 0 0
53 1 1.6004805139318181 13.977950036380012 1.620522291574091 0 0 0
73 1 0.24654692074010554 18.983698264751254 0.43645616325390263 0 0 0
61 1 8.197710193974611 14.217964063487722 1.6278606996716787 0 0 0
953 1 12.756195159256416 44.933506550932094 25.14801503697713 0 0 0
69 1 14.483352959768283 14.190522525417608 1.9952428713470778 0 0 0
67 1 16.189968511387463 12.35666277512615 3.406620684561092 0 0 0
56 1 4.781833697186636 17.41266124125468 1.5264116937085432 0 0 0
64 1 11.386672817771446 17.528964480259194 1.7108742508852324 0 0 0
820 1 3.600326773719299 16.051819553246965 25.154496698567748 0 0 0
72 1 17.373671518262285 17.646312019274877 1.5011744546200165 0 0 0
77 1 1.6189223634429273 20.849408676101536 1.944882173061681 0 0 0
929 1 12.620559479695542 38.64877619948385 25.04548624826608 0 0 0
85 1 8.168617418432243 20.548564529398284 2.012529479833509 0 0 0
788 1 16.279548860423443 3.3493837979311394 25.1273809928803 0 0 0
93 1 14.36697444806112 20.949643490387217 1.6485686302450102 0 0 0
80 1 4.851427011645187 23.63648755312765 1.5847083493939362 0 0 0
217 1 0.4585030697593473 6.609192416691709 6.345047569668453 0 0 0
88 1 10.892143602290764 24.282919052072963 1.4362821208207568 0 0 0
90 1 12.883098730824983 22.831720490826648 3.217832873448844 0 0 0
115 1 16.065732056801206 25.615257398884932 3.106412289550469 0 0 0
96 1 17.63912036351358 24.069795786177746 1.5066941289176268 0 0 0
101 1 1.4887142282754453 26.85409329906094 1.517638360052352 0 0 0
99 1 3.2395531072466763 25.590215163657945 3.0750054147708252 0 0 0
109 1 7.843545952252765 27.12397711460232 1.7191819454288597 0 0 0
649 1 0.13895891044369174 19.1801675094853 19.152232454586052 0 0 0
107 1 9.119072706968577 25.477741426576713 3.0973133767880934 0 0 0
117 1 14.620132563418775 27.18845141313311 1.432014127292465 0 0 0
825 1 6.853508466985987 12.866164815462529 25.41412028246857 0 0 0
104 1 4.593311052136992 30.400099460574577 1.7099656664952865 0 0 0
106 1 6.413812697039922 28.839513233948445 3.007106709426154 0 0 0
112 1 10.928793497683166 30.141634233603263 1.6957010874256364 0 0 0
114 1 12.72323048876534 28.8346685960419 3.061429325059248 0 0 0
120 1 17.87844028869386 30.225019839990125 1.3029380030765307 0 0 0
125 1 1.446508556941996 33.76343900471339 1.6515596346871422 0 0 0
916 1 3.3558505310088953 41.21320898085955 25.36788950943226 0 0 0
123 1 3.1630707830659586 32.033095660822084 3.3562884365564973 0 0 0
133 1 7.703633037893779 33.64088968926643 1.6999941217603 0 0 0
130 1 6.327005776500119 35.15121211890035 3.5148864741197894 0 0 0
131 1 9.525127381561571 32.037191634449314 3.4831077629388174 0 0 0
141 1 14.355176588994755 33.19805938089732 1.5592338626075786 0 0 0
139 1 16.321827619366612 31.786341905997865 3.1302911811294645 0 0 0
128 1 5.048226783411475 36.88627243182955 1.6319776745246197 0 0 0
155 1 9.69579056638104 38.233015141323264 3.1761233999970373 0 0 0
28 1 3.0001636875130804 9.680450495001487 0.05579706729003881 0 0 0
136 1 10.904716884040731 36.766006867774664 1.4686794213455978 0 0 0
138 1 12.558628894074536 35.02613783536435 2.9357793101357306 0 0 0
144 1 17.23846334203711 36.86355933978378 1.594545582656845 0 0 0
900 1 9.669538282198198 35.30347418161911 25.187535548722614 0 0 0
149 1 1.8542261442603167 39.92890504824214 1.6582684374185384 0 0 0
766 1 14.309358357995926 49.45457849322813 23.55918294846522 0 0 0
147 1 3.2386888746574543 38.41796073384863 3.3055471445142537 0 0 0
157 1 8.094624613668438 39.76044100403345 1.5269269863477428 0 0 0
165 1 14.466337701413556 40.14790874193085 1.4101385035738758 0 0 0
152 1 5.129535141726475 43.34276216596599 1.71676571889583 0 0 0
2018 1 19.058794816848042 28.562906455734176 16.087463492315642 0 0 0
57 1 6.8353855176840845 12.445350634357993 0.02616469506599549 0 0 0
160 1 11.147795971016105 42.96337593243949 1.5699530666313546 0 0 0
162 1 12.813934217916351 41.546615184358814 2.995733562522024 0 0 0
168 1 17.56190169673638 43.00869272971234 1.5653203677218708 0 0 0
173 1 1.6141425718001834 46.064528068921504 1.5931220854551094 0 0 0
171 1 3.0932998892823584 44.41551472374988 3.2041035721123934 0 0 0
458 1 0.11688986209713348 22.45076778809221 16.06764283210323 0 0 0
181 1 8.352072488201234 46.189720125878196 1.517326957902447 0 0 0
189 1 14.433778502008913 45.905834631322435 1.3171709046017095 0 0 0
481 1 0.1467756959943757 25.731451411820014 12.830530814445016 0 0 0
457 1 0.16286026019302907 19.14734387313291 12.742091288889043 0 0 0
337 1 0.2849965260154679 38.19392816975794 6.63903066403596 0 0 0
3 1 3.1532658911822247 0.514441394096487 3.05618706772136 0 0 0
176 1 4.6342900532661515 49.33178553606483 1.3970074393426029 0 0 0
841 1 0.11683738900392664 18.953885761764255 25.191435820425262 0 0 0
184 1 11.522644268247738 49.469050522450914 1.3489522399542233 0 0 0
868 1 2.893188636652638 28.59340942867239 25.291716680857718 0 0 0
192 1 17.833433459829646 49.15653961667154 1.61307413529187 0 0 0
650 1 0.32759821464349714 22.170968143717282 22.228533980226064 0 0 0
385 1 0.12044201453423209 50.77331311754932 12.931038523805514 0 -1 0
7 1 4.724562151891426 2.206182556062115 4.524137348629454 0 0 0
196 1 2.8434252805752953 3.247567501855725 6.480166731393384 0 0 0
15 1 11.336826369744763 1.5913775700285495 4.471436961973516 0 0 0
18 1 12.968812627912511 3.159343439930629 2.99509273049241 0 0 0
23 1 17.40303178653201 1.7976856695483139 4.767970352417122 0 0 0
19 1 16.229129246145227 50.77384256062514 3.2154029657697505 0 -1 0
6 1 1.3457646101230283 4.648425434095469 4.738243220893818 0 0 0
10 1 6.638899257620758 3.1331428358113977 3.1765128392061994 0 0 0
14 1 8.0818204262447 4.713992285412447 4.749733256921391 0 0 0
22 1 14.187556894105768 4.8834657270510204 4.668640900196161 0 0 0
43 1 15.98536926772013 6.402480055271701 2.967343302101854 0 0 0
758 1 7.95008296145377 49.17160634402467 23.971436859981452 0 0 0
31 1 4.657300232301076 7.476739490705653 4.633978816847643 0 0 0
34 1 6.452437331680239 9.275656372119538 3.1227732686122907 0 0 0
225 1 6.224874939619277 6.1466506506254985 6.17818429494724 0 0 0
39 1 11.071934424262265 8.127913654598622 4.728930213055153 0 0 0
233 1 12.65132753153345 6.319815539759731 6.124530400854371 0 0 0
47 1 17.90118824286051 7.869141182088408 4.374853922602089 0 0 0
30 1 1.7475589581908266 11.362132101604214 4.785032514811458 0 0 0
38 1 7.714179404961343 11.315632800131473 4.728422875519523 0 0 0
228 1 9.352653358872663 9.62920473785888 6.176893879157384 0 0 0
257 1 12.774197176908391 12.750314295401601 6.434569621172887 0 0 0
46 1 14.366421671201014 11.055268324097609 4.831817381453121 0 0 0
236 1 15.95740541018907 9.147189170460425 6.211941332701933 0 0 0
55 1 4.519480122552723 14.653473503013776 4.765233413042128 0 0 0
63 1 10.976648291950667 14.277141268743028 5.107274171157707 0 0 0
71 1 18.120485583705367 14.144786090617414 4.98908148352762 0 0 0
54 1 1.2722795117187757 17.757064244558112 4.766254810180025 0 0 0
266 1 0.05469410194132921 22.41562240581005 9.73546210747958 0 0 0
58 1 6.570733712164567 15.858171504656436 3.2060177103572602 0 0 0
62 1 7.860095925876927 17.672312183245992 5.151904478508623 0 0 0
83 1 9.876566884138937 19.069156495430363 3.4250925916695114 0 0 0
252 1 9.46128498906203 16.00167446266261 6.680235237752419 0 0 0
66 1 12.843555083400563 15.79027066455058 3.569648936697388 0 0 0
70 1 14.643284337387446 17.449370822293414 4.899280098404047 0 0 0
91 1 15.98626994730563 19.25929768210426 3.273716681436751 0 0 0
75 1 3.252258462086828 19.041290026612792 3.2863506463647565 0 0 0
79 1 4.647932006099567 20.67806327587095 4.982546120008666 0 0 0
82 1 6.240040449852199 21.96673317528226 3.2593380899573634 0 0 0
276 1 9.588328074948915 22.31218208631294 6.629824756027678 0 0 0
87 1 11.379879646819743 21.02001309918672 5.024162044663424 0 0 0
95 1 17.91630986070326 20.377557706908057 5.062747355490153 0 0 0
361 1 0.2760376310930715 44.45056273452043 6.1545146487745175 0 0 0
78 1 1.6844928765346512 24.332947116053422 4.95570177887103 0 0 0
817 1 0.2805299442527565 12.703282810949004 25.198087796523176 0 0 0
86 1 7.951453906154914 23.519959259249315 4.968049569243203 0 0 0
94 1 14.647194528659634 24.28807637861957 4.854675667544908 0 0 0
284 1 16.0355873721971 22.151367542215702 6.265000477028901 0 0 0
129 1 6.071139351012968 31.960773869273726 0.13582161159556602 0 0 0
750 1 1.3647293766936488 49.62631913699117 24.179443911609443 0 0 0
103 1 4.596031567295952 27.39064296126836 4.504030340902858 0 0 0
297 1 6.1174040964371805 25.545278446777687 6.194229368686184 0 0 0
111 1 10.909041849785176 27.31350610691278 4.608057182524025 0 0 0
305 1 12.52157149233758 25.85407216419505 6.1476902952198405 0 0 0
119 1 17.666755678414006 27.149386591474556 4.721871323916956 0 0 0
102 1 1.6284139196453278 30.34452144523472 4.807696773873754 0 0 0
292 1 3.1476690643071077 28.873766523975657 6.430329031003639 0 0 0
746 1 0.21653605853409708 47.87765875790156 22.383005502569326 0 0 0
300 1 9.413405322144854 28.844613449599706 6.3546090146405865 0 0 0
110 1 7.8114438996738365 30.414511526676343 4.833027706218735 0 0 0
308 1 16.059476221325 29.03117609141847 6.436639534829857 0 0 0
118 1 14.273316518018765 30.571780398811935 4.790753671402572 0 0 0
316 1 3.3155930004530303 35.08757693698118 6.48313656131789 0 0 0
127 1 4.803735075521495 33.55838035343493 4.8832949978261695 0 0 0
135 1 10.906575627421462 33.75671082298216 4.708156637676596 0 0 0
329 1 12.548289227577992 32.10611155184674 6.427946948807367 0 0 0
143 1 17.416813744338718 33.7312453338063 4.81491468789655 0 0 0
126 1 1.7454981252914803 36.52275912914651 4.843089289491548 0 0 0
134 1 8.201958231258104 36.81829900578008 4.915095330397567 0 0 0
324 1 9.403442628602004 35.180193236476356 6.713347062587575 0 0 0
353 1 12.675772621278336 38.16584520808138 6.2905627695329525 0 0 0
142 1 14.44137089337873 36.4852527542638 4.465811219466897 0 0 0
332 1 15.684024266059563 35.09305745118418 6.360341687318986 0 0 0
1994 1 19.029490694808267 22.01223229893557 15.973657378960743 0 0 0
151 1 4.919291396507194 40.01098656138177 4.767964667816126 0 0 0
159 1 11.291172159278949 39.8643383286426 4.72553053727411 0 0 0
163 1 15.842816069382575 38.498706330450005 3.212473666648838 0 0 0
167 1 17.34977375839757 39.81324628263323 4.811154528808263 0 0 0
626 1 0.3691109124408586 15.761926383276794 21.952529953436823 0 0 0
150 1 1.8749216425516868 42.70837367310169 4.894075023892424 0 0 0
169 1 0.20845426061725703 44.329647455785306 0.2653547118414442 0 0 0
154 1 6.3783018262527795 41.50848479907738 3.1979881099112353 0 0 0
158 1 8.017068667900936 43.03249483315331 4.633016426189484 0 0 0
166 1 14.342082678619317 43.05898087923141 4.696013483023557 0 0 0
187 1 15.816354160565828 44.43575077719207 3.0055315398493483 0 0 0
364 1 3.40139821005792 48.009097456565016 6.248928358898347 0 0 0
175 1 4.699841134766984 46.309732662493886 4.600297741156321 0 0 0
178 1 6.316185439864669 47.66026799566468 2.8304396083593604 0 0 0
179 1 9.68385651680676 44.66571972554448 3.3478862278789383 0 0 0
183 1 11.605676379168917 46.26882488564435 4.67544032130056 0 0 0
186 1 13.283804506533528 47.544165490840896 2.8764885830756417 0 0 0
191 1 17.508652752849024 45.57102490308476 4.789095855411964 0 0 0
767 1 17.558707054382577 46.13712564875206 23.90354529307241 0 0 0
174 1 1.5464753404886116 49.79010790254412 5.07515437239764 0 0 0
182 1 7.8518367915788705 49.034649899464796 4.741649655799474 0 0 0
11 1 9.832960068310618 50.684953053389336 3.431299387627577 0 -1 0
190 1 14.72281738413409 49.275523285850326 4.573841757248374 0 0 0
197 1 1.4325178995345462 1.5294904295766767 7.842288917003491 0 0 0
201 1 6.212033382913237 0.25555021567796365 5.807861846222378 0 0 0
204 1 9.814380447363732 3.0378550627966012 6.223756572765767 0 0 0
205 1 7.597648214624317 1.706923571434978 7.615030085032566 0 0 0
209 1 13.050045673824453 0.2831902431993552 5.996711920115091 0 0 0
213 1 14.388875253448287 1.4925906802827538 7.852247099324315 0 0 0
2186 1 19.09294335872553 22.48440908171214 22.25796555865701 0 0 0
2210 1 18.654530871370596 28.773770166462768 22.054489072852316 0 0 0
202 1 6.024159696344735 2.9721887372156415 9.576647602669187 0 0 0
200 1 4.798090641910784 4.715514218616714 8.024570570594683 0 0 0
219 1 3.209721261174519 6.385380272662283 9.496546552235236 0 0 0
208 1 11.304617135015175 4.435025016064628 7.73991800092391 0 0 0
210 1 12.756468105254449 2.8925188699582636 9.45844557066869 0 0 0
212 1 15.936338668894203 3.3151776002289095 6.216881772956228 0 0 0
216 1 17.3166026508323 4.950606010498944 7.849868533578441 0 0 0
221 1 1.9790362512469968 8.435486935299613 7.832417019406071 0 0 0
227 1 9.797079509740875 6.4463681285098975 9.231276574106971 0 0 0
229 1 7.885257004591879 7.633269789810509 7.7724571974704535 0 0 0
237 1 14.138751926111881 7.758754132704151 7.788158582291955 0 0 0
235 1 15.666568849822573 6.242878009119544 9.623254139171847 0 0 0
2090 1 18.947417938185453 48.13846929435935 15.408744118729937 0 0 0
220 1 3.5369433757623816 9.84070792681889 6.180584246832668 0 0 0
224 1 4.676506055118795 11.421605910912593 7.8883866901669855 0 0 0
249 1 6.1373968087729525 13.060811627907192 6.473133717592618 0 0 0
232 1 11.100467502297324 10.997221453003021 7.747496750701047 0 0 0
234 1 12.617016615307513 9.541881979144753 9.642668393016674 0 0 0
240 1 17.23579353967106 11.077993215891874 8.026558811359827 0 0 0
245 1 1.5425509988057644 14.724279266167047 7.8949907706606615 0 0 0
243 1 2.9602324211460145 12.743087915033778 9.545621966814483 0 0 0
251 1 9.806429676198704 12.360546708062465 9.64900102536769 0 0 0
253 1 7.8989385598332715 14.230342325583871 8.40697794481595 0 0 0
261 1 14.245011293546952 14.257609889075885 7.891670111748768 0 0 0
259 1 15.784960742720557 13.008671088716932 9.531215379087675 0 0 0
244 1 3.1154806917159434 16.35157065764039 6.409661533810812 0 0 0
248 1 4.580749374753699 17.838973531401287 8.353545085938453 0 0 0
256 1 11.239386455645356 17.595522924124243 8.01211732553043 0 0 0
260 1 16.203906304082167 15.858105758263834 6.482913725156491 0 0 0
264 1 17.45358904357523 17.337776115048918 8.315435142080709 0 0 0
269 1 1.458987100421386 20.98230936795324 7.939690532654036 0 0 0
267 1 2.8504717234286074 19.54182487686969 9.77633425478004 0 0 0
273 1 6.1723147125360525 19.208849786009313 6.780411402439395 0 0 0
277 1 8.136212386476217 20.514433935257905 8.076710930140537 0 0 0
275 1 9.708134127406026 19.21014952770817 9.650989980426457 0 0 0
281 1 13.026683424707734 19.01635334702831 6.499458634684091 0 0 0
285 1 14.285411414279812 20.701258692666183 8.144585778457738 0 0 0
283 1 16.03094243405232 18.958721680545008 9.878339730956728 0 0 0
553 1 0.08122243075926956 44.808176468939735 12.814079151790688 0 0 0
268 1 2.944394989783022 22.271253962748705 5.887807607510582 0 0 0
272 1 4.47779812045583 23.830858331761576 7.6173253142913175 0 0 0
274 1 6.721642578964937 22.62638663284206 9.34782562610539 0 0 0
280 1 11.093924057533899 24.663790112126627 8.005127485104762 0 0 0
299 1 9.353800792545215 25.89399211237349 9.618765295859081 0 0 0
288 1 17.31571458697483 23.985709161209158 7.85371554194582 0 0 0
293 1 1.6339551521775164 27.131872190257496 8.096068611695227 0 0 0
291 1 3.035518882302056 25.259446743447846 9.581288820211215 0 0 0
301 1 7.700910913522968 27.382168096153716 7.894288723185777 0 0 0
298 1 6.361892320649634 29.032896750367378 9.288699314641168 0 0 0
309 1 14.267191712451345 27.394625105249037 7.6097053148890454 0 0 0
296 1 4.656641608168371 30.717640166770533 7.724445917142599 0 0 0
315 1 3.222972691550728 31.899550837641485 9.553509714121018 0 0 0
304 1 10.848256099083692 30.409332140949285 7.843983830977662 0 0 0
312 1 17.614564985112395 30.475460468436367 8.15037367427329 0 0 0
317 1 1.7906003296681838 33.47941361907634 7.862952877615458 0 0 0
321 1 6.433229279570999 32.07125576218678 6.286782816743408 0 0 0
325 1 7.650711735811511 33.6124826524088 8.14366962303297 0 0 0
323 1 9.281302133024617 31.70604416940844 9.486970789548318 0 0 0
333 1 14.429579311753928 33.335637870618314 8.329685651366663 0 0 0
331 1 15.838725343606686 31.55766239242895 9.806823294466856 0 0 0
320 1 4.773776907300939 36.923327115950116 7.689202050100016 0 0 0
322 1 6.289456375440309 35.3151990136778 9.286377312638491 0 0 0
328 1 11.096781755972714 36.72786278753999 8.111335832579813 0 0 0
330 1 12.661436279568726 34.93288521444897 9.473782886856833 0 0 0
355 1 15.779273690653048 38.28789713606159 9.517591972492383 0 0 0
336 1 17.25755097203865 36.63341057590941 8.086614397658964 0 0 0
932 1 16.025908530537794 41.58363168132355 25.1769936510997 0 0 0
341 1 1.9665384925014087 40.22836099485866 7.898553562596842 0 0 0
345 1 6.37281474536689 38.262833119277275 6.233023383214262 0 0 0
349 1 7.653249212037032 39.81184500347857 7.868830934090376 0 0 0
347 1 9.262270825884453 38.164955907975695 9.790102547634895 0 0 0
348 1 9.288761240375347 41.41642513255259 6.208076638492927 0 0 0
357 1 14.320024055191363 39.959644143110225 7.73183428455591 0 0 0
356 1 16.02235273563313 41.461396268544576 6.3067563714925035 0 0 0
84 1 9.570893700260171 22.157011320678734 0.1777719089726282 0 0 0
340 1 3.6146720510745305 41.67546766162175 6.633926017531611 0 0 0
344 1 5.071191469577108 43.326606213032775 8.123220931918347 0 0 0
363 1 3.259853884851795 44.94159820813789 9.51285634286197 0 0 0
377 1 12.738429043638996 44.66621774046324 6.695856284776524 0 0 0
352 1 10.781286952586706 42.98778715533578 8.122591838261311 0 0 0
360 1 17.63411673095923 42.868248767589975 8.061305652013864 0 0 0
365 1 1.5913219213668894 46.572145797111375 7.924509379962203 0 0 0
369 1 6.524237693096607 44.87992893143897 6.43303266092792 0 0 0
373 1 8.499644740308439 46.50614479385999 7.630977625356529 0 0 0
372 1 10.133259057927962 48.18647932549675 6.084906855097339 0 0 0
381 1 14.556623477375412 46.14838600018676 8.02398297787774 0 0 0
195 1 3.3356416271090286 0.1387226642677914 9.255336883003471 0 0 0
368 1 4.848735970711987 49.78930852066458 7.684513787264845 0 0 0
376 1 11.538798745101817 49.6432863748379 7.927535974537222 0 0 0
380 1 16.02542578300397 47.477821884569224 6.245462685723817 0 0 0
384 1 17.59067901571874 49.05908751503519 7.745631609423852 0 0 0
199 1 4.521272710147271 1.525750896921217 11.24608352710124 0 0 0
388 1 2.7004362756592184 3.0445820929975533 12.877733704205179 0 0 0
207 1 10.988490563936594 1.4349054449312892 10.9821906501429 0 0 0
215 1 17.32848813110096 1.8585383212476254 10.852251593792557 0 0 0
211 1 16.132049282698816 50.8639530204869 9.07194128462032 0 -1 0
198 1 1.3232796350608147 4.627725492094985 11.040575964684056 0 0 0
206 1 8.297984359478887 4.651399460435956 10.804832543062398 0 0 0
214 1 14.211019168706569 4.54852786329297 11.24617725315174 0 0 0
759 1 10.788010991572785 46.35175181777082 23.680851229134632 0 0 0
223 1 5.095517312499908 7.908378743997951 11.170940810320253 0 0 0
231 1 11.28817161988507 7.7412606045515995 11.18482267676349 0 0 0
425 1 12.812876776608855 6.415513845956773 12.797353104687506 0 0 0
239 1 16.9592812706151 8.087349283387386 11.15094105599188 0 0 0
218 1 0.19986987849673196 9.61596690548534 9.45155207382557 0 0 0
222 1 1.5682366386658404 11.121000027613091 11.394600198917367 0 0 0
412 1 3.2738467450439157 9.340515761709351 12.832456910222366 0 0 0
226 1 6.215681122256813 9.756233212608342 9.369294017634202 0 0 0
230 1 7.698693036741928 11.184102256711418 10.949949232520446 0 0 0
238 1 14.525717454569548 11.333997254072347 10.987944533000075 0 0 0
247 1 4.719942699404045 14.426342393484324 11.321467494725308 0 0 0
255 1 11.606183965046801 13.797395103089029 11.114667231171657 0 0 0
258 1 12.73863210444175 15.90229758661326 9.691567309808264 0 0 0
449 1 12.920356024726958 12.073121692921251 12.770450470883043 0 0 0
444 1 9.837838526463091 15.486595146549488 12.642819288669411 0 0 0
263 1 17.73699010050519 14.516090589616539 11.32393565615861 0 0 0
578 1 0.18035938680838504 3.069803767385441 22.610027654277935 0 0 0
2329 1 19.027334257222442 6.420327007224618 25.062763422700815 0 0 0
246 1 1.5040579224905364 17.480196648095045 11.009939184961828 0 0 0
250 1 6.033041172316179 16.260090919614225 9.78753214614109 0 0 0
254 1 8.055802212697287 17.3964234926261 11.263134070808663 0 0 0
473 1 12.69263563265167 18.94465385611425 12.790009492922264 0 0 0
262 1 14.435935531339808 17.32277278191351 11.24699842279338 0 0 0
452 1 15.859721521525692 15.57587494748254 12.913837626916367 0 0 0
271 1 4.9034629135341685 20.826135003143996 11.117600996642999 0 0 0
465 1 6.350213507237539 18.759720714488562 12.814934017096137 0 0 0
279 1 11.313271314263448 20.622463709633077 11.237008513670295 0 0 0
282 1 12.559606480126645 22.516580255728513 9.343239404016535 0 0 0
287 1 17.42466548232315 20.767643710153518 11.26373250043615 0 0 0
270 1 1.5325758637746618 23.921300868885986 11.213185335014597 0 0 0
460 1 3.3007479159664923 22.37393693903965 12.681733475881634 0 0 0
278 1 7.896560314396827 23.929461518467317 11.1168584406326 0 0 0
468 1 9.449313513556483 22.078240223781645 12.619200774435544 0 0 0
286 1 14.265554585331277 24.084902943604334 11.114528704262268 0 0 0
295 1 5.06624050142605 27.29791882867984 10.954201540676765 0 0 0
489 1 6.4395191959771765 25.64172719970079 12.835261398900178 0 0 0
303 1 11.088829228260973 27.309701690407667 11.041336525368216 0 0 0
307 1 15.627642774898936 25.688596654950533 9.64735135980343 0 0 0
311 1 17.3940864459881 26.94440722575537 11.427655755624865 0 0 0
2258 1 18.778253845016117 41.25031366276201 21.917472588862772 0 0 0
484 1 3.3561271407272053 28.96278273699436 12.785772528186161 0 0 0
294 1 1.4709850523535546 30.335702500361734 10.990198885236047 0 0 0
302 1 7.848092829821648 30.47776838647759 11.066763381352892 0 0 0
492 1 9.298682441550923 28.675510779657444 12.678324245683125 0 0 0
306 1 12.602966362748957 28.948711984879232 9.304678860437386 0 0 0
310 1 13.814591359336978 30.08249964437856 11.303583690838737 0 0 0
89 1 13.100233381616096 19.219506705698148 0.08013150148718012 0 0 0
513 1 6.451061502087181 32.11441218268618 12.814059410261287 0 0 0
319 1 4.862963605561896 33.66264329138146 11.1518841730176 0 0 0
327 1 11.026206872621737 33.33452816145987 10.948482677977701 0 0 0
524 1 15.482264426062805 35.06329557498307 12.691400669693868 0 0 0
335 1 17.308019728087288 33.37902004011893 11.41645612076131 0 0 0
318 1 1.7524602930657345 36.853998839623785 11.027048836669666 0 0 0
326 1 7.82911522470413 36.63275714027125 11.457909853825171 0 0 0
516 1 9.979021429340598 35.26867317493874 12.447902240570611 0 0 0
334 1 14.17801636508486 36.55353268735351 11.129874479651566 0 0 0
2065 1 18.920540965771313 37.97758026945233 12.54118062579733 0 0 0
339 1 3.44498965610755 38.346098210508984 9.519068531821052 0 0 0
343 1 4.820143007643663 39.85116022672413 11.42539128471307 0 0 0
537 1 5.990599892762575 38.268274272925325 12.900968354413141 0 0 0
351 1 11.16368563507838 39.707044974225695 11.04250409664046 0 0 0
354 1 12.784982774228473 41.4520889817382 9.453031367876184 0 0 0
548 1 15.747969110238156 41.68014310474872 12.699239482928409 0 0 0
359 1 17.099524279913762 39.81478786236829 11.328560993659709 0 0 0
342 1 1.6066572994625414 42.98740294659102 10.953141710103212 0 0 0
346 1 6.556184277198799 41.42674611115234 9.731407481223345 0 0 0
350 1 7.845981392252418 43.4661968915253 11.030515718854234 0 0 0
358 1 14.048794293670067 42.924652963493 11.23231455791334 0 0 0
241 1 0.09646117253026097 12.948567152261905 6.3926401128183885 0 0 0
367 1 4.895498370108747 46.563070181308674 10.834860909801591 0 0 0
371 1 9.383219865301307 44.92913982382994 9.411590596700563 0 0 0
375 1 10.952752136493075 46.50109716604791 11.150463375716404 0 0 0
379 1 15.914348681443867 44.28883139376764 9.91966854815986 0 0 0
569 1 12.358225071817369 44.51448088829872 12.4735412229338 0 0 0
383 1 17.64022032521079 46.20258190134115 11.267491471368771 0 0 0
366 1 1.641155771161485 49.44075369094121 10.576426223855119 0 0 0
393 1 6.246717414676802 50.87739524850622 12.644539995609218 0 -1 0
370 1 6.418170065535364 48.03675371392484 9.12857180039399 0 0 0
556 1 2.9276107475456445 48.006967970488475 12.5837932290635 0 0 0
374 1 7.798352454493466 49.35671835725712 11.022908302349764 0 0 0
203 1 9.220665337089093 50.881631000958265 9.056557635912256 0 -1 0
378 1 12.861855514051076 47.81163921220421 9.389710140946384 0 0 0
382 1 14.466161941208668 49.45714760538675 10.897338291431556 0 0 0
389 1 1.9442345282593192 1.6490875253302761 14.853689155859085 0 0 0
397 1 7.840109983948533 1.5972252134643865 14.064627189780039 0 0 0
396 1 9.646225142025026 3.177775461585181 12.486168393537033 0 0 0
405 1 14.011101107474971 1.3116267563957702 14.345469950806129 0 0 0
401 1 12.407338817349032 50.50792023324307 12.54944783754083 0 -1 0
403 1 15.908767548766338 50.58770706301833 16.089627478790188 0 -1 0
751 1 4.7595479801920595 46.08808141914237 23.98287591386009 0 0 0
417 1 6.730827540999584 6.133599868743165 12.587519973001958 0 0 0
392 1 4.7016645948915885 4.739119155099016 14.04107889814575 0 0 0
400 1 11.20806785850132 4.497300648079598 14.384981629157634 0 0 0
404 1 15.596200285021053 2.8994379404315986 12.703422680698722 0 0 0
408 1 17.3269055863088 4.649886388074013 14.265896589082315 0 0 0
411 1 3.1757501723372927 6.3239628281599245 15.849299625271033 0 0 0
413 1 1.773916555289143 7.931745003017408 14.442192946131135 0 0 0
421 1 7.87418112585941 7.6879956275442085 14.284082683553837 0 0 0
427 1 15.86422398768443 6.467627465010121 16.148723436443728 0 0 0
429 1 14.473691035222393 7.947409789252178 14.27059962228478 0 0 0
416 1 5.096491378208379 11.052313020239566 14.101261222859492 0 0 0
441 1 6.492236511719117 12.955266553110292 12.694563839998397 0 0 0
418 1 6.513047333466854 9.640050100557318 15.704810834566212 0 0 0
420 1 9.378689548089826 9.38159383833913 12.549524293100307 0 0 0
443 1 9.598414496311308 12.64030601944328 15.782662639753724 0 0 0
424 1 11.137591372960484 10.65028412076932 14.306960209100161 0 0 0
426 1 12.942890756869994 9.532313868974594 16.07968212670852 0 0 0
428 1 15.609480512694713 9.788028873872511 12.621777451837827 0 0 0
432 1 17.62843911655889 11.210033401068792 14.01458448239344 0 0 0
437 1 1.5057992868892005 14.271124093883158 14.214636342419112 0 0 0
445 1 8.092451257697482 14.166705315074848 14.300254234634489 0 0 0
453 1 14.065176216485007 13.898039944334027 14.381494832528988 0 0 0
450 1 13.035110006389807 15.787060644078414 16.223632773603416 0 0 0
436 1 3.1339089746941413 16.051068019151153 12.803834531056122 0 0 0
440 1 4.722592927201376 17.308608214988915 14.602077082147932 0 0 0
442 1 6.5213928956451035 15.686178928225056 16.153605993218765 0 0 0
448 1 11.345676462855913 16.93853596799574 14.314982913315504 0 0 0
456 1 17.089716413860174 17.55029350167082 14.372619576924711 0 0 0
314 1 0.2633989536425334 35.14242817096378 9.443263755572554 0 0 0
461 1 1.785804452914224 20.82133004795109 14.40796245106058 0 0 0
459 1 3.231996976295519 19.023666967994977 16.052325448652148 0 0 0
469 1 8.197095897842154 20.315596008488587 14.286853812387417 0 0 0
467 1 9.614627191654801 18.661759562607628 15.791227821314205 0 0 0
477 1 14.336414029033786 20.747593803989357 14.286622392498485 0 0 0
476 1 15.661545929409371 22.326351550813254 12.531094917857498 0 0 0
464 1 4.724202768192886 23.9061046449757 14.22670771870552 0 0 0
466 1 6.305633445031727 21.969835416101063 15.589205713119735 0 0 0
472 1 10.90572849967283 23.92884482583586 14.433502192989375 0 0 0
491 1 9.423435526047292 25.352341422568074 16.01843559364547 0 0 0
480 1 17.43941700883783 23.3219993188996 14.33689698471135 0 0 0
485 1 1.7756058433828443 27.598285238493283 14.525637964118987 0 0 0
483 1 3.5766115384580894 25.674738372620507 15.813811717160881 0 0 0
490 1 6.285215512129958 28.899955269784986 15.847458698750172 0 0 0
493 1 7.903942220642599 27.00891695382861 14.682252438101141 0 0 0
497 1 12.276949933886279 25.403259100102886 12.465041184253328 0 0 0
499 1 16.027786110239905 25.280369707075877 15.742779852954518 0 0 0
501 1 14.285961792066054 26.78436650565309 14.403377674875156 0 0 0
488 1 4.775559184995905 30.632379560893472 14.309764452985661 0 0 0
496 1 11.013035947682205 30.124613791461876 14.342293428693052 0 0 0