LAMMPS data file via write_data, version 29 Oct 2020, timestep = 100000

8527 atoms
1 atom types

-0.24658198645749962 104.62862675568167 xlo xhi
-0.1123043239629169 51.019424323962184 ylo yhi
-0.1123043239629169 51.019424323962184 zlo zhi

Masses

1 18.015

Atoms # atomic

1563 1 0.05833620849125509 1.0671905221220745 1.582797562658038 0 0 1
1962 1 5.968197104380725 1.0170628866009503 1.3184940747551328 0 0 1
540 1 1.2352019662880909 31.683952287286385 25.443774266855407 0 0 0
1863 1 11.136388829794289 2.8040240689655453 0.27320495287987756 0 0 1
1864 1 12.650071483702455 0.744795888116203 1.3493594567418818 0 0 1
1231 1 33.41258686788996 37.7737730504543 25.43664268090655 0 0 0
2172 1 19.156140525510896 0.5403859141794704 1.0625857912980465 0 0 1
2705 1 25.138078355640452 0.5058940602918838 1.2847792364037622 0 0 1
579 1 14.043858502820672 50.21573799410445 25.299872486422686 0 0 0
2556 1 29.950898120991855 2.1843924821385774 -0.012590264869803594 0 0 1
2631 1 31.73020919160888 0.6587054527242798 1.5836189968222079 0 0 1
1961 1 2.4468144250817017 4.335268834943142 1.638613941888941 0 0 1
1866 1 1.1659760909950825 6.038192820450053 -0.08405090091854854 0 0 1
1869 1 7.981690696880531 6.019284604619489 0.10793085396024765 0 0 1
1969 1 9.288027814257855 4.413417537703593 1.6639371799073468 0 0 1
1870 1 14.264865167575024 5.872829352680622 -0.007349994494777856 0 0 1
1964 1 16.027177024284306 4.228551039511758 1.675892059108561 0 0 1
2558 1 21.635328945912967 4.068381663544176 1.1198591963815399 0 0 1
561 1 10.654484751363222 41.06381040831849 25.332749858408114 0 0 0
2637 1 28.21580064673637 3.6925467244137673 1.1963005630035322 0 0 1
4721 1 34.66734001457834 23.24247763315639 1.435001871365951 0 0 1
2640 1 30.11674816074684 5.599488813984385 2.390878250922625 0 0 1
511 1 4.6660318474277025 14.945921463757498 25.284232086742414 0 0 0
1868 1 6.085467628445587 7.202826192702773 1.5841197394143647 0 0 1
1874 1 4.57448258231619 8.744431411252958 0.007508310106475971 0 0 1
1970 1 12.51762752642882 7.499480208293788 1.5181440835098283 0 0 1
3026 1 34.66410377026341 33.25369351410777 17.2453990176291 0 0 0
2394 1 19.346361890526044 7.512556666121514 1.6395475023811223 0 0 1
2561 1 25.092443378753725 6.895190100044688 1.0601552462822323 0 0 1
2646 1 27.072110494686957 8.504542266294907 2.4099374693659206 0 0 1
2564 1 31.436306621726796 7.363901966614797 1.0181733160303947 0 0 1
1974 1 3.050627299325144 10.545081814671276 1.5285963430557423 0 0 1
1978 1 9.508521924936877 10.594850416184551 1.1350025779682047 0 0 1
1220 1 26.37779839976457 30.947778779870102 25.349864194755135 0 0 0
1877 1 15.855277708389021 10.521861789580885 0.8391465181606664 0 0 1
2570 1 22.502174544572448 10.522584905319178 1.1581834934302409 0 0 1
1227 1 20.273450320593785 37.51704138174804 25.14656955274773 0 0 0
529 1 17.04150169688809 21.451145616619346 25.415403833495013 0 0 0
2567 1 28.769228909279523 10.26631031695561 1.3049465872859511 0 0 1
2650 1 34.51159946597481 10.588151115763027 1.372671130293083 0 0 1
526 1 4.653397842216849 21.827706537167842 25.2195074042389 0 0 0
1981 1 5.96559378732803 13.75652748843033 1.74178375602596 0 0 1
1247 1 27.003280691975984 50.324863677789864 25.374830751145836 0 0 0
1990 1 12.63506353847205 13.848582628405811 1.1374728146307258 0 0 1
506 1 7.924174884417965 12.006882523242401 25.195512674228603 0 0 0
2193 1 19.12235461451014 13.686238511812174 1.3803654749551424 0 0 1
494 1 7.914415351408813 5.617572372302399 25.263729723361962 0 0 0
2571 1 25.31688879361321 13.512058975341798 1.0633273455231693 0 0 1
2654 1 31.76379290144805 13.82655686163689 1.3140651473851381 0 0 1
1241 1 23.90160031991026 47.05519402989738 25.13121295546072 0 0 0
1892 1 2.7380963072501325 16.94125599920599 1.9165158544514944 0 0 1
1886 1 4.153673355238316 15.258993058391123 0.08578854516528056 0 0 1
1988 1 9.48631806629963 16.727567876081377 1.6007643785852812 0 0 1
530 1 1.526065936482458 25.236431749578212 25.11725122765503 0 0 0
1889 1 15.905018444832102 16.905193018465596 1.4366919554139466 0 0 1
1188 1 33.24528928598641 11.88903427454796 25.277830324558945 0 0 0
2659 1 22.12510349651858 17.08310347463006 1.347564028698939 0 0 1
541 1 7.743570546859938 31.61994673627249 25.407705151382817 0 0 0
2577 1 28.33723970603494 17.01285583918179 1.644233046570726 0 0 1
515 1 17.399659304574126 15.302621238964754 25.418545696395032 0 0 0
2020 1 -0.083126071622867 20.106128625900734 1.6629714134359879 0 0 1
1891 1 1.4479268249842534 18.342429597181592 0.0580429548930784 0 0 1
1993 1 6.046772086505827 20.093989229572944 1.4030980789239436 0 0 1
1894 1 7.823454721097569 18.53417471107645 0.2375068781880887 0 0 1
1896 1 12.803591033468908 20.18728955824256 1.5902393801442305 0 0 1
1184 1 20.380277248958702 12.310638408087584 25.358865725563568 0 0 0
2102 1 18.85277130411214 20.309745126616658 1.3625364502692638 0 0 1
1215 1 29.918932099266577 28.118812464952004 25.290184837705926 0 0 0
2661 1 25.599425614616678 20.410995583519597 1.2329307459469712 0 0 1
2580 1 26.79973414741698 18.678482364253725 -0.009283927863363309 0 0 1
2581 1 33.451808753601576 18.760543434907426 0.10110515777111884 0 0 1
2662 1 31.581340414466062 20.220631610328983 1.7194433130139652 0 0 1
1998 1 2.8388967341048548 23.333805949375076 1.7105847916365926 0 0 1
1898 1 4.350437847491762 21.715153422775177 -0.0748944006680534 0 0 1
2000 1 9.247268729269873 23.377575906868202 1.0961337251284047 0 0 1
1196 1 26.761714670297902 18.91365092946685 25.4153071223613 0 0 0
1903 1 17.517754325728582 22.00871886795478 -0.10475701136321017 0 0 1
2002 1 16.096462222044725 23.773906520858578 1.582330868947518 0 0 1
2582 1 22.00991882895483 23.356322867726725 1.15950417745358 0 0 1
532 1 7.66816264451891 24.648478749463244 25.078558816206073 0 0 0
2586 1 29.798193580869935 21.671095091650944 0.08529085325016611 0 0 1
2589 1 28.607783633764097 23.478890820808864 1.4295643704816106 0 0 1
1169 1 23.785460315560535 2.797114523055191 25.061614160095992 0 0 0
1906 1 1.309448883062063 24.90034478444228 0.06546700900880362 0 0 1
1911 1 6.069415432222506 26.377820403059 1.5899154035682361 0 0 1
1237 1 26.88467837471433 43.96189023451912 25.339266890748593 0 0 0
2006 1 11.931667535826591 26.393855744716163 1.533053058593406 0 0 1
1909 1 14.082200345107049 25.039018705306336 -0.08744126459411838 0 0 1
1232 1 23.497536859411493 40.547953061716925 25.23608376914394 0 0 0
2184 1 19.002527241360205 26.81012119030763 1.1202059281740546 0 0 1
2594 1 25.45934340658718 26.557152314389118 1.6996300784613454 0 0 1
502 1 10.818965912902925 8.673546683751253 25.239010562125955 0 0 0
2590 1 31.317716235276894 26.66594375459299 1.3477435597823233 0 0 1
2591 1 32.85440206915387 24.78802335646983 0.0021290098648721334 0 0 1
1918 1 2.335773357997933 29.52424187541896 1.3893251011504535 0 0 1
1910 1 4.565898076885508 28.210160718764712 0.23428693210712548 0 0 1
1913 1 9.223998355881621 29.225902436477476 1.7491992852477007 0 0 1
1238 1 33.02541408063381 44.18123586552056 25.44035742596018 0 0 0
1923 1 15.507852769154416 29.670676586287993 1.017637006348152 0 0 1
2672 1 20.838871156604256 28.36145376148932 2.592830835466843 0 0 1
2592 1 23.756076280659258 27.94468719769557 -0.0951400028042036 0 0 1
2593 1 22.396099722998528 30.00321367306239 1.268835628028693 0 0 1
2595 1 28.343427429635263 29.679511783144854 1.090481663750705 0 0 1
569 1 4.313312339593525 47.42332471341463 25.318960857647195 0 0 0
2598 1 34.54896350417623 29.414858129566685 1.2018294937766412 0 0 1
1917 1 0.8421782666924544 31.354420179687708 -0.07207138680413094 0 0 1
1926 1 5.825105567127905 32.534884696301404 1.5134842320249597 0 0 1
1919 1 7.805689075784329 31.17711096503831 0.0521157466367253 0 0 1
1185 1 26.85739223364468 12.208914434710033 25.192810316063028 0 0 0
1920 1 12.755256300330432 33.009643633359964 1.8148919103021073 0 0 1
2288 1 19.11202492205109 32.55173559887694 1.5811286596791876 0 0 1
1213 1 23.46468571620304 27.78759021658055 25.28969048450837 0 0 0
2678 1 25.144652420040316 32.71429114124409 1.5795452880819294 0 0 1
2603 1 26.81696936713697 31.38874985328597 -0.10636793596182398 0 0 1
2605 1 31.410466209277608 32.539527942199726 1.4821296609043964 0 0 1
2604 1 33.04688971874984 31.07643367238426 -0.08592144982124285 0 0 1
1218 1 20.228585133108453 31.15859759747915 25.42262669676327 0 0 0
2017 1 2.9560806074188215 35.84080229217055 1.403502832248166 0 0 1
1928 1 9.082804927128638 35.98268930400385 1.4884606321685812 0 0 1
1927 1 10.817498650449412 34.59377774378142 0.17449127577108386 0 0 1
1929 1 17.484778127384363 34.337941965676656 -0.0842866453632552 0 0 1
1934 1 15.77819937493188 35.96767309228379 1.4546018695393133 0 0 1
2685 1 21.940793308935874 35.94142068792305 1.4140555391543186 0 0 1
2606 1 23.327095787761913 34.08826610081258 0.13178310464636112 0 0 1
2683 1 28.256029581756565 35.48147544667917 1.3404680269276483 0 0 1
2607 1 30.23367323174485 34.145044331603195 -0.06072368855995296 0 0 1
1198 1 33.2395115697825 18.46146649803968 25.31036252838409 0 0 0
492 1 17.432430526102866 2.4854245029613056 25.21599761681146 0 0 0
1933 1 14.265018174560419 37.3575598446987 0.021561097992580658 0 0 1
551 1 16.803488177710012 34.523181416286164 25.35407828661552 0 0 0
536 1 4.5590476744540425 28.370057171696494 25.399503013762565 0 0 0
2692 1 31.332392170934995 38.784360225040196 1.168456086382938 0 0 1
1177 1 26.814562712026543 6.110078593534703 25.361641699254495 0 0 0
1793 1 0.028572314131299514 39.365973173893295 1.1021847114528127 0 0 1
1936 1 4.3073621682992345 40.77638686660933 -0.06645909035899229 0 0 1
2022 1 6.105113143475848 39.372184270813264 1.3716283888796417 0 0 1
566 1 14.096807914972352 44.055023851286656 25.259502093903176 0 0 0
2029 1 12.523980568037228 39.22881693876628 1.4515492226334494 0 0 1
2518 1 18.88777974230735 39.35743378541065 1.349806809880097 0 0 1
1234 1 29.74130095401919 41.1582364080554 25.10834449437831 0 0 0
2690 1 25.197355221970334 39.28176819811183 1.6271452746227681 0 0 1
6711 1 -0.16190329018869454 30.448122920441513 23.336533588315856 2 -2 0
2693 1 33.11024467662254 40.49856340799227 2.4988468378367745 0 0 1
1935 1 2.716954740259493 42.50399121322788 1.4507506374152037 0 0 1
2984 1 -0.0573475883281723 14.681362615791244 25.33457620516297 2 1 -1
1943 1 9.272687832574437 42.556471881513 1.2628945234458229 0 0 1
547 1 4.403153234208071 34.779481734740145 25.206503026714188 0 0 0
1938 1 15.716561566261133 42.48757193772435 1.1926399268386905 0 0 1
2695 1 21.956201075549284 42.552587099441695 1.439137657333571 0 0 1
538 1 17.178458521238714 28.15096804960111 25.349522169331355 0 0 0
2698 1 28.250998091506162 42.2038060446996 1.5377360938249605 0 0 1
8043 1 0.23875091435662216 19.415093042137137 15.28232146218849 1 -1 1
3519 1 34.668212065515675 23.550760742020866 8.06075701732507 0 0 0
1941 1 6.054832646258593 45.49694076568629 1.1641782983496543 0 0 1
545 1 13.702264469531988 31.39298254181762 25.372614633057264 0 0 0
1944 1 12.30244254455213 45.55756860519441 1.285036658870673 0 0 1
3350 1 34.65262428858695 1.057750984623576 23.74746559304841 0 0 0
559 1 4.883818551537394 41.11020532927656 25.170571635381744 0 0 0
2150 1 18.838211578787764 45.55319387810357 1.5018154346428099 0 0 1
2701 1 20.966328559025317 46.97303123305042 2.621449693300322 0 0 1
1204 1 30.226666786731453 21.641460326487604 25.37229307176819 0 0 0
2697 1 25.22709240433032 45.22259994857667 1.5323366246486911 0 0 1
499 1 4.372309123579691 9.119107789538246 25.1788861058291 0 0 0
2700 1 31.726416860392952 45.632755378204976 1.5737320920651845 0 0 1
1955 1 2.887567129289641 49.00573386121172 1.3177822889169701 0 0 1
3296 1 34.68268658783928 20.38234986021114 23.922966368027527 0 0 0
1948 1 9.144224838971507 48.80112231407432 1.2570844033694333 0 0 1
562 1 17.117370330015486 40.94639695849308 25.085319836035765 0 0 0
2048 1 15.466509565280473 48.49073997338681 1.1201737431846162 0 0 1
537 1 10.72007364092185 28.215327199828003 25.39927292518798 0 0 0
2049 1 17.405758799989336 50.01079550121733 2.4848350930235026 0 0 1
2629 1 22.245837409887766 48.667874580048284 0.9760562684905703 0 0 1
2630 1 27.076510646244994 50.146479567259256 -0.09577223487347389 0 0 1
2632 1 28.52229142326075 48.223503395755365 1.189498354913332 0 0 1
2633 1 33.57043095045312 50.191280517681925 0.19625127506729717 0 0 1
1960 1 1.3530538217134804 2.633106747063066 3.406179459302896 0 0 1
2050 1 3.099007251791435 1.0292611592667387 4.849147142334808 0 0 1
1963 1 8.018389316748074 2.607087867394853 2.7748593091309157 0 0 1
2053 1 9.726945714579582 0.9169221681933519 4.555653016243355 0 0 1
1965 1 14.357213595133977 2.1834888024084504 3.225805658802019 0 0 1
1966 1 15.94602819714089 0.25984505742982883 4.350507953114637 0 0 1
2055 1 17.06839114610882 2.327756927841302 5.787375526873262 0 0 1
2634 1 20.21860661724566 2.256661415318054 2.8985230334023986 0 0 1
2704 1 22.19302421781647 0.47509624198270994 4.040471762127004 0 0 1
2636 1 26.57265605378423 2.203801632227587 2.7589934238832403 0 0 1
2244 1 28.341559296023647 0.8101511845344674 4.38380424875745 0 0 1
2638 1 33.10328336670408 2.4080170077207077 2.872862010071381 0 0 1
1968 1 4.316835611618054 5.523172713599514 3.464620610131403 0 0 1
2052 1 6.213476107479918 3.8620417415988406 4.503906365253492 0 0 1
1971 1 10.994718608402165 5.888451419939078 3.343377281608737 0 0 1
1972 1 12.645718391824918 3.830512814001223 4.679293763419777 0 0 1
1973 1 17.538785303932055 5.896822646524745 3.2410765643340747 0 0 1
2371 1 19.151885672264225 3.982378891120037 4.6124537241235535 0 0 1
2639 1 23.48114700362545 5.416015266891178 2.8812007084376687 0 0 1
2635 1 25.231326460917426 3.978116211124144 4.21436209809995 0 0 1
2714 1 27.091769229520462 5.4190038703414265 5.585368567018511 0 0 1
2711 1 31.3658412801023 4.0278590015115725 4.257231742827776 0 0 1
1967 1 2.5145235193484026 7.054458921542161 4.701280863617924 0 0 1
1975 1 1.393445371088413 8.982545432701155 3.111499090693576 0 0 1
2064 1 9.202022526233357 7.311952554877494 4.780042758184687 0 0 1
1977 1 7.620535307513728 9.010316187837825 2.7712409511422442 0 0 1
2067 1 15.718344442143293 7.621702080999931 4.647707554661872 0 0 1
2645 1 22.12132451904693 7.4689592281094095 4.495154514844279 0 0 1
2641 1 28.85837771107182 7.180391584763711 4.461608521857053 0 0 1
2642 1 34.58678607296956 7.597668899089791 4.648783459404099 0 0 1
491 1 10.809906326564837 2.179518917984545 25.408705686218354 0 0 0
1976 1 6.042657684270791 10.084200710737369 4.914805516403514 0 0 1
1980 1 4.536981604276687 11.89054706953693 3.3540952418785452 0 0 1
1979 1 14.350276865287174 9.063595872941946 2.7826497041595446 0 0 1
2072 1 12.546510675278228 10.748242124985655 4.337410421335459 0 0 1
2069 1 18.70230422702201 10.77845193758231 4.635782809022192 0 0 1
2644 1 20.617971732045365 9.302527195183188 3.0057045780150258 0 0 1
2651 1 23.816647734626773 11.92279850600832 2.8584229259104377 0 0 1
2647 1 25.362285981316965 10.08443759643887 4.001724504345449 0 0 1
2649 1 31.492420343990357 10.510467532479094 4.924881933230318 0 0 1
2653 1 30.280865999157538 11.914598539683771 2.9778767329239577 0 0 1
2648 1 33.03811184743886 9.123473719002536 2.936187509520968 0 0 1
2075 1 2.8242366724634222 13.355599273834759 4.680208064743072 0 0 1
1987 1 1.2038687909082526 15.01151810480629 3.1763268214741114 0 0 1
1983 1 11.019165974072944 12.125728854230568 2.714371055092898 0 0 1
1982 1 9.449900085524964 13.503117542124796 4.46326669873099 0 0 1
1984 1 17.061781453421155 12.263954317257555 2.8846222192896156 0 0 1
1985 1 15.885632732352782 13.788793600110521 4.536274917333955 0 0 1
2720 1 22.16902928316601 13.553433850691118 4.197586282021066 0 0 1
2652 1 28.17816831937388 13.369761222379308 4.26981021553445 0 0 1
2656 1 26.71761440662263 15.045081359665787 2.6728912248337644 0 0 1
1436 1 -0.1411802678913136 16.485765664564298 4.839365583226123 0 0 1
1989 1 7.696638435811375 15.3193457410347 3.14452437054701 0 0 1
2083 1 6.187353990714476 16.780211628466652 4.727739719660886 0 0 1
1991 1 14.114068830037844 15.221439619437971 2.914636809421973 0 0 1
2078 1 12.793699842932762 17.03857886413099 4.635658505171169 0 0 1
2655 1 20.67139744313387 15.504495790287264 2.97211422421357 0 0 1
2215 1 19.01548779808696 17.13481049631944 4.682187331437428 0 0 1
2724 1 24.593382573801012 16.71221283977496 4.1011611799025705 0 0 1
2729 1 26.699108648507494 17.8207721533285 5.820101987993115 0 0 1
2657 1 33.542730030581275 15.17381169637039 3.042449539129227 0 0 1
2725 1 31.718961209017095 16.79556471328424 4.76400268507855 0 0 1
2081 1 2.7788120143260047 19.691975867775536 5.277860949104011 0 0 1
1992 1 4.524394612618561 18.5875178124222 3.4923872612663347 0 0 1
1994 1 11.027079686049674 18.431583825796736 3.0942088303036286 0 0 1
2085 1 9.610016349443917 19.98757533856565 4.707660195375755 0 0 1
1995 1 17.496897907098507 18.589770773583144 3.120692851567393 0 0 1
1996 1 15.783313591478144 20.326131199298892 4.591885029100387 0 0 1
2728 1 21.92668185871268 20.221538118579655 4.350484062879045 0 0 1
2660 1 23.547255505171538 18.993283223409403 2.6434518547258183 0 0 1
2663 1 30.05044645450227 18.45704668650034 3.2450944290845483 0 0 1
2730 1 28.653509605744294 19.79400406431487 5.056139805625425 0 0 1
1997 1 1.5940609736796068 21.445577864265683 3.278582156288615 0 0 1
1478 1 -0.22602696496883942 22.89316906841591 4.70353837102721 0 0 1
2091 1 5.886983617688674 23.264384033299347 4.698153894789453 0 0 1
1999 1 7.7355668496423275 21.717744188127796 3.0623384301532983 0 0 1
2001 1 14.293695069906175 22.039335022262936 3.046611214808837 0 0 1
2093 1 12.54734302968745 23.3742871424816 4.642689040464127 0 0 1
2124 1 18.781814772333416 23.60995773432658 4.522999180263691 0 0 1
2664 1 20.432412992295493 21.940948242594896 2.7961614094410407 0 0 1
2666 1 27.35408935476781 21.779460798288536 3.2245743263167306 0 0 1
2665 1 25.287234682169522 23.091973476460996 4.690169021531497 0 0 1
2735 1 31.506627848219235 23.11456512644993 5.06007069350621 0 0 1
2667 1 33.32597263731899 21.868698549313397 3.3729296255145322 0 0 1
2004 1 2.5399588481278026 26.25747110790432 4.842502721784561 0 0 1
2003 1 4.4008916678950385 24.937499019991233 3.184446993269852 0 0 1
2105 1 9.235266233076366 26.26181340413384 4.969879519653287 0 0 1
2005 1 10.730102929130226 24.69697845668626 3.20141133767188 0 0 1
2101 1 15.431347971570753 26.508405699147616 4.554737384235885 0 0 1
2007 1 17.338642499851296 25.62108224234938 3.0149911242166922 0 0 1
2669 1 23.771400469151327 24.68053640112912 3.0330136904209115 0 0 1
2737 1 22.134097272392523 26.42659523456707 4.314807766271782 0 0 1
2671 1 30.070339598840196 24.835057612392333 3.2963122400127305 0 0 1
2670 1 28.377000594554527 26.610626799523228 4.701215425564274 0 0 1
2675 1 34.42692733732048 26.369754096754406 5.038850062945046 0 0 1
2009 1 1.1055424932583802 27.941549524421777 3.238689335459002 0 0 1
558 1 13.964802047591819 38.256156479514935 25.39027894221712 0 0 0
2010 1 7.777066100290261 27.586682131752806 3.2748073043837955 0 0 1
2104 1 6.455057733798308 29.586543172883538 4.709132977947279 0 0 1
2011 1 14.02772933737192 27.934909020923605 2.7239392144311156 0 0 1
2012 1 12.475064814553798 29.429654722734632 4.340386804202451 0 0 1
2151 1 18.853128720966676 29.698571294789506 4.243529730936651 0 0 1
2742 1 25.163261679940888 29.47077344936305 5.0741031183631 0 0 1
2673 1 26.99382461765151 28.194103022950703 3.0472969222413915 0 0 1
2674 1 33.007512849057555 28.11882796417985 3.1501845242844992 0 0 1
2749 1 31.585379392215934 29.73563786077775 4.801933441326003 0 0 1
2013 1 4.416685825539875 30.659306166428323 2.9069648109424344 0 0 1
2110 1 2.9740395382687215 32.63515640469335 4.5787949678045665 0 0 1
2112 1 9.124858938297779 33.10439598679293 4.694651423947605 0 0 1
2014 1 10.907715905113436 31.31788650482413 3.3738350606345016 0 0 1
2015 1 17.073652785978727 31.23024322465504 2.878673118887818 0 0 1
2119 1 15.77504231154764 32.79181342868359 4.762706565346855 0 0 1
2677 1 23.84729548197228 31.22031468571803 3.437606847138608 0 0 1
2746 1 22.206301219357147 32.948311117225344 4.680426732455327 0 0 1
2680 1 29.827601240347345 31.075157870596847 3.1919881010170523 0 0 1
2679 1 28.41322398779126 32.41620494454665 4.985029118640881 0 0 1
2016 1 1.2847537198215402 34.284789034815375 3.0034661299872756 0 0 1
2018 1 7.488792129490468 34.53087484758318 2.893524639286315 0 0 1
2117 1 6.171870016175341 36.11475348021611 4.650059206643833 0 0 1
2019 1 14.540016890452101 34.756237687035636 3.5197878850767625 0 0 1
2024 1 12.507604908262723 36.098607191479694 4.804188582890186 0 0 1
2681 1 20.373062259307563 34.38109808677362 3.132167884903853 0 0 1
2682 1 26.865569262596374 34.08010810041622 3.303131927168675 0 0 1
2752 1 25.344983969855573 35.77174728710842 4.7720540185203015 0 0 1
2754 1 31.22766873059345 36.10209506433889 4.471919985065819 0 0 1
2684 1 32.92929364453274 34.217903490434004 3.176689904503679 0 0 1
2021 1 4.758243081019941 37.39190857291599 2.8704071437395937 0 0 1
2027 1 3.462284323072546 39.05873105987851 4.899555013304376 0 0 1
2023 1 10.812196174835988 37.67094890387967 3.035760515174329 0 0 1
2025 1 16.999521159082057 37.81831671272901 3.0258736942884012 0 0 1
2195 1 18.940608500237506 36.470849242486985 4.535175842290349 0 0 1
2686 1 23.532973753176474 37.430205112676774 2.8402103394505063 0 0 1
2687 1 22.112023956319785 39.014048187312014 4.333549834412783 0 0 1
2688 1 29.687056674595127 37.472410811271104 2.6685622152326456 0 0 1
2748 1 28.688886955614063 38.80414012965553 4.559712233498929 0 0 1
2026 1 1.898024237081076 40.49295084905995 3.057590204377399 0 0 1
2028 1 7.630315178868693 41.10215478433946 2.9282963695994497 0 0 1
1986 1 9.398732407645584 39.54961130154558 4.3104139872728195 0 0 1
2030 1 14.110910804071098 40.85451164001066 2.822726967769623 0 0 1
2031 1 15.622622687765089 39.48086717703104 4.6875715213455935 0 0 1
2689 1 20.590592047756747 40.69626044948315 2.8763235012758983 0 0 1
2691 1 27.010724811002593 40.82719805491173 3.3141584279877 0 0 1
1698 1 -0.03594644245720838 42.40390290599723 4.26757897086476 0 0 1
2033 1 4.385336591768723 44.06583819224862 3.0599116098855546 0 0 1
2034 1 5.926444291126947 42.490799064961685 4.668634514526846 0 0 1
1724 1 7.963113006405598 43.859566166087355 5.624944562873683 0 0 1
2035 1 10.969601444558437 43.97333333213934 2.890743522254732 0 0 1
1621 1 12.666653228037013 42.4213872443592 4.40026628729298 0 0 1
1555 1 14.322557215443304 43.90750739706136 5.60632791380915 0 0 1
2037 1 17.270795145642342 44.00283890385171 3.139394885697229 0 0 1
2200 1 19.234906416052674 42.269564272244494 4.655052206706717 0 0 1
2696 1 24.038913489919153 43.605922022584345 3.274899811418844 0 0 1
2717 1 25.47399795954205 42.13347649064467 5.148282384022859 0 0 1
2699 1 29.93612091270787 43.86282352984052 2.9390834681652374 0 0 1
2600 1 31.580534906433822 42.165823267062144 4.258569895854682 0 0 1
2039 1 1.4234669480128066 47.1312858823916 2.908620247925765 0 0 1
2040 1 2.999718372171857 45.880976779635716 4.593109124131739 0 0 1
2042 1 7.458206355951629 47.147533122189046 2.8408298289348055 0 0 1
2041 1 9.456165983396934 45.833155910474304 3.9093105398626733 0 0 1
2043 1 13.957178711635684 47.220242814209534 3.0599765514320483 0 0 1
2036 1 16.062315554176152 45.939799794234936 4.522189105392487 0 0 1
2712 1 22.10847398168265 45.212727901539516 4.572226662890238 0 0 1
2702 1 27.10672587841487 46.586994149787884 3.004790745363157 0 0 1
2658 1 28.618829269921562 45.1832301698268 4.908665721898901 0 0 1
2552 1 34.59808336664033 45.58583495273404 4.789644164828897 0 0 1
2703 1 33.012207382578765 47.30202608235578 3.4227589754297028 0 0 1
1408 1 -0.15938046639196848 48.593792610945826 4.37028035037761 0 0 1
2045 1 4.452602094779675 50.59943986337816 3.033852622661649 0 0 1
1395 1 5.953078711898514 48.89443101884107 4.658548831884298 0 0 1
2047 1 11.187000610054895 50.241412952353556 3.0167442117958623 0 0 1
2046 1 12.687582845824616 48.68752378443624 4.7234654009075125 0 0 1
2197 1 19.51640816063059 48.60566597781959 4.208920550810875 0 0 1
2706 1 23.78848032418842 49.80418742497132 2.93160239077505 0 0 1
2519 1 25.403885908745657 48.432214944479654 4.6489401311158485 0 0 1
2707 1 29.785797298724027 49.942923534397906 3.123572548253141 0 0 1
2425 1 31.37907686211365 48.493546313991196 4.9515949579466145 0 0 1
1787 1 -0.16992882736852447 0.8721485684365471 7.73953979279936 0 0 0
2051 1 4.9228959605835705 2.473568423903693 6.6041205529056555 0 0 1
769 1 6.564475072223998 0.576976480174079 7.819662738637332 0 0 0
2054 1 11.051884659356238 2.4168604030236165 6.213957295610561 0 0 1
766 1 12.996487740143866 0.856389275483228 7.9030907131821415 0 0 0
2769 1 18.95052264302709 0.9672641879532711 7.611667344541327 0 0 0
2709 1 23.431279680247385 2.068901375532296 6.039411885938517 0 0 1
2768 1 25.10034784320191 0.8915141218033584 7.656086696520832 0 0 0
2710 1 29.80318764841086 2.473591118677402 6.08483301863981 0 0 1
2187 1 31.81320444505606 1.2325928562291022 7.3978061378049 0 0 0
2056 1 0.9442735318400259 5.75931795449628 6.195725714298098 0 0 1
2132 1 3.038012398827676 4.140403282073565 7.648602694415292 0 0 0
2058 1 7.882262778184664 5.454173774017528 6.25016256966209 0 0 1
2123 1 9.417935935211613 3.798303544153634 7.780572602720878 0 0 0
2059 1 14.468085572020698 5.561812367752231 6.098724176722488 0 0 1
2044 1 15.989038299607206 4.122623065563561 7.598155047117167 0 0 0
2713 1 20.572362240945804 5.687028405567704 6.150345879292203 0 0 1
2210 1 22.24238360332733 3.918382924311686 7.462638172719449 0 0 0
1388 1 28.29688809732016 4.548774788140694 7.7989124274537005 0 0 0
2715 1 32.93190552158822 5.689442277780105 5.906308121166292 0 0 1
2062 1 4.034614528133536 8.592596769261062 6.725545139306315 0 0 1
2140 1 6.360294459581326 7.1036289103351615 7.763730803694035 0 0 0
2065 1 11.247710372873545 8.678157738864941 6.139322164219938 0 0 1
1465 1 12.69197553313218 7.152755567923555 7.6432899822546565 0 0 0
2068 1 17.432235325650637 8.984437107893841 6.488083991522482 0 0 1
1382 1 19.112403401620274 7.315889199212896 7.947985943358336 0 0 0
2716 1 24.06352420439907 8.839361205625426 6.022172115452544 0 0 1
2583 1 25.80484461749778 7.037960523303721 7.495179254431007 0 0 0
2718 1 30.08141918741006 8.8994631861886 6.2359978902218405 0 0 1
1383 1 31.647575269157553 7.3099864744162115 7.826334190239197 0 0 0
67 1 2.6799329533952903 10.65888407578388 7.835774395929648 0 0 0
2071 1 7.918263552271252 11.813277684619429 5.910293613661406 0 0 1
1916 1 9.616644431361834 10.38257585650768 7.497009026962635 0 0 0
2153 1 15.618269972085832 10.603012674232032 7.79034718735729 0 0 0
2719 1 20.778480966734097 11.968801484724171 6.165715276627016 0 0 1
2432 1 22.470742628422027 10.589091060125462 7.689970868435728 0 0 0
2763 1 28.290637344177686 10.385590888406627 7.482744352905121 0 0 0
2721 1 26.51596729777164 11.85650308960301 5.921054216998191 0 0 1
2722 1 33.14035920361265 11.927375107158591 6.547119173312174 0 0 1
2070 1 0.978359891091974 12.161101364818226 6.416749152456439 0 0 1
2076 1 4.526292142835768 14.962590135690096 6.5192532104403424 0 0 1
79 1 6.534731544348996 13.437897554866739 7.805990766258697 0 0 0
741 1 12.447406304866428 13.950353423036391 8.084753564157156 0 0 0
2073 1 14.188148038560843 12.279631668384726 6.542751084825366 0 0 1
1381 1 19.236750005242808 13.834077945939729 7.876792884555857 0 0 0
2723 1 23.35586187195576 14.97919052746595 6.026068234594522 0 0 1
2190 1 25.245152461543178 13.638674417619415 7.447238283664621 0 0 0
841 1 31.51920058934483 13.75343624680092 7.839931141243521 0 0 0
712 1 2.8845766097754266 16.621269883758334 8.018890604507744 0 0 0
2077 1 11.155022711881966 15.402098053331006 6.060490452973332 0 0 1
747 1 9.477969483201617 16.91538084309111 7.8196330397233 0 0 0
2079 1 17.703950566756653 15.147034715831884 6.163060987116404 0 0 1
2135 1 15.966176507475566 16.97103844324907 7.7478819884619226 0 0 0
2668 1 22.15777046332568 16.746640593713586 7.793451514278059 0 0 0
2694 1 28.275902432449953 16.732873685785346 7.672227664412244 0 0 0
2726 1 29.95292899394153 15.1204775536208 6.068184054503624 0 0 1
2080 1 1.3385508410262372 18.11749076363039 6.74437764194386 0 0 1
25 1 -0.08773955750857343 20.009619960733254 8.218376553440075 0 0 0
2084 1 7.838124638105144 18.353942443032516 6.418095996562243 0 0 1
686 1 6.352401899108895 20.039281299812124 7.995334765736853 0 0 0
2087 1 14.350945593021187 18.75141171595144 6.211111571550256 0 0 1
350 1 12.831558113400996 20.246632077932386 7.8602330444273845 0 0 0
2727 1 20.542255322777184 18.6300326712016 6.452139900632708 0 0 1
1370 1 18.942106533505317 20.24573094151885 8.028722155127026 0 0 0
2270 1 25.12877768622973 19.509704445412087 7.765605183622631 0 0 0
796 1 30.076654972234486 18.484161417045854 8.936524328761653 0 0 0
2731 1 33.33944289139658 18.17739894247328 6.342414790446235 0 0 1
2179 1 31.908041639356966 19.919072828664962 7.652591204096575 0 0 0
1952 1 2.8511487073355055 23.171966221382014 7.765396621860406 0 0 0
2090 1 4.452813158818117 21.574028653703746 6.455109049565092 0 0 1
2092 1 10.963946492160328 21.79308561289087 6.443302887152183 0 0 1
278 1 9.284203036397246 23.19913108637716 7.958371854087321 0 0 0
2095 1 17.49834655160287 22.004754897328002 6.451404800735445 0 0 1
19 1 15.755412023844933 23.718745103361222 7.8326007811907825 0 0 0
2733 1 23.590164860621353 21.38265286135737 6.213062920589303 0 0 1
2761 1 22.133903517000263 23.23994967152302 7.740972534211792 0 0 0
781 1 28.196284515778107 23.458746133105674 7.960179938425798 0 0 0
2734 1 29.974124261542705 21.704009581812922 6.584470812754128 0 0 1
4241 1 -0.18411634208180908 30.24939987283703 3.6632434547902273 2 -1 -3
2096 1 0.9915556582662588 24.60308758896538 6.4058102418314 0 0 1
764 1 5.936291568710785 26.93720723831392 7.844425265707112 0 0 0
2097 1 7.4196435432666545 24.768040539607398 6.472319008125874 0 0 1
2099 1 13.942291812387507 25.09788845828389 6.242639855544448 0 0 1