

read_data data.ice_${TEMP}K_${PRES}atm_ML group ice
read_data data.ice_286K_${PRES}atm_ML group ice
read_data data.ice_286K_1atm_ML group ice
Reading data file ...
  orthogonal box = (0.019724647 0.01753302 0.01753302) to (57.250785 50.889587 50.889587)
  3 by 1 by 2 MPI processor grid
  reading atoms ...
  4608 atoms
  reading velocities ...
  4608 velocities
  read_data CPU = 0.019 seconds
read_data data.liq_${TEMP}K_${PRES}atm_ML add append shift ${X_HI} ${YZ_LO} ${YZ_LO} group water
read_data data.liq_286K_${PRES}atm_ML add append shift ${X_HI} ${YZ_LO} ${YZ_LO} group water
read_data data.liq_286K_1atm_ML add append shift ${X_HI} ${YZ_LO} ${YZ_LO} group water
read_data data.liq_286K_1atm_ML add append shift 50.8895869801259 ${YZ_LO} ${YZ_LO} group water
read_data data.liq_286K_1atm_ML add append shift 50.8895869801259 -0.0175330198725341 ${YZ_LO} group water
read_data data.liq_286K_1atm_ML add append shift 50.8895869801259 -0.0175330198725341 -0.0175330198725341 group water
Reading data file ...
  orthogonal box = (0.019724647 0.01753302 0.01753302) to (104.36232 50.889587 50.889587)
  3 by 1 by 2 MPI processor grid
  reading atoms ...
  4608 atoms
  reading velocities ...
  4608 velocities
  read_data CPU = 0.013 seconds

write_data data.icewater_test
System init for write_data ...
WARNING: Communication cutoff is 0.0. No ghost atoms will be generated. Atoms may get lost. (../comm_brick.cpp:167)

# Define potential
#
pair_style sw
pair_coeff * * /data/emrosky-sim/Freezing_Simulations/Melting/MLmW_fancy/ML_mW.sw mW
Reading sw potential file /data/emrosky-sim/Freezing_Simulations/Melting/MLmW_fancy/ML_mW.sw with DATE: 2019-02-27

# Delete water and ice atoms that are overlapping
#
delete_atoms overlap 2.5 water ice
System init for delete_atoms ...
Neighbor list info ...
  update every 1 steps, delay 10 steps, check yes
  max neighbors/atom: 2000, page size: 100000
  master list distance cutoff = 6.0032907
  ghost atom cutoff = 6.0032907
  binsize = 3.0016454, bins = 35 17 17
  2 neighbor lists, perpetual/occasional/extra = 1 1 0
  (1) command delete_atoms, occasional, copy from (2)
      attributes: full, newton on
      pair build: copy
      stencil: none
      bin: none
  (2) pair sw, perpetual
      attributes: full, newton on
      pair build: full/bin/atomonly
      stencil: full/bin/3d
      bin: standard
Deleted 689 atoms, new total = 8527

# set timestep
#
timestep 10.0

# Define output
#
compute 1 all msd
thermo 50
thermo_style custom step temp press vol etotal ke pe c_1[4]

# Neighbor lists
#
neigh_modify delay 0 every 1 check yes

# Set fixes
#
fix 1 all momentum 10 linear 1 1 1 rescale
fix 2 all nph iso ${PRES} ${PRES} ${PCOUPL}
fix 2 all nph iso 1 ${PRES} ${PCOUPL}
fix 2 all nph iso 1 1 ${PCOUPL}
fix 2 all nph iso 1 1 10000.0
fix 3 all temp/csvr ${TEMP} ${TEMP} ${TCOUPL} 837492
fix 3 all temp/csvr 286 ${TEMP} ${TCOUPL} 837492
fix 3 all temp/csvr 286 286 ${TCOUPL} 837492
fix 3 all temp/csvr 286 286 5000.0 837492


# Fix ice atoms in place
#
velocity ice set 0.0 0.0 0.0
fix 4 ice setforce 0.0 0.0 0.0

# Run 1.0 ns equilibration of water
#
dump 1 all atom 1000 eq.all.${NAME}.dump
dump 1 all atom 1000 eq.all.coexist_286K_1atm_ML.dump
run 100000
Neighbor list info ...
  update every 1 steps, delay 0 steps, check yes
  max neighbors/atom: 2000, page size: 100000
  master list distance cutoff = 6.0032907
  ghost atom cutoff = 6.0032907
  binsize = 3.0016454, bins = 35 17 17
  1 neighbor lists, perpetual/occasional/extra = 1 0 0
  (1) pair sw, perpetual
      attributes: full, newton on
      pair build: full/bin/atomonly
      stencil: full/bin/3d
      bin: standard
Per MPI rank memory allocation (min/avg/max) = 4.589 | 4.597 | 4.603 Mbytes
Step Temp Press Volume TotEng KinEng PotEng c_1[4] 
       0    129.22377   -307.30275    270035.08   -84649.568    3284.1428   -87933.711            0 
      50    152.06532    74.099276    269158.15   -84324.269    3864.6468   -88188.915   0.85775988 
     100    162.71472    184.27549    267803.94   -83971.405    4135.2947   -88106.699    1.7448491 
     150    168.28741    462.31175    267492.15   -83628.842    4276.9213   -87905.764    2.6170863 
     200    174.81609    144.99503    268465.18   -83410.521    4442.8437   -87853.364    3.5792777 
     250    176.22665   -177.64478     269475.6   -83113.815    4478.6923   -87592.507    4.6341319 
     300    183.39076   -246.08107    269610.03   -82790.694    4660.7638   -87451.458    5.7002936 
     350    189.33842   -14.333833    269121.72   -82585.185    4811.9197   -87397.105    6.9186988 
     400    191.84248   -27.378533    269105.71   -82368.752     4875.559   -87244.311    8.4185973 
     450    196.63711   -57.128227    269546.29   -82116.752    4997.4114   -87114.164    9.8095701 
     500    199.69364   -22.551581    269872.87   -81917.873    5075.0914   -86992.964    11.277174 
     550    201.28244   -188.27047    270055.63   -81720.224    5115.4698   -86835.694    12.963271 
     600    207.93575    205.01339    269926.55   -81528.543    5284.5595   -86813.102    14.610475 
     650    207.80722   -223.05275    270247.14   -81327.437    5281.2931    -86608.73    16.301548 
     700    212.74594    276.39829       270264   -81136.105    5406.8077   -86542.912    17.958643 
     750    213.51565   0.89597996    270529.33   -80979.847    5426.3692   -86406.216    19.764538 
     800    220.65222   -108.44475    270779.66   -80796.544    5607.7407   -86404.285    21.472758 
     850    221.06118    147.21489    270741.25   -80608.573    5618.1342   -86226.707    23.385109 
     900    228.27004     94.91684    270692.76   -80452.139     5801.343   -86253.482    25.463795 
     950     231.7697    12.193988    271043.19   -80299.532    5890.2846   -86189.816    27.415493 
    1000    234.15324   -52.983921    271547.06   -80158.489    5950.8609    -86109.35     29.49188 
    1050    233.71147    28.547232    271718.38   -80043.454    5939.6337   -85983.088    31.661484 
    1100    231.88015   -15.027274    271567.34   -79929.827    5893.0916   -85822.919    33.914543 
    1150    237.82109    74.254677    271285.78   -79812.967    6044.0771   -85857.044    36.176148 
    1200    238.26015    379.02196    271284.51   -79712.234    6055.2355    -85767.47    38.300285 
    1250    242.82332    141.23658     271888.5   -79616.722    6171.2058   -85787.927    40.569762 
    1300    241.90441   -135.03916    272688.48   -79523.385    6147.8521   -85671.237    43.047176 
    1350    241.31653   -395.13596    272732.72   -79430.438    6132.9116   -85563.349    45.414513 
    1400    242.68019    250.30042    272016.39   -79304.004    6167.5682   -85471.573    47.493513 
    1450    249.72829    189.63838    272002.51   -79196.461    6346.6913   -85543.153    49.870753 
    1500    245.52535     3.526589    272590.09   -79115.341    6239.8761   -85355.218    52.669288 
    1550    251.45085   -180.54302    272796.28   -79039.796     6390.469   -85430.265     55.70629 
    1600    253.62467   -140.55912    272712.74   -78949.519    6445.7154   -85395.235    58.470281 
    1650    253.50917   -116.04919     272515.6   -78878.596    6442.7799   -85321.376    60.835823 
    1700    254.69785    156.98485    272407.35   -78779.644    6472.9895   -85252.633    63.404906 
    1750    256.72683    78.800677    272535.85   -78724.543    6524.5548   -85249.098    65.938097 
    1800    258.26078     108.6472     272749.8   -78623.968    6563.5393   -85187.508    68.858238 
    1850    263.60024   -201.50658    272876.63   -78543.425    6699.2384   -85242.663    71.670679 
    1900    263.68756     175.4357    272857.47   -78459.047    6701.4575   -85160.504    74.395823 
    1950    266.44502   -91.975118    273219.09   -78386.252    6771.5367   -85157.789    77.048837 
    2000    263.42238   -183.40152    273601.44   -78295.176    6694.7183   -84989.894    79.726016 
    2050    260.69246   -86.774883     273401.8    -78273.53     6625.339   -84898.869    82.057428 
    2100    266.67591    118.15334    273153.56    -78249.54    6777.4046   -85026.945    84.558569 
    2150    269.94018    65.248346    273125.79   -78197.871    6860.3642   -85058.236    87.250444 
    2200    269.28753   -169.80006    273398.53   -78129.827    6843.7773   -84973.604    90.397684 
    2250    270.31983   -178.49143    273570.91   -78101.798    6870.0125   -84971.811    94.032338 
    2300    272.60027    23.208568    273341.95   -78010.972    6927.9685    -84938.94    96.710471 
    2350    276.93394    284.06535    273000.95   -77928.783    7038.1061   -84966.889     99.38103 
    2400    275.13193    183.71865    273254.23   -77896.633    6992.3093   -84888.942    102.00234 
    2450     271.8939    79.445477    273891.01   -77851.582    6910.0166   -84761.599    104.85416 
    2500    276.58461   -152.91185    274271.97   -77775.521    7029.2281   -84804.749    107.94548 
    2550     272.1122   -21.009764     274056.3   -77743.585    6915.5646    -84659.15     110.6187 
    2600    276.90593   -59.913702     273570.3   -77725.772    7037.3944   -84763.167    113.38792 
    2650    282.84339    90.588505    273396.52   -77648.218    7188.2911   -84836.509    116.13184 
    2700      275.253    103.31436    273791.99   -77617.115    6995.3862   -84612.502    119.67218 
    2750    277.42997   -203.80304    274401.82   -77630.964    7050.7125   -84681.676    122.92962 
    2800     281.3853    12.011532    274600.76   -77602.344    7151.2348   -84753.579    125.37755 
    2850    280.88166    62.878014    274184.81   -77619.722    7138.4351   -84758.157    128.37768 
    2900    276.53688     100.6256    273483.28   -77622.658    7028.0151   -84650.673    130.89096 
    2950    282.04252    483.52049    273064.57   -77618.495    7167.9377   -84786.433    133.66796 
    3000    275.69163    136.60305    273805.61   -77570.973    7006.5336   -84577.506    136.34096 
    3050    282.84791    -449.5721    274764.25   -77581.769    7188.4061   -84770.175    139.27831 
    3100    280.11579   -253.43497    274635.72   -77566.266     7118.971   -84685.237    142.49388 
    3150      287.013   -137.80341    273745.37   -77575.023    7294.2593   -84869.282     144.5838 
    3200    279.98982    179.21571    273183.18   -77537.268    7115.7694   -84653.037    147.15033 
    3250    283.07445    46.599462    273432.61   -77511.885    7194.1636   -84706.048    150.10159 
    3300    281.87462    243.92413    274082.52   -77466.119    7163.6704   -84629.789    153.35707 
    3350    282.57287   -50.004809    274898.65   -77362.558    7181.4161   -84543.974     155.7902 
    3400     281.2136    -700.1131    275292.73    -77406.65     7146.871   -84553.521    158.32724 
    3450    283.29506   -48.662242     274386.1    -77429.59    7199.7703    -84629.36    160.71945 
    3500     283.1415    120.55299    273481.59   -77417.212    7195.8674   -84613.079    162.65511 
    3550    290.69475    132.86179    273448.16   -77384.203    7387.8288   -84772.032    165.53215 
    3600    278.45914    15.150571    274049.53   -77390.016    7076.8682   -84466.884    168.89422 
    3650    281.42719   -215.92108    274512.04   -77395.407    7152.2994   -84547.706    172.17197 
    3700     283.4619    49.679321    274510.51   -77390.073    7204.0103   -84594.083    175.09427 
    3750    281.63635   -160.91162    274447.45   -77418.048    7157.6151   -84575.663      177.847 
    3800    284.83754   -59.365417    274311.64   -77418.305    7238.9713   -84657.277    180.54896 
    3850    284.77309    28.018652    274091.07   -77400.079    7237.3335   -84637.413    183.71087 
    3900    280.72063    80.824035    273928.32   -77404.415    7134.3425   -84538.758    186.51753 
    3950     283.1477    300.39201     273902.4   -77361.979     7196.025   -84558.004    189.43975 
    4000    285.08502   -9.3370016    274321.08   -77370.049    7245.2608   -84615.309     192.8915 
    4050    283.53766   -388.04551    274847.35   -77356.775    7205.9357    -84562.71    196.08869 
    4100      281.027    59.787525    274789.29   -77355.158    7142.1287   -84497.287    198.69557 
    4150    282.73989   -128.61523    274551.72   -77308.784    7185.6608   -84494.445     201.2986 
    4200    282.10265    214.41841    274257.83   -77310.798    7169.4658   -84480.264    204.78203 
    4250    283.24712    25.654045     274457.4   -77282.912    7198.5517   -84481.463    208.61527 
    4300    282.50524    9.7627906    274661.73     -77298.3    7179.6974   -84477.998    211.57651 
    4350     281.1125   -12.644793    274566.52   -77313.958    7144.3017   -84458.259    214.75403 
    4400    282.75943    94.951776     274239.9   -77307.391    7186.1575   -84493.549     217.4687 
    4450    287.33968   -43.542475    274009.56   -77244.104    7302.5616   -84546.666    220.69692 
    4500    286.35377    57.107769    274119.34   -77194.234    7277.5054   -84471.739    223.75561 
    4550    288.49005   -153.57714    274338.46   -77152.294    7331.7976   -84484.091    226.85992 
    4600    291.29247   -113.50024    274450.11   -77156.919    7403.0195   -84559.938    229.49651 
    4650    287.45032   -94.011028    274722.32   -77094.741    7305.3735   -84400.115    233.34204 
    4700     287.0653   -114.25708    274883.41   -77071.754    7295.5884   -84367.343    236.53668 
    4750    287.81914    53.915602    274548.97   -77090.996    7314.7468   -84405.743      239.687 
    4800    281.84397   -37.917289    274436.06   -77088.134    7162.8917   -84251.026    242.41556 
    4850    293.90118   -153.90609    274394.17   -77104.786    7469.3182   -84574.104    245.46183 
    4900    285.11395    300.65358    274392.16   -77098.729    7245.9962   -84344.725    249.04478 
    4950    286.44151   -100.34803     274583.4   -77107.452    7279.7353   -84387.188    252.72392 
    5000    289.26512   -17.608735    274570.49   -77128.742    7351.4956   -84480.237    255.81706 
    5050    285.60648    18.365102     274565.5   -77130.951    7258.5134   -84389.464     258.9326 
    5100     286.8764  -0.43102637    274490.05   -77148.945    7290.7878   -84439.732    262.15045 
    5150    284.20369    112.42004    274291.65   -77171.919    7222.8623   -84394.782    265.20429 
    5200    288.44497    161.37946    274155.34   -77175.529     7330.652   -84506.181    268.08123 
    5250    291.53747   -171.68867    274339.78   -77161.519     7409.246   -84570.765     271.6478 
    5300    287.77744    17.641938    274711.07   -77148.052    7313.6872   -84461.739    274.78087 
    5350    287.10316   -10.336868    275069.87     -77110.6    7296.5506   -84407.151    278.39123 
    5400    285.07717   -122.04811    275166.02   -77163.964    7245.0614   -84409.025    281.82542 
    5450    285.22669    49.440368    274764.69   -77143.881    7248.8614   -84392.742    284.96386 
    5500      288.968    177.27366    274375.63   -77149.301    7343.9443   -84493.245     288.1739 
    5550     285.7529    219.80215    274258.45   -77202.002    7262.2346   -84464.237    291.60717 
    5600    282.52984    257.87308    274437.28   -77249.161    7180.3226   -84429.483    295.10467 
    5650    281.82213   -366.07231    274425.36   -77328.725    7162.3364   -84491.061    298.04234 
    5700    282.01846     96.75329    274260.52   -77306.555    7167.3261   -84473.881    300.82182 
    5750    288.06874    19.989269    274332.62   -77289.197    7321.0904   -84610.287     304.3031 
    5800    287.91284   -219.53855       274612   -77287.263    7317.1282   -84604.391      307.009 
    5850    289.61455    -111.1805    274725.56    -77226.07    7360.3761   -84586.446    310.87311 
    5900    283.78091   -320.47782    274602.89   -77261.154    7212.1176   -84473.272    314.45674 
    5950    279.60138    7.8225947    274121.74   -77266.324    7105.8974   -84372.222    317.18694 
    6000    287.79054    275.58514    273539.64   -77271.925      7314.02   -84585.945    319.28775 
    6050    282.69244    365.27267    273698.95   -77217.876     7184.455   -84402.331    321.97309 
    6100    284.79582    63.287685    274750.16   -77228.814     7237.911   -84466.725    325.32923 
    6150    285.26212   -460.61991    275541.75   -77211.917    7249.7617   -84461.679    329.00604 
    6200    281.57768   -308.10526    275333.32   -77223.067     7156.124   -84379.191    331.57757 
    6250     283.0692    175.40028    274214.38   -77199.878    7194.0301   -84393.909    333.53827 
    6300    289.81247     345.9214    273509.08   -77165.804    7365.4062   -84531.211    336.10523 
    6350    283.95356    241.38863    274011.25   -77139.059    7216.5055   -84355.565     339.8286 
    6400    288.80829   -301.78346    274832.61   -77202.191    7339.8856   -84542.077    343.35626 
    6450     286.5134   -260.61618    275219.13   -77212.655    7281.5622   -84494.217    346.68217 
    6500    286.58548   -180.41506    274798.68   -77153.878    7283.3941   -84437.272     349.4622 
    6550    287.88658     113.4964    274046.61   -77139.912    7316.4607   -84456.373     351.6999 
    6600    289.66241    376.80914    273791.25   -77154.349    7361.5926   -84515.942    354.16068 
    6650    286.05925    22.484919    274133.37    -77198.34    7270.0203   -84468.361    357.36673 
    6700    286.61742   -359.75877    274713.46   -77209.898     7284.206   -84494.104    361.08787 
    6750    286.39316   -532.95081    275125.27   -77235.823    7278.5065   -84514.329    364.86505 
    6800     287.3479   -105.89801     274746.7   -77204.719    7302.7706   -84507.489    368.59037 
    6850    284.77637    80.798834    274261.02   -77197.774    7237.4166    -84435.19    369.37756 
    6900    292.24609   -67.516948    274090.03   -77169.912    7427.2551   -84597.167    371.99517 
    6950    290.92587   -42.021564    274231.76   -77161.014    7393.7024   -84554.716    375.50824 
    7000     283.4099    39.087774    274441.18   -77135.317    7202.6886   -84338.006    378.54253 
    7050    288.94384   -142.48181       274691   -77119.428    7343.3304   -84462.758    382.22565 
    7100    288.79241    -57.65933    274564.18    -77123.39    7339.4819   -84462.872    384.52123 
    7150    285.17288    67.518958    274370.07    -77179.34    7247.4938   -84426.834    386.31981 
    7200    283.76476    225.34806    274250.06   -77219.606    7211.7074   -84431.314    388.30684 
    7250    286.05932    24.357816    274341.25   -77170.774    7270.0222   -84440.796    391.37631 
    7300    285.01407    216.48557    274341.88   -77145.244    7243.4577   -84388.702    394.41074 
    7350    286.46181    256.53399    274440.53   -77134.328    7280.2511    -84414.58    396.83441 
    7400    287.53439    -269.2943    274535.75   -77098.019    7307.5102   -84405.529    399.04505 
    7450    287.00288    238.74206    274471.33   -77073.108     7294.002    -84367.11    400.96243 
    7500    289.83763    51.775406    274702.79   -77143.523    7366.0454   -84509.568    404.39476 
    7550    286.24635   -31.909742    275004.03   -77173.883    7274.7753   -84448.659    407.14377 
    7600    285.03524    60.058155    274737.34   -77122.809    7243.9958   -84366.805    410.25958 
    7650    289.16874   -85.158606    274233.15   -77129.757    7349.0462   -84478.803    412.37779 
    7700    292.53367     126.3385    273877.15   -77119.831    7434.5636   -84554.395    415.19819 
    7750    287.61489   -61.266922    274199.01   -77082.704     7309.556    -84392.26    418.20056 
    7800    288.97316   -220.04597    274817.45   -77117.428    7344.0755   -84461.504    421.97716 
    7850    291.39009   -352.30606    275250.22   -77092.621    7405.5003   -84498.122    424.92776 
    7900    286.83317     18.31151     275063.6   -77127.031     7289.689    -84416.72    428.43057 
    7950    284.61874   -23.033339    274666.33    -77170.72    7233.4107   -84404.131    430.91271 
    8000    284.92406   -58.546031     274361.3   -77157.389    7241.1701   -84398.559     433.5059 
    8050    287.96524   -96.529979    274169.59   -77150.385      7318.46   -84468.845    436.01105 
    8100    286.54251   -149.63235    274392.76   -77191.449     7282.302   -84473.751    438.64771 
    8150    285.02564   -127.55403    274548.81   -77143.103    7243.7518   -84386.855    441.68429 
    8200    291.32419   -111.33457    274404.77    -77171.04    7403.8255   -84574.865    443.71676 
    8250    284.81663    120.13728    274321.08   -77171.648    7238.4399   -84410.087    446.09204 
    8300    285.92179    -87.97091    274613.86   -77152.461    7266.5269   -84418.988    448.59001 
    8350    288.06502   -19.577123    274831.63   -77211.477    7320.9958   -84532.472    450.70911 
    8400    284.88761   -17.327968    274932.79   -77204.796    7240.2439    -84445.04    453.52806 
    8450    285.43183    -99.69579    274692.23   -77200.978    7254.0748   -84455.053    455.77151 
    8500    287.93355   -41.596163    274150.89   -77182.752    7317.6545   -84500.407    457.60241 
    8550    287.95518    48.126608    274035.75   -77218.326    7318.2043   -84536.531    458.59562 
    8600    283.06137    -369.6529    274484.67   -77217.497    7193.8311   -84411.328    461.19058 
    8650    284.03914   -94.527141    274841.27   -77205.256    7218.6804   -84423.936     463.2355 
    8700    290.02427   -245.07809    274730.71   -77209.518    7370.7889   -84580.307    465.16279 
    8750    287.73609    238.10034    274097.46   -77177.632    7312.6361   -84490.268    467.76559 
    8800    287.36523    356.73722    273928.54   -77200.805     7303.211   -84504.016    469.11893 
    8850     283.3141   -12.510597    274512.75   -77243.733     7200.254   -84443.987    472.67144 
    8900    283.90597   -61.366854    274963.23   -77265.573     7215.296   -84480.869    476.43976 
    8950    281.93439   -76.554438    274619.54   -77250.883    7165.1896   -84416.072    479.53612 
    9000    287.73368    175.74302    273997.16   -77245.086     7312.575   -84557.661    481.76436 
    9050    288.74317    191.28131    273786.84   -77248.258    7338.2305   -84586.488    484.87778 
    9100    286.56565    157.91284    274014.43   -77311.529    7282.8901   -84594.419    487.98072 
    9150    282.22373    177.53821    274533.18   -77274.437     7172.543    -84446.98    491.18453 
    9200    280.79237    56.913637    275070.91   -77272.983    7136.1658   -84409.149    493.48111 
    9250    286.39319     -252.827    274996.53    -77305.66    7278.5073   -84584.167    495.84003 
    9300    284.76215   -108.91573    274195.22    -77356.56    7237.0553   -84593.616     497.2766 
    9350    281.08018    299.32026    273461.54   -77329.066    7143.4803   -84472.547    499.21413 
    9400    285.14039     341.5945    273595.08   -77331.695    7246.6681   -84578.364     502.1736 
    9450    280.77618     341.3228    274033.65   -77279.558    7135.7544   -84415.312    505.22833 
    9500    284.14069    -230.2449    274555.17   -77302.125    7221.2612   -84523.386    508.44933 
    9550    287.22265   -26.129865    274444.15    -77285.96    7299.5875   -84585.548    510.33166 
    9600    286.19882    121.50716    274254.84   -77258.645    7273.5674   -84532.212    512.36556 
    9650    284.21187    75.594672    274274.32    -77294.85    7223.0704    -84517.92    515.31343 
    9700    286.61804   -78.826877    274474.21    -77298.23    7284.2216   -84582.452    519.07415 
    9750    285.62703   -79.534711    274436.64   -77300.828    7259.0356   -84559.863    521.28225 
    9800    283.93673   -120.77049    274129.71   -77301.907    7216.0779   -84517.985      522.687 
    9850    288.71868    125.28751    273840.88   -77299.852     7337.608    -84637.46    525.25131 
    9900     284.5635    33.041241    273705.06   -77300.247    7232.0069   -84532.254    528.22003 
    9950    287.43472    148.15226    273808.12   -77282.555    7304.9772   -84587.533     531.5565 
   10000    285.31152    122.76169    274207.44    -77277.77    7251.0173   -84528.788    534.63349 
   10050    285.05868   -195.08292    274724.36   -77269.035    7244.5915   -84513.627    538.56098 
   10100    283.63763   -134.07009    274968.42   -77240.365    7208.4762   -84448.841    543.44952 
   10150    285.80084   -100.95641    274651.63   -77222.381     7263.453   -84485.834    545.43284 
   10200    287.09786    57.385197    274314.98   -77208.504    7296.4161    -84504.92    548.26244 
   10250    285.89047   -110.90806    274163.11   -77215.087    7265.7308   -84480.817    551.37948 
   10300    288.83657    84.336999    273997.43   -77201.866    7340.6041    -84542.47    552.85442 
   10350    289.28253   -263.81193    274105.81   -77208.235    7351.9381   -84560.173    556.00465 
   10400    286.94724   -8.5392386    274545.68   -77274.727     7292.588   -84567.315    558.76099 
   10450    284.36706    24.686335    274869.27   -77244.119    7227.0144   -84471.134    562.04443 
   10500    285.23763   -120.55515    274614.68   -77241.867    7249.1393   -84491.006    563.72657 
   10550    288.03648   -2.9543799    274285.97   -77228.577    7320.2703   -84548.848    565.26021 
   10600     283.8093    116.04209    274177.94   -77222.337    7212.8392   -84435.176    567.76262 
   10650     291.6671  -0.03128215    274401.15   -77204.619    7412.5405   -84617.159    569.78537 
   10700    281.08652   -74.493551    274623.34   -77226.766    7143.6415   -84370.407    573.53713 
   10750    284.57349   -3.2565467     274532.6   -77202.703    7232.2607   -84434.963    575.91637 
   10800    282.45081   -118.70738    274223.12   -77218.449     7178.314   -84396.762    577.19499 
   10850    289.65285    239.02474    273842.88   -77164.256    7361.3496   -84525.606    579.61775 
   10900    290.62703    113.45555    273999.92   -77177.206    7386.1076   -84563.314    583.32635 
   10950    286.22587    284.43309    274342.24   -77183.301     7274.255   -84457.556    585.92561 
   11000    285.56308   -94.360201    274725.52   -77215.379    7257.4104    -84472.79    590.28527 
   11050    282.26284   -123.61157    274702.31   -77240.279     7173.537   -84413.816    592.77976 
   11100    285.93973    63.030648    274329.87   -77217.597    7266.9828    -84484.58    595.56043 
   11150    283.89503    17.741613    273972.77   -77223.398    7215.0179   -84438.416    597.29157 
   11200    287.78026    34.860847    273980.97   -77213.288    7313.7586   -84527.046    600.17306 
   11250    284.14219    369.93845    274085.59   -77248.726    7221.2994   -84470.025     602.4931 
   11300    289.43804    82.738269    274375.54   -77246.561    7355.8901   -84602.451    606.15391 
   11350    284.15307   -19.936983    274667.06   -77280.758    7221.5759   -84502.334      609.519 
   11400    280.78402    -166.7371    274643.76   -77273.697    7135.9535   -84409.651    611.46212 
   11450    286.38578    337.55184    273848.57   -77328.049    7278.3189   -84606.368    613.05957 
   11500    284.84401    220.87577    273679.52   -77328.602    7239.1359   -84567.738    615.75969 
   11550    284.76892   -269.30876    274206.02   -77350.686    7237.2275   -84587.914    618.51095 
   11600    282.87356    187.22014    274496.86   -77338.159    7189.0579   -84527.217    622.18685 
   11650    285.97003    118.54653    274442.38   -77329.639     7267.753   -84597.391    624.27986 
   11700    287.17314   -137.26499    274209.83   -77286.632    7298.3292   -84584.961    625.57485 
   11750    277.61882    154.18373    273989.51   -77291.213     7055.512   -84346.725    628.46094 
   11800    283.57756    115.71172    274113.05   -77308.852    7206.9497   -84515.802    630.34389 
   11850    286.54791   -181.71129    274467.25   -77241.072    7282.4394   -84523.511     634.0958 
   11900    279.42304    138.86376    274513.52   -77320.504    7101.3651   -84421.869    637.50128 
   11950    285.54482   -222.51144    274658.07   -77317.101    7256.9463   -84574.048    640.67746 
   12000    280.14104   -52.638163    274598.74   -77314.589    7119.6128   -84434.201    642.18681 
   12050    283.24675    51.065957    274535.81   -77302.564    7198.5423   -84501.106    644.02475 
   12100    287.49319    74.832071    274299.62   -77272.633    7306.4629   -84579.096    646.59419 
   12150    284.40961    261.74997    273872.34   -77259.391    7228.0956   -84487.486     647.0555 
   12200     287.5836    80.537423    273851.23   -77249.943    7308.7607   -84558.704    649.46237 
   12250    289.35067   -37.363959    274248.14   -77225.764    7353.6698   -84579.433     653.4541 
   12300    285.58172   -101.66069    274767.54   -77239.933    7257.8843   -84497.817    656.62929 
   12350    284.02713   -322.52076    274931.23   -77262.884    7218.3752    -84481.26    660.21744 
   12400    285.13236    75.795033    274339.22   -77299.311    7246.4641   -84545.775    661.78232 
   12450    293.98372   -9.3569925    274027.57   -77280.219    7471.4159   -84751.635    663.30253 
   12500    286.60153   -107.20876    274127.07   -77246.877     7283.802   -84530.679    666.38759 
   12550    286.68467    125.11689    274419.94   -77299.338    7285.9151   -84585.253    669.94769 
   12600    284.66038   -103.71888    274567.59    -77244.51    7234.4688   -84478.979    672.00493 
   12650    287.98957    69.035414    274133.78    -77266.77    7319.0782   -84585.848    672.95717 
   12700     291.9481    115.04914    273778.37   -77245.153    7419.6818   -84664.835    675.87625 
   12750    285.77409     192.4727    273973.35   -77295.129    7262.7731   -84557.902    679.99862 
   12800    285.70139   -55.027065    274599.28   -77311.841    7260.9255   -84572.767    683.17696 
   12850    286.84047   -300.23356     275040.1   -77302.362    7289.8747   -84592.237    685.92353 
   12900    280.87997   -434.71375    274554.85   -77278.806    7138.3921   -84417.198    686.40017 
   12950    282.07333    28.077116    273679.23   -77282.059    7168.7207    -84450.78    687.73192 
   13000    287.47247      191.097    273695.16   -77252.378    7305.9365   -84558.315    689.92012 
   13050    288.19044    68.467538    274401.93   -77243.352    7324.1832   -84567.535      694.012 
   13100    283.26214   -130.79127    274782.81   -77209.268    7198.9334   -84408.202    697.41612 
   13150     285.6782   -46.614616    274698.08   -77231.402    7260.3362   -84491.738    700.42213 
   13200    288.34805   -114.68487    274383.69   -77246.921    7328.1888    -84575.11    703.68151 
   13250    282.26465    176.37301    273985.02   -77290.712    7173.5829   -84464.295    705.23281 
   13300    286.06651    115.66135    273942.78   -77288.831    7270.2049   -84559.036    709.40604 
   13350    285.15436    130.07559    274263.22   -77263.248    7247.0232   -84510.271    713.63839 
   13400    284.00719   -84.687326    274480.61   -77293.165    7217.8684   -84511.034    716.96549 
   13450    286.95198   -72.968527    274254.72   -77314.941    7292.7085    -84607.65    720.38461 
   13500    284.72649    134.61749    274043.76   -77280.641     7236.149    -84516.79    723.32435 
   13550     280.7135   -71.830232    274276.44   -77359.486    7134.1614   -84493.647    726.39293 
   13600    284.31778   -62.694156    274288.53   -77366.892     7225.762   -84592.654    728.22332 
   13650    285.48138   -129.25359    274094.05   -77371.713    7255.3342   -84627.048      730.257 
   13700    286.98563     174.7804    273824.92    -77372.43    7293.5638   -84665.994    731.79874 
   13750    283.57481   -57.055732    273727.96   -77353.144    7206.8797   -84560.024    733.76656 
   13800    283.79108    208.60049     273916.3   -77403.484    7212.3761    -84615.86    736.83558 
   13850    284.27202    130.85087    274402.68   -77392.097     7224.599   -84616.696    741.10148 
   13900    282.58585    4.6076085    274666.88   -77363.097    7181.7461   -84544.843     745.5737 
   13950    285.27199   -9.1660688    274376.75   -77380.752    7250.0125   -84630.765    747.99325 
   14000    282.79878    64.313608    274045.95   -77329.739    7187.1575   -84516.897    749.80778 
   14050    283.69609    207.18051    274113.53   -77323.331    7209.9621   -84533.293    752.87372 
   14100    283.80027    -20.14596    274311.17   -77315.436    7212.6097   -84528.045    755.64903 
   14150    283.87265    -135.1294    274172.98   -77316.855    7214.4492   -84531.304    756.96395 
   14200    284.57523   -56.742089    274082.54   -77310.267    7232.3048   -84542.572    759.42154 
   14250    285.10631   -36.567499    274186.59   -77235.533     7245.802   -84481.335      761.795 
   14300    287.43477    59.955426    274385.32    -77264.98    7304.9783   -84569.958    764.86064 
   14350    287.17764   -208.80279     274763.3   -77267.934    7298.4435   -84566.377    768.22264 
   14400    287.82888   -109.13537    274721.64   -77240.366    7314.9945    -84555.36    770.63808 
   14450    285.02613    75.950335    274256.67   -77287.813    7243.7643   -84531.578     772.8246 
   14500     285.2756   -71.310438    273972.99   -77300.745    7250.1044   -84550.849    774.10301 
   14550    285.37971    211.90939    273923.45   -77351.803    7252.7503   -84604.553    775.33943 
   14600    283.79092    74.215058    274117.21    -77331.94     7212.372   -84544.312    777.15238 
   14650    282.77993   -275.94228    274392.32   -77345.697    7186.6784   -84532.375     780.0397 
   14700     282.5013   -113.62931    274585.76   -77310.347    7179.5971   -84489.944    783.19739 
   14750    283.76206   -47.081257    274598.52   -77323.219    7211.6386   -84534.857    786.14233 
   14800    282.89148   -134.37866    274231.13   -77374.232    7189.5134   -84563.746    788.23834 
   14850     279.4699    199.76643    273758.87   -77389.758     7102.556   -84492.314    789.16828 
   14900    287.94604   -41.618945    273720.99   -77399.261     7317.972   -84717.233    791.96557 
   14950    283.39142    69.503184    274045.82   -77472.372     7202.219   -84674.591    795.17111 
   15000    285.21376    -197.9694    274536.94   -77464.704    7248.5328   -84713.237    797.53597 
   15050    281.97336   -273.95211    274514.89   -77469.466    7166.1799   -84635.646    800.51064 
   15100    282.98956   -76.273953    273999.29   -77445.626     7192.006   -84637.632    802.80767 
   15150    285.10109   -53.029921    273624.86   -77454.969    7245.6692   -84700.639    803.11944 
   15200    284.55282    252.15538    273850.14   -77450.519    7231.7353   -84682.254    804.44728 
   15250     280.2132   -173.89429    274562.17    -77452.31    7121.4466   -84573.757    807.71082 
   15300    285.41547    -175.1397    274736.91   -77413.088    7253.6592   -84666.747    810.68376 
   15350    282.80758   -4.1390771    274418.13    -77408.88     7187.381   -84596.261    811.86587 
   15400    281.63794    42.794824    273937.37   -77373.222    7157.6555   -84530.877    811.25367 
   15450     288.5019    102.12113    273650.97   -77381.399    7332.0988   -84713.498    813.60282 
   15500    282.74044    58.680025    273947.48    -77361.93    7185.6748   -84547.605    815.76427 
   15550    286.58035   -4.4790691     274300.1   -77371.898    7283.2638   -84655.162    817.70165 
   15600    280.73366   -66.842954    274294.19    -77367.86    7134.6739   -84502.534    819.28739 
   15650    285.90492   -12.290194    273928.14   -77373.738    7266.0982   -84639.836    820.51352 
   15700    285.27722    47.999972    273723.56   -77353.434    7250.1455    -84603.58    822.85186 
   15750    285.67618    302.05324    274070.94    -77361.28    7260.2847   -84621.564    824.29693 
   15800    287.46751     -108.926    274586.79    -77352.32    7305.8103    -84658.13    827.49371 
   15850    285.96066    -27.34304    274693.45   -77330.046    7267.5147   -84597.561    829.17519 
   15900    285.68381   -100.51707    274411.71   -77332.195    7260.4788   -84592.674    830.17149 
   15950    285.84131   -186.19682    274106.43    -77295.53    7264.4816   -84560.012    833.39346 
   16000    289.24418   -8.0673172    274127.22   -77273.087    7350.9633   -84624.051    835.50015 
   16050    286.24448   -49.072556    274500.54   -77232.269    7274.7277   -84506.997    837.18688 
   16100    286.55376    -245.3209    274855.56   -77226.078    7282.5879   -84508.666    840.36796 
   16150    283.69248    72.840702    274556.07   -77222.104    7209.8703   -84431.975     843.0964 
   16200    283.99535     454.0396    274015.46    -77171.28    7217.5676   -84388.847     844.8573 
   16250    292.48054   -167.48056    274185.85    -77165.03    7433.2135   -84598.243    847.87075 
   16300    288.00819     107.9585    274204.01   -77176.734    7319.5515   -84496.285    852.02529 
   16350    283.30091   -276.40466    274326.71   -77198.502    7199.9188   -84398.421    854.73677 
   16400    285.56644   -165.35823     274267.1   -77181.068    7257.4958   -84438.564    857.55302 
   16450    283.91824    15.756725    274263.91   -77220.445    7215.6079   -84436.053    859.89771 
   16500    286.53507    190.10072    274248.23   -77193.662     7282.113   -84475.775    862.17465 
   16550     285.4858    236.84401    274251.82   -77155.366    7255.4464   -84410.813    863.99638 
   16600    285.84139   -58.287082    274446.95   -77134.956    7264.4836    -84399.44    866.46971 
   16650    291.73811   -152.80951    274429.91   -77089.096    7414.3451   -84503.441    869.87474 
   16700     291.2151   -135.95184    274322.86   -77171.636    7401.0532    -84572.69    872.39123 
   16750     288.5076    81.177796    274245.96   -77194.278    7332.2436   -84526.521    874.67367 
   16800    281.07987    153.03838     274173.5   -77210.349    7143.4724   -84353.822    876.11255 
   16850    289.67897    199.30053    274332.66   -77247.429    7362.0133   -84609.442     878.6105 
   16900    277.59517    119.95213    274790.19    -77235.22     7054.911   -84290.131    882.30844 
   16950    288.66011  -0.22071416     274892.9   -77200.883    7336.1195   -84537.003    885.97211 
   17000    283.08517    81.850349    274657.08   -77232.349    7194.4359   -84426.785    887.49424 
   17050    283.19975    197.32157    274401.58   -77199.248     7197.348   -84396.596    887.90981 
   17100    284.25683    107.88076    274393.88   -77199.651     7224.213   -84423.864    890.31014 
   17150     296.6653    55.971171    274499.44   -77152.322    7539.5667   -84691.888    891.82733 
   17200    285.16237   -42.996214    274776.84   -77105.353    7247.2267   -84352.579    895.56901 
   17250    291.24193   -324.59986       274780   -77117.822    7401.7349   -84519.557    897.02323 
   17300    290.11548   -73.014108    274461.17   -77069.182    7373.1068   -84442.289    900.01137 
   17350    289.20196    29.760702    274188.75   -77114.969    7349.8903   -84464.859    902.10448 
   17400    288.62315  -0.18890754    274417.94   -77140.204    7335.1802   -84475.384    904.62119 
   17450    288.12689   -756.93049    275047.28   -77096.578    7322.5682   -84419.147    906.75229 
   17500    285.33133   -213.54899    274895.14   -77144.487    7251.5208   -84396.007    907.45668 
   17550    288.20147    59.883488    274227.05   -77191.895    7324.4636   -84516.359    908.55224 
   17600    295.67812    103.31322    273816.58   -77173.056    7514.4781   -84687.534    911.06906 
   17650    290.63775    168.42969    274007.24   -77126.659    7386.3801   -84513.039    913.04401 
   17700    294.22749   -69.377777    274818.43   -77112.745     7477.611   -84590.357    916.92042 
   17750    285.23683   -144.04821    275226.49   -77095.866     7249.119   -84344.985    920.22788 
   17800    286.94342   -313.69034    274847.14   -77092.809    7292.4909     -84385.3    923.11594 
   17850    291.04344     -61.4708    274147.97   -77117.949    7396.6904   -84514.639    924.28824 
   17900    286.69729    320.12363    273994.21   -77141.975    7286.2358   -84428.211    924.78513 
   17950    294.16664   -83.197045    274432.51   -77171.113    7476.0646   -84647.178    928.91025 
   18000    293.78671   -570.61722    275168.98   -77229.745    7466.4089   -84696.154    934.78139 
   18050    285.10304   -124.25087    275220.82    -77259.52    7245.7188   -84505.239    937.07327 
   18100    284.11859   -25.479179    274487.84   -77290.371    7220.6997    -84511.07    937.02559 
   18150    286.77614   -42.822404    273557.05   -77319.434    7288.2395   -84607.673    939.05641 
   18200    284.72789    252.35038    273273.42   -77261.603    7236.1847   -84497.788    940.45553 
   18250    286.54886    121.59405     273955.1   -77213.853    7282.4635   -84496.316    945.68078 
   18300    285.74485   -93.799577     275021.8   -77192.003    7262.0301   -84454.033     950.6572 
   18350     286.7792   -468.23286    275493.28   -77185.096    7288.3173   -84473.414    955.72593 
   18400    285.44072    -166.7418    274635.31   -77188.456    7254.3009   -84442.757    956.68099 
   18450    292.13271    348.32091    273744.93   -77215.683    7424.3737   -84640.057     957.8024 
   18500    289.06452    316.40583    273597.92   -77188.099    7346.3975   -84534.496    959.66691 
   18550    292.65987    344.85169    274252.82   -77163.818    7437.7712    -84601.59     962.6087 
   18600    287.33272   -100.96955    275122.12   -77128.415    7302.3849     -84430.8    968.14706 
   18650    288.39366   -147.95258    275064.78   -77146.618    7329.3481   -84475.966    969.90347 
   18700    291.20534    102.99503    274328.12   -77161.169    7400.8052   -84561.975    969.69805 
   18750    289.49288    336.08668    273840.02   -77085.487     7357.284   -84442.771    969.94201 
   18800    287.36091    39.676807    274106.05   -77094.693    7303.1013   -84397.794    972.76423 
   18850    283.47397   -32.901895    274554.11   -77124.923     7204.317    -84329.24    975.61986 
   18900     287.3986    10.647984    274920.29   -77142.962    7304.0591   -84447.021    978.14096 
   18950    287.52271   -342.50856    275085.25   -77169.279    7307.2132   -84476.492    980.93778 
   19000    288.17523   -78.770306    274603.21   -77138.888    7323.7966   -84462.685    982.59753 
   19050    290.35863    26.628115    274160.15   -77118.143    7379.2865    -84497.43    984.68955 
   19100    290.14482    93.640134    274019.89   -77156.617    7373.8526    -84530.47    986.43422 
   19150    288.75199    5.5607396    274237.15   -77122.254    7338.4546   -84460.709    988.53568 
   19200    287.70916    1.4937282    274619.34   -77142.589    7311.9518   -84454.541    992.12263 
   19250    287.69913   -276.24987    274968.63   -77129.353     7311.697    -84441.05    995.73167 
   19300    290.51287   -156.49082    275040.64    -77150.27    7383.2063   -84533.476     998.3999 
   19350    290.07906    17.122771    274656.87   -77181.772    7372.1813   -84553.954    1000.9713 
   19400    291.40329   -202.43023    274335.82   -77201.201    7405.8359   -84607.037    1003.6135 
   19450    284.89258    171.25742    274133.56   -77224.272    7240.3702   -84464.643    1006.8231 
   19500    281.86365    216.05136    274088.85   -77286.992    7163.3918   -84450.384    1008.1972 
   19550    292.06633   -5.2103894    274134.73   -77225.554    7422.6867   -84648.241    1010.3556 
   19600    283.49459    192.01793    274466.16   -77214.213    7204.8412   -84419.054    1013.2641 
   19650    286.79662   -98.923616    274578.47   -77171.797    7288.7602   -84460.557    1016.8318 
   19700    286.58469    25.275831    274487.33   -77123.206     7283.374    -84406.58    1019.2722 
   19750     287.1816    17.865013    274370.67   -77143.124    7298.5441   -84441.669    1022.2552 
   19800    291.59683    222.98911    274413.38   -77167.534    7410.7545   -84578.289    1025.1127 
   19850    290.99813   -38.974449    274622.19   -77146.107    7395.5388   -84541.646    1028.7306 
   19900    285.63541   -159.75823    274827.38   -77082.054    7259.2486   -84341.302    1031.9108 
   19950    291.28516    70.438531    274551.07    -77085.69    7402.8337   -84488.523    1034.9802 
   20000    285.03608    172.11807     274446.1   -77054.337     7244.017   -84298.354    1037.1947 
   20050    289.85199   -157.08383    274449.38   -77093.884    7366.4106   -84460.294    1041.0204 
   20100     288.1491    285.83997    274265.48    -77121.55    7323.1326   -84444.683    1042.1848 
   20150    285.14111   -91.793398    274133.42   -77150.747    7246.6865   -84397.434    1043.2842 
   20200    290.34524    141.65073    273858.46   -77149.422    7378.9461   -84528.368    1044.1016 
   20250    292.35293    250.71522    273962.08   -77175.413    7429.9704   -84605.383    1045.5853 
   20300    288.67821    1.1104164     274493.2   -77154.304    7336.5796   -84490.884    1048.5126 
   20350    286.79886   -173.51317    274858.26   -77146.023     7288.817    -84434.84    1051.7117 
   20400    292.62892   -418.64657    274869.92   -77125.287    7436.9844   -84562.271    1053.8125 
   20450    291.25369    94.728221     274654.8   -77083.761     7402.034   -84485.795    1055.7285 
   20500    289.76886    131.78537    274629.28   -77085.119    7364.2979   -84449.417    1058.6073 
   20550    283.83228    191.01863    274663.02   -77068.089    7213.4232   -84281.513     1059.365 
   20600    293.73028    225.73321    274544.67   -77065.834    7464.9748   -84530.809    1060.6508 
   20650     293.7582   -122.80271     274538.9   -77013.387    7465.6845   -84479.072    1063.6174 
   20700    290.48381   -44.156707    274583.11   -77091.228    7382.4678   -84473.695    1066.1465 
   20750    289.97099    210.49941    274351.03   -77087.248    7369.4348   -84456.683    1067.4895 
   20800    287.34866    245.56253    274119.88   -77070.567    7302.7898   -84373.357    1071.2405 
   20850    292.45686    163.95709    274206.76   -77078.099    7432.6117   -84510.711    1074.1133 
   20900    289.71118    -32.81623     274626.6    -77006.34    7362.8318   -84369.171    1079.0554 
   20950    288.00191   -238.43497    275231.83   -77060.067    7319.3919   -84379.458    1082.1503 
   21000    288.75717     -235.611    275018.68   -77087.786    7338.5863   -84426.372    1082.8267 
   21050    289.60352    424.48736    274200.38   -77038.009    7360.0957   -84398.105    1083.7365 
   21100      292.267    324.67962    273790.37   -77026.085    7427.7865   -84453.872    1085.5307 
   21150    291.95436   -202.17009    274454.67     -77061.3     7419.841   -84481.141    1090.6149 
   21200    287.66045   -17.129437       274772   -77075.553    7310.7139   -84386.267    1095.5921 
   21250    288.52071    -232.9664    274639.08    -77117.03    7332.5768   -84449.607    1097.1019 
   21300    292.87976   -12.546148    274246.34   -77115.545    7443.3594   -84558.904    1097.9986 
   21350    283.81584    165.72621    273908.01   -77173.853    7213.0055   -84386.858    1098.4028 
   21400    292.66079   -211.52639    274142.83   -77174.442    7437.7945   -84612.237    1103.2925 
   21450    283.48285    202.13408    274371.68   -77157.152    7204.5427   -84361.694    1106.8565 
   21500    289.46815   -93.866498    274558.09   -77129.449    7356.6555   -84486.105    1108.8174 
   21550    287.76129     97.39622    274662.06   -77138.844    7313.2767   -84452.121    1110.0834 
   21600    291.47196   -272.16077    274563.49   -77183.492    7407.5811   -84591.073    1112.1729 
   21650    283.95323   -27.774694    274182.89    -77194.58    7216.4972   -84411.077    1112.2676 
   21700    293.71376    248.31743    274029.53   -77174.977    7464.5549   -84639.532    1113.8717 
   21750     289.4896    90.412811    274331.19   -77182.499    7357.2007     -84539.7    1116.8368 
   21800    287.01987   -85.622442    274667.46   -77193.894    7294.4338   -84488.328    1121.0678 
   21850    285.59391   -113.89764    274675.01   -77190.573    7258.1939   -84448.767    1125.0618 
   21900    289.36098   -13.475828    274390.37    -77173.95    7353.9317   -84527.881    1127.2625 
   21950      287.501    156.76841    274403.38   -77188.487    7306.6616   -84495.148    1131.3933 
   22000     286.8121   -112.62416    274799.18   -77135.699    7289.1536   -84424.853     1135.883 
   22050    292.99522    -170.6735    274804.02   -77128.336    7446.2937    -84574.63    1138.2514 
   22100    291.78011   -92.770475    274476.48   -77110.967    7415.4125   -84526.379    1142.0915 
   22150    292.90205    291.26882    273961.02   -77104.068    7443.9259   -84547.994    1143.5611 
   22200    292.30712    388.73321    273892.07   -77089.657    7428.8061   -84518.463     1145.195 
   22250    289.09631    258.67606    274504.24   -77109.946    7347.2054   -84457.151    1150.2032 
   22300    281.53008    19.571743     275031.1   -77133.742    7154.9144   -84288.656    1155.2925 
   22350     287.6246    18.306383    274685.07   -77146.949    7309.8026   -84456.752    1156.4052 
   22400    283.94307    278.68538    273945.54   -77164.365    7216.2389   -84380.604    1156.5754 
   22450    290.28953    236.06718    273829.76   -77144.363    7377.5304   -84521.893    1158.0577 
   22500    289.52639   -77.470074    274306.19   -77068.996    7358.1355   -84427.132    1162.2579 
   22550    284.33374   -72.038113    274947.61   -77102.331    7226.1675   -84328.499    1167.3299 
   22600     291.4181   -266.07983    275097.52   -77127.598    7406.2122    -84533.81    1171.6696 
   22650    294.46598   -238.94719    274770.45   -77113.172    7483.6721   -84596.844    1173.4451 
   22700    285.04151    92.403952    274359.79   -77127.382     7244.155   -84371.537    1175.0075 
   22750    293.63455   -182.86949     274275.1   -77104.854    7462.5421   -84567.396    1178.1549 
   22800    289.74873   -228.19766     274277.5   -77129.176    7363.7863   -84492.962    1182.4468 
   22850    285.97671   -6.0347613    274360.07   -77114.703    7267.9225   -84382.626     1187.071 
   22900    292.18525   -138.90928    274407.55   -77065.278    7425.7088   -84490.986    1188.6639 
   22950    294.26317   -175.69267    274464.47   -77086.007     7478.518   -84564.525    1193.2784 
   23000    291.67279    9.0570352    274120.24    -77152.89    7412.6851   -84565.575    1194.9953 
   23050    287.31709   -29.406798    274092.71   -77137.363    7301.9874    -84439.35    1196.9385 
   23100    288.07389    174.87746    274229.27   -77190.323    7321.2213   -84511.544    1198.7009 
   23150    288.47345    -196.9579    274689.18   -77193.478    7331.3758   -84524.853    1202.4469 
   23200    286.82097   -250.38702    274825.53   -77146.355     7289.379   -84435.734    1205.5709 
   23250    291.05001   -12.921007    274540.14   -77137.651    7396.8575   -84534.509    1207.8953 
   23300    288.18274   -169.11189    274355.45   -77154.299    7323.9876   -84478.287    1208.7373 
   23350    289.22093   -62.629059    274217.99   -77175.219    7350.3725   -84525.591    1210.1851 
   23400    289.54503    54.487545    274101.28   -77157.138    7358.6094   -84515.747    1213.2268 
   23450    289.58202     113.1631    274167.51   -77182.184    7359.5493   -84541.733    1216.4967 
   23500    285.19806    338.35321    274455.66   -77204.171    7248.1338   -84452.305    1219.0999 
   23550    282.28514   -300.87953    274811.41   -77195.672    7174.1035   -84369.776    1223.6341 
   23600     284.0078    -5.438222    274559.91   -77206.369     7217.884   -84424.253    1226.0465 
   23650     285.7294   -69.270818    274093.47   -77233.972    7261.6375    -84495.61    1226.3647 
   23700    285.80133    14.153403    273929.68   -77254.872    7263.4654   -84518.338     1227.451 
   23750    285.88171   -120.71508    274196.95   -77249.225    7265.5083   -84514.734    1228.5189 
   23800    288.17324   -115.93681    274422.82   -77232.622     7323.746   -84556.369    1232.6447 
   23850    284.88174   -18.200699    274549.79   -77194.232    7240.0948   -84434.327    1236.7109 
   23900    285.93907   -269.88598    274572.43   -77205.647    7266.9661   -84472.613    1237.8138 
   23950    283.73026   -71.595268    274136.01   -77240.346    7210.8304   -84451.176    1240.7327 
   24000    288.90387    172.03852    273971.46    -77230.18    7342.3145   -84572.494    1242.6921 
   24050     284.2698    313.24473    274353.64   -77219.124    7224.5426   -84443.666    1246.7767 
   24100    291.76165   -216.51124    274778.29   -77226.353    7414.9433   -84641.296    1251.8959 
   24150    288.21692   -47.766212    274608.23    -77194.61    7324.8561   -84519.466    1253.2018 
   24200     285.4615    155.79425    274281.34   -77200.174    7254.8289   -84455.003    1253.9982 
   24250      289.358    120.75669    274074.49   -77138.303    7353.8561   -84492.159    1255.8736 
   24300    285.80968    37.335801    274282.14   -77165.213    7263.6777   -84428.891    1258.4144 
   24350    286.80731   -180.84825    274740.39   -77202.261    7289.0319   -84491.293    1261.2535 
   24400    284.00397   -96.963287    274847.39   -77203.475    7217.7866   -84421.262    1265.3695 
   24450      289.031    136.57846    274303.05   -77215.631    7345.5455   -84561.177    1264.3122 
   24500    284.65596    313.26725    273802.35   -77215.158    7234.3566   -84449.514    1265.7405 
   24550    285.34172    280.91529    274076.33   -77244.825    7251.7848    -84496.61    1269.4745 
   24600    281.22414    171.81266    274632.75   -77263.937    7147.1389   -84411.076    1275.1866 
   24650    285.11723    -58.44713    274940.72   -77254.242    7246.0796   -84500.321    1278.6942 
   24700    290.76533   -210.30118    275060.87   -77255.601    7389.6224   -84645.223    1283.3705 
   24750    283.85166    32.046169     274450.7   -77236.702    7213.9157   -84450.617     1284.463 
   24800    288.30387    283.44004    273783.36   -77259.175     7327.066   -84586.241    1283.5777 
   24850    287.52878    91.569881    273982.98   -77259.435    7307.3674   -84566.803    1286.4849 
   24900    284.12422    -365.9394    274693.46   -77296.198    7220.8428    -84517.04    1291.3393 
   24950    280.86436   -322.04363    274845.06   -77289.323    7137.9954   -84427.318    1292.4124 
   25000     285.2304    40.583282    274221.72   -77256.026    7248.9556   -84504.981    1293.4107 
   25050    287.16827    204.71087    273762.52   -77236.569    7298.2054   -84534.774    1294.1917 
   25100    284.09245    144.83983    274046.06     -77262.9    7220.0353   -84482.936    1297.3631 
   25150    280.04449    108.74954    274436.48   -77232.608    7117.1589   -84349.767    1299.9969 
   25200    287.98888    22.383793    274724.13   -77197.833    7319.0608   -84516.894    1303.9207 
   25250    284.53341   -164.03099    274584.83   -77187.969     7231.242   -84419.211    1306.4406 
   25300    286.69349   -69.554771    274123.75   -77154.576    7286.1391   -84440.715    1307.7009 
   25350    286.75687    9.0858011    273940.66   -77163.859    7287.7498   -84451.609    1311.0918 
   25400    287.26498    125.85051    274234.88   -77189.423    7300.6633   -84490.086    1315.1459 
   25450    289.56805    27.176436    274726.45   -77217.551    7359.1943   -84576.745    1320.6802 
   25500      284.199   -106.41701    274934.96    -77232.22    7222.7431   -84454.963    1323.9268 
   25550    284.84263   -38.941845    274594.91   -77235.375    7239.1007   -84474.476    1326.2862 
   25600    284.26003   -28.369422    274244.74   -77242.437    7224.2943   -84466.732    1327.9261 
   25650    291.53016    89.302338    273946.92   -77234.635    7409.0601   -84643.695    1330.2984 
   25700    288.09328    126.80249    273910.81   -77198.793    7321.7138   -84520.507    1334.2206 
   25750    281.44754    6.3017053    274218.57   -77213.438    7152.8166   -84366.255    1338.0621 
   25800    287.56828   -139.61467    274473.05   -77193.238    7308.3715   -84501.609    1344.0132 
   25850    283.53452    49.709206    274546.96   -77194.388     7205.856   -84400.244      1347.55 
   25900    289.93181    -258.9605    274524.92   -77231.892    7368.4391   -84600.331    1348.8571 
   25950    284.68381    111.99251    274342.99    -77252.18    7235.0645   -84487.245     1350.769 
   26000    284.89397   -186.96588    274374.39   -77282.376    7240.4054   -84522.782     1354.155 
   26050    285.96007   -32.030037    274325.56   -77288.348    7267.4998   -84555.847    1355.8981 
   26100    284.33368    203.12531    274152.33   -77301.044    7226.1662    -84527.21    1358.5021 
   26150    286.40096   -211.13251    274005.56   -77244.739    7278.7046   -84523.443    1361.7273 
   26200    288.55992    246.44721    273593.26    -77238.19    7333.5735   -84571.763     1362.943 
   26250    284.83231    48.759161    273901.26   -77204.246    7238.8384   -84443.084    1365.5423 
   26300    285.88689   -170.62766    274597.09   -77205.357    7265.6399   -84470.997    1369.2183 
   26350    287.67659   -138.06402    275015.26    -77154.46     7311.124   -84465.584    1372.2883 
   26400    287.76515   -103.01293    274658.79   -77156.067    7313.3746   -84469.442    1372.4492 
   26450    284.97774   -6.3932802    274009.85   -77190.603    7242.5345   -84433.137    1372.0981 
   26500    288.27261    409.32868    273683.72   -77169.532    7326.2715   -84495.803    1372.9806 
   26550    292.68056   -52.864267    274049.87   -77222.247    7438.2968   -84660.544    1376.5897 
   26600    288.64174    9.8787658    274452.42   -77206.663    7335.6528   -84542.316    1380.8139 
   26650    284.44056   -116.57172    274410.59   -77241.401    7228.8823   -84470.283    1383.5346 
   26700    287.33244   -191.21491    274230.12   -77290.322    7302.3777   -84592.699    1385.6186 
   26750    289.06623    227.49954    273948.11   -77320.981    7346.4409   -84667.421    1387.6247 
   26800    282.56041    98.569324    273885.57   -77317.261    7181.0995   -84498.361    1388.6222 
   26850     285.3545   -14.903639    274117.35   -77364.206    7252.1095   -84616.316    1393.1666 
   26900    277.71287    103.25428    274457.26   -77382.019    7057.9021   -84439.921    1394.6215 
   26950    278.08125   -250.46652    274705.17   -77372.614    7067.2643   -84439.878    1396.3702 
   27000    283.64075   -303.39153    274548.85     -77385.5    7208.5555   -84594.056    1398.2876 
   27050    283.06084   -44.859796    273996.39   -77384.941    7193.8177   -84578.759    1398.4014 
   27100     280.5314    184.72159    273893.58    -77419.24    7129.5333   -84548.773    1401.2546 
   27150    285.41074    27.827389    274340.39   -77328.988    7253.5389   -84582.527    1405.5017 
   27200    286.18799   -263.72133     274512.7   -77330.549    7273.2922   -84603.841    1407.4302 
   27250    282.03678    21.029043    274370.06   -77329.603    7167.7918   -84497.395    1410.1804 
   27300    287.74024   -197.81177    274225.27   -77311.412    7312.7416   -84624.153    1412.1879 
   27350    286.20114   -322.71428    274148.33   -77315.299    7273.6265   -84588.925    1413.8831 
   27400    285.46281    356.60339    274015.04   -77285.809    7254.8623   -84540.671    1415.3104 
   27450    284.44608    54.994788    274297.91    -77249.88    7229.0225   -84478.903    1418.2317 
   27500    289.01155    7.4179094    274664.13   -77210.505    7345.0513   -84555.557    1422.3748 
   27550    289.59618    -88.20794    274734.04   -77202.472    7359.9092   -84562.381    1424.8237 
   27600    281.82151   -45.277312    274471.12   -77176.695    7162.3208   -84339.016    1426.7301 
   27650     285.4408     56.81602    274183.42   -77209.493    7254.3028   -84463.796    1430.0572 
   27700    286.99102    188.52417    274085.52   -77214.486    7293.7008   -84508.187    1433.0588 
   27750    286.43651    240.55594    274134.18   -77176.044    7279.6082   -84455.652    1436.3881 
   27800    282.50246    3.1721583    274446.65   -77231.733    7179.6268    -84411.36     1439.359 
   27850    288.34458     8.542562    274607.99   -77202.983    7328.1006   -84531.084    1443.0533 
   27900    290.69901    144.59701     274606.4   -77123.591    7387.9369   -84511.528    1445.3049 
   27950    289.00658   -134.00405    274707.13   -77130.677     7344.925   -84475.602    1448.6179 
   28000    286.99488    199.77285    274510.19   -77137.932    7293.7987   -84431.731    1451.0122 
   28050    290.60795     223.0562    274558.56   -77116.175    7385.6229   -84501.798    1452.4318 
   28100     284.4217    198.52404    274948.32   -77116.133    7228.4029   -84344.536    1454.5307 
   28150    284.83397   -298.56314    275362.25    -77142.15    7238.8806   -84381.031    1457.4843 
   28200    291.67542   -170.33652    275015.26   -77173.391    7412.7519   -84586.143    1460.8021 
   28250    290.60577    33.030897    274303.83   -77121.793    7385.5674    -84507.36    1460.0666 
   28300    289.48928    390.21924    273818.34   -77134.595    7357.1924   -84491.787    1462.2574 
   28350     289.3998   -134.13854    274151.41   -77161.807    7354.9184   -84516.726    1467.7163 
   28400    285.98547   -127.25138    274630.07   -77150.842    7268.1454   -84418.987    1472.9166 
   28450    290.04825    115.43775    274746.87   -77149.362    7371.3984   -84520.761    1478.1551 
   28500    289.82018    96.144208    274632.07   -77100.868    7365.6021    -84466.47    1480.9315 
   28550    291.67711    58.595915    274203.42   -77067.793    7412.7949   -84480.588    1481.2185 
   28600    286.64086    349.82242    273991.35   -77024.743    7284.8017   -84309.545    1483.1589 
   28650    289.88064    218.68687     274216.4   -77037.056    7367.1387   -84404.194    1486.6665 
   28700    289.64888   -146.39148    274732.03   -76999.668    7361.2485   -84360.916    1490.6351 
   28750    295.87907   -37.848161    274776.12    -77037.26     7519.585   -84556.845    1492.5887 
   28800    290.98604   -231.28847    274513.95   -77114.982    7395.2316   -84510.214    1492.0713 
   28850    293.73675    -122.3337    274256.38   -77137.013    7465.1394   -84602.152    1492.9641 
   28900     283.7125     46.61825    274198.29   -77133.845    7210.3791   -84344.224    1496.1754 
   28950    288.31038   -135.02807    274545.58   -77145.404    7327.2315   -84472.635    1501.0536 
   29000    284.17522   -129.00119    274696.18   -77182.885    7222.1388   -84405.024    1502.2054 
   29050    289.57293    113.93252    274493.34   -77185.241    7359.3183   -84544.559    1504.8702 
   29100    288.77096   -68.349528    274231.58   -77167.221    7338.9368   -84506.157    1507.9417 
   29150    288.03715    153.42615    274110.25   -77185.455    7320.2874   -84505.742    1510.7804 
   29200    287.51127    154.38812    274410.82   -77176.497    7306.9225    -84483.42    1515.5549 
   29250    288.59656   -1.6061368    274874.09   -77130.985    7334.5045    -84465.49    1521.4277 
   29300    290.71034    -595.9445    274959.29    -77178.36     7388.225   -84566.585    1525.3954 
   29350    286.63515   -5.9528633    274146.33   -77202.661    7284.6566   -84487.318    1526.7004 
   29400    291.12789    465.91969    273600.96   -77229.647    7398.8366   -84628.483     1525.731 
   29450    282.42465    167.27115    274195.64   -77235.562    7177.6493   -84413.211     1530.162 
   29500    285.55204   -247.11944     274842.8   -77243.164    7257.1298   -84500.294    1534.0717 
   29550    288.14143     58.53247    274715.74   -77207.868    7322.9376   -84530.806    1535.4065 
   29600    285.74845    71.547522    274146.09   -77180.994    7262.1216   -84443.116    1536.4884 
   29650    290.98147    418.75089    273560.99   -77165.226    7395.1155   -84560.341     1537.264 
   29700    289.48482    17.892219    273881.62   -77199.445    7357.0792   -84556.524    1540.3021 
   29750    289.71155   -125.35141    274637.05    -77183.35    7362.8412   -84546.191    1545.7709 
   29800    289.58511   -715.39879    275128.84   -77159.659     7359.628   -84519.287     1552.339 
   29850    288.61739    154.98632    274670.42   -77152.615    7335.0338   -84487.649    1553.6099 
   29900    286.00108    116.34467    274300.44   -77109.382    7268.5421   -84377.924    1553.4707 
   29950    287.64097   -251.18051    274232.62   -77100.991    7310.2187    -84411.21    1556.9685 
   30000    291.36779    67.430377       274235   -77139.038    7404.9336   -84543.972    1558.9639 
   30050    290.72134   -123.27252    274420.47   -77164.342    7388.5046   -84552.846    1562.0474 
   30100    290.68068   -94.001012    274586.74   -77127.546    7387.4711   -84515.017    1564.4081 
   30150    289.75198   -325.07948    274701.69   -77122.846    7363.8687   -84486.715    1566.4736 
   30200    286.59447    46.918181    274586.27   -77119.375    7283.6227   -84402.998    1568.4879 
   30250     288.0581    259.17186    274394.45   -77127.362    7320.8199   -84448.182    1570.6462 
   30300    285.97538    163.11347    274254.38   -77103.087    7267.8889   -84370.976    1573.3145 
   30350    286.38764    310.96197    274523.03   -77123.595    7278.3661   -84401.961     1576.409 
   30400    284.35841   -338.02594    275186.54   -77196.558    7226.7945   -84423.352    1581.6849 
   30450    283.16183   -109.14835    275150.24   -77208.281    7196.3841   -84404.665    1583.7939 
   30500    289.15543    1.3008096    274363.66   -77161.695    7348.7078   -84510.402    1582.9462 
   30550    288.42303    52.672379    273531.54   -77156.885    7330.0943   -84486.979    1580.7587 
   30600    288.74987    197.52684    273629.09   -77195.406    7338.4009   -84533.807    1584.0565 
   30650    284.80166    122.54233    274403.03   -77219.656    7238.0594   -84457.716     1591.174 
   30700    289.83631   -401.38364    275111.56   -77217.502     7366.012   -84583.514    1596.6939 
   30750     286.4445   -349.17674     274922.1   -77246.601    7279.8112   -84526.413    1597.6178 
   30800    284.07598   -64.088563    274005.08   -77287.947    7219.6168   -84507.564    1593.8542 
   30850    289.89677    94.035432    273521.49   -77310.222    7367.5486    -84677.77    1593.1436 
   30900    281.82966    141.38007    273759.96   -77284.805    7162.5279   -84447.333    1595.0111 
   30950    288.88184   -64.653044    274029.89   -77308.637    7341.7547   -84650.392    1598.6422 
   31000    284.28951   -100.08506    274147.46    -77306.29    7225.0434   -84531.334    1601.5593 
   31050    284.65557   -79.134075    274443.69   -77289.538    7234.3467   -84523.885     1604.532 
   31100    289.51367   -216.75719    274484.39   -77263.854    7357.8123   -84621.666    1607.5534 
   31150    285.57406   -96.465862    274151.91   -77225.475    7257.6895   -84483.164    1609.4303 
   31200    287.87024    170.04279       273564   -77215.535    7316.0456   -84531.581    1610.5189 
   31250    286.20009    320.07478    273406.87   -77215.951    7273.5997   -84489.551    1610.1859 
   31300    285.32434    306.13205    273933.19   -77213.066     7251.343   -84464.409    1615.7199 
   31350    282.26892    -80.99834    274826.13   -77234.083    7173.6914   -84407.775     1621.315 
   31400    286.42527   -362.58271    275070.37   -77255.834    7279.3224   -84535.157    1623.3621 
   31450    283.47472    102.46941    274290.48   -77240.852    7204.3361   -84445.188    1621.2545 
   31500    289.36087    99.922392    273549.78   -77239.412    7353.9291   -84593.341    1619.0009 
   31550    287.49063    379.35471    273645.49    -77262.58    7306.3979   -84568.978     1621.762 
   31600    284.12383    77.381267    274430.21   -77280.181    7220.8329   -84501.013    1627.4637 
   31650      281.739   -197.00573     275063.7    -77218.56    7160.2238   -84378.783    1632.0701 
   31700    286.93291   -99.457024    274576.34   -77229.812    7292.2239   -84522.036    1632.0121 
   31750    284.80624   -63.044144    273903.93   -77224.991    7238.1759   -84463.167    1632.8253 
   31800    289.81109     287.4324    273782.04    -77230.73     7365.371   -84596.101    1633.2393 
   31850    285.93384    104.10919     274420.9   -77269.841    7266.8332   -84536.674    1635.6294 
   31900     284.4796   -7.8359399    274714.55   -77294.273    7229.8745   -84524.148     1639.774 
   31950     285.8746    184.31124    274528.27   -77264.002    7265.3275   -84529.329    1641.7377 
   32000    283.63768   -172.47093     274276.4   -77281.331    7208.4776   -84489.808     1643.611 
   32050    284.10151    223.32824    273936.14   -77295.787    7220.2656   -84516.053    1646.1496 
   32100     282.8615    63.247341    274203.85   -77276.261    7188.7514   -84465.012    1651.1029 
   32150    283.45731   -71.837633    274396.76   -77306.252    7203.8937   -84510.146    1655.9307 
   32200    284.57855    -222.0756    274349.31   -77280.025    7232.3893   -84512.415    1658.3393 
   32250    284.60817    45.320795    274255.28   -77258.133    7233.1419   -84491.275    1659.8972 
   32300    285.59812   -28.270334    274310.07   -77279.465     7258.301   -84537.766     1664.334 
   32350    284.08902   -116.67321    274592.63   -77272.763    7219.9482   -84492.711    1668.1505 
   32400    284.64659   -85.326674    274463.66   -77274.258    7234.1184   -84508.376    1670.9986 
   32450    279.12073   -122.54116    274143.93   -77308.382    7093.6822   -84402.064     1672.055 
   32500    285.93673   -11.561523    273866.02   -77284.748    7266.9067   -84551.655    1674.9502 
   32550    286.94257    246.26202    273795.68   -77302.555    7292.4694   -84595.024    1676.9176 
   32600     283.1603    122.53992    274275.32   -77248.285    7196.3452    -84444.63    1681.8784 
   32650    284.18464   -169.37857    274939.02   -77248.295    7222.3782   -84470.673    1686.3053 
   32700    284.53771   -177.82153    274972.44   -77257.199    7231.3512   -84488.551    1691.1034 
   32750    287.75944   -250.69979    274526.34   -77243.336    7313.2297   -84556.566    1693.6662 
   32800    285.60168    114.34956     273907.7   -77262.526    7258.3915   -84520.917    1693.7164 
   32850     284.9496      324.287    273857.57   -77252.015    7241.8193   -84493.834     1696.431 
   32900     286.9388   -158.98594    274194.45   -77273.948    7292.3737   -84566.322    1701.6733 
   32950     289.0628    366.25363    274589.27   -77320.727    7346.3538   -84667.081    1706.5876 
   33000    285.96145    24.675334    274872.18   -77260.511    7267.5347   -84528.046    1710.4277 
   33050    285.92238   -140.67125    274800.48   -77268.158    7266.5418     -84534.7    1712.7695 
   33100    290.03581   -52.041679    274246.25   -77290.361     7371.082   -84661.443    1711.6359 
   33150    285.07723   -101.51826    273834.58   -77297.501    7245.0629   -84542.564    1711.5051 
   33200    281.82678    126.81007     273623.6   -77321.757    7162.4547   -84484.212    1711.4946 
   33250    283.91495    26.866913    273836.14   -77328.382    7215.5242   -84543.906    1713.7372 
   33300    283.86906   -102.06832    274264.05   -77311.307    7214.3579   -84525.665     1719.679 
   33350     283.1396    57.953045    274511.85   -77345.601    7195.8192    -84541.42    1724.4108 
   33400    286.41437   -157.96682    274455.78   -77310.896    7279.0456   -84589.941    1727.2135 
   33450    283.25356   -149.94982     274193.5   -77290.136    7198.7156   -84488.852    1728.3494 
   33500    282.42748    77.576164     273959.1    -77319.49    7177.7212   -84497.211    1729.6785 
   33550    284.89501    2.2337656     274098.5   -77303.289    7240.4319   -84543.721    1731.6013 
   33600    289.11351    95.256945    274254.68   -77317.481    7347.6425   -84665.124    1735.0834 
   33650    285.03204   -33.962693    274537.38   -77318.385    7243.9143   -84562.299    1739.1325 
   33700    287.84743    -129.1614    274645.71   -77279.736    7315.4659   -84595.202    1743.0749 
   33750    288.25787   -119.43169    274324.23   -77254.129    7325.8969   -84580.026    1745.7498 
   33800    287.73251    255.47624    273909.73   -77272.646    7312.5452   -84585.191    1746.2983 
   33850    282.64688    170.27706    274030.51   -77277.959    7183.2971   -84461.256    1751.0072 
   33900     285.5507   -57.604752    274310.11   -77296.078    7257.0958   -84553.174    1754.3554 
   33950    286.72032    239.88808    274217.32   -77306.476    7286.8209   -84593.297     1756.792 
   34000     291.4111     149.1956    274218.17   -77274.977    7406.0343   -84681.011    1758.4275 
   34050    281.24424   -107.72586    274401.72   -77287.596    7147.6498   -84435.246    1761.5137 
   34100    287.14082   -46.761284     274317.7   -77314.528    7297.5078   -84612.036    1761.8699 
   34150    284.23811    266.14272    274136.14   -77316.964    7223.7372   -84540.702    1762.4581 
   34200    287.10865    135.80329    274059.97   -77325.902    7296.6902   -84622.592    1763.1211 
   34250    289.33538   -178.22219    274288.39   -77318.853    7353.2811   -84672.134    1766.9499 
   34300    281.83565   -81.615121    274469.82   -77273.056    7162.6801   -84435.736    1769.8213 
   34350    290.39932   -254.05448    274302.42   -77291.723    7380.3206   -84672.044    1770.5925 
   34400    284.13811   -94.855258    274197.32   -77332.108    7221.1958   -84553.304    1768.6564 
   34450    286.92277   -73.569244    274422.88   -77293.523    7291.9663    -84585.49    1771.9609 
   34500    284.55029   -207.94318    274556.68   -77328.205     7231.671   -84559.876    1773.5101 
   34550    282.44733   -254.35211    274588.14   -77370.328    7178.2255   -84548.554     1774.366 
   34600    282.97991   -46.155922     274151.2   -77407.602    7191.7607   -84599.363    1774.5746 
   34650     284.4644    316.56196    273901.56   -77376.114    7229.4882   -84605.602     1777.303 
   34700    283.59697    183.15604     273917.7   -77349.642    7207.4431   -84557.085    1780.6042 
   34750    287.90032    32.377559    273835.13   -77376.389    7316.8101   -84693.199    1781.8559 
   34800    285.74504    183.06704    273935.22   -77340.843    7262.0348   -84602.878    1785.9306 
   34850    285.10521    72.673774    274370.05   -77376.563    7245.7741   -84622.337    1790.3165 
   34900    283.26617    136.79332    274660.67   -77378.688    7199.0359   -84577.724    1795.3098 
   34950    283.44154   -51.912708     274682.4    -77329.51    7203.4929   -84533.003    1797.8743 
   35000    284.73959    62.768195    274209.81   -77322.334    7236.4821   -84558.816    1799.8686 
   35050     287.2525    310.90297     273913.7   -77313.802    7300.3461   -84614.148    1800.7722 
   35100    282.88708    28.274925    274148.76   -77341.684    7189.4015   -84531.085    1804.7229 
   35150    279.15276    54.075229       274437    -77349.94     7094.496   -84444.436    1810.6202 
   35200    281.52806   -133.81988    274557.87    -77344.52    7154.8629   -84499.383    1813.9782 
   35250    282.76921   -119.02457     274440.2   -77303.647    7186.4059   -84490.053    1815.8151 
   35300    281.97327    8.8189123    274165.63   -77271.155    7166.1776   -84437.333    1816.1168 
   35350     284.5027    87.391198    274046.47   -77250.586    7230.4617   -84481.048    1816.4404 
   35400    281.53112   -58.108171     274312.3   -77291.234    7154.9407   -84446.175    1821.2786 
   35450    284.04492    127.13186    274301.44   -77266.138    7218.8274   -84484.965    1822.0017 
   35500    287.46665     78.55132    274322.42   -77237.836    7305.7886   -84543.625    1824.2829 
   35550    284.91785   -210.02957    274465.41   -77274.861    7241.0124   -84515.873    1828.8301 
   35600    286.64393    90.042139    274622.62   -77186.301    7284.8796   -84471.181    1831.3231 
   35650    290.49243    58.667262    274740.16   -77176.922    7382.6869   -84559.609    1832.7582 
   35700    281.89781    74.433477     274690.6   -77225.441    7164.2599     -84389.7    1835.1323 
   35750    288.06902   -119.15425    274428.46   -77218.762    7321.0974    -84539.86     1836.956 
   35800    287.93083    104.83296    273961.79   -77238.668    7317.5854   -84556.254    1836.4038 
   35850    287.41841    182.55274    273791.63   -77214.475    7304.5626   -84519.037    1837.1132 
   35900    287.74288   -205.78708    274364.94    -77217.21    7312.8087   -84530.019    1840.5635 
   35950    284.58723   -158.15539    274757.06   -77219.523    7232.6098   -84452.133    1843.9043 
   36000    285.21158   -158.41647    274494.62   -77246.484    7248.4772   -84494.961    1847.0239 
   36050    284.01505    34.067313    274000.61   -77280.052    7218.0684    -84498.12    1848.6148 
   36100    285.80307    396.99505    273640.56   -77253.414    7263.5097   -84516.924    1846.8617 
   36150    283.66686    177.62737    274019.95   -77245.418    7209.2193   -84454.637    1850.2776 
   36200    285.61919   -121.38621    274593.51    -77253.02    7258.8364   -84511.856    1855.6592 
   36250    286.87798   -122.54167    274715.24    -77236.49     7290.828   -84527.318    1858.8027 
   36300    288.26267   -89.280404    274589.23   -77283.786    7326.0189   -84609.804    1859.5775 
   36350    283.35805    30.737602    274185.82   -77216.392    7201.3709   -84417.763    1860.1296 
   36400    287.81325    65.032358    273796.54   -77272.163    7314.5971    -84586.76    1860.3906 
   36450    288.52368   -50.390137    273731.84   -77238.707    7332.6523   -84571.359    1863.1637 
   36500    285.17139    326.45834    273908.21    -77238.71     7247.456   -84486.166      1865.59 
   36550    287.74564    103.14816    274519.55   -77213.707     7312.879   -84526.586     1869.593 
   36600    285.89625   -190.48455    275016.95   -77192.654    7265.8778   -84458.532    1873.8329 
   36650    287.47501   -182.41645     274812.8   -77214.098    7306.0009   -84520.099    1872.9145 
   36700    292.32956   -52.139255    274265.18   -77210.086    7429.3765   -84639.462    1872.0133 
   36750    286.69503    171.08905    274048.29   -77238.374    7286.1783   -84524.552    1873.3023 
   36800    284.10217    187.57023    274143.45   -77195.782    7220.2823   -84416.065    1878.1112 
   36850    289.58003   -9.2676555    274344.33   -77209.677    7359.4989   -84569.175    1879.4241 
   36900    288.34007   -158.51487    274606.61   -77214.502    7327.9861   -84542.489    1882.6394 
   36950    287.88954    -124.1233    274742.91   -77250.395    7316.5359   -84566.931    1884.0223 
   37000    284.78263   -75.232105    274424.15   -77268.066    7237.5758   -84505.642    1884.1003 
   37050    287.15206    92.028935    274096.14   -77283.022    7297.7934   -84580.816     1885.678 
   37100    285.56561     288.3567    274002.94   -77234.172    7257.4747   -84491.647    1889.1778 
   37150    284.91579    219.89589    274328.51   -77248.333    7240.9601   -84489.293    1892.3749 
   37200    286.61977   -168.39515     274597.9   -77260.795    7284.2657    -84545.06    1896.9077 
   37250    285.14679   -134.93665    274408.75   -77256.906    7246.8308   -84503.736    1897.3736 
   37300    288.84826    27.250805    274109.68   -77273.197    7340.9014   -84614.098    1899.4506 
   37350    286.99472   -68.395892    273955.36   -77263.599    7293.7947   -84557.393    1899.5572 
   37400    281.36379    22.732442    274281.36   -77251.081     7150.688   -84401.769    1902.5812 
   37450    288.55301   -327.31199     274634.4   -77253.664    7333.3977   -84587.062    1906.3843 
   37500    284.74646   -92.361918    274756.95   -77256.465    7236.6565   -84493.122    1910.1432 
   37550    287.32752    186.12105    274741.31   -77248.549    7302.2526   -84550.801    1912.1503 
   37600    277.83411    62.344662     274554.5   -77255.625    7060.9835   -84316.608    1915.4046 
   37650    286.42732   -2.7567758    274265.84   -77247.132    7279.3746   -84526.507    1917.2192 
[...]
   90850    293.15811   -238.62976    274891.28   -77082.036    7450.4334    -84532.47    4357.0045 
   90900    286.03621    -194.9305    274960.02   -77086.381    7269.4347   -84355.815    4361.8428 
   90950    287.38127    1.5939709    274591.16   -77118.264    7303.6186   -84421.882    4359.9593 
   91000     289.8804     133.1019    274155.02   -77098.243    7367.1326   -84465.376      4358.74 
   91050    288.65417    429.09125    274059.18   -77127.533    7335.9688   -84463.502    4361.6235 
   91100    287.78685    61.854941    274504.82   -77077.641    7313.9263   -84391.568    4368.5324 
   91150    289.00011   -142.61124    275065.37   -77092.989    7344.7604    -84437.75    4374.2748 
   91200    291.19832   -338.73891    275213.01   -77118.864    7400.6267   -84519.491    4377.6821 
   91250    282.84823    116.14251    274752.91   -77126.279    7188.4143   -84314.694    4372.4604 
   91300    288.49585     228.6437    274149.76   -77122.447     7331.945   -84454.392    4372.8786 
   91350    292.02458    19.505998    273909.08   -77138.539    7421.6256   -84560.164    4374.7458 
   91400    289.88577    196.62943    274276.51   -77173.397    7367.2691   -84540.666    4383.6892 
   91450    283.14737   -290.59815    275043.48   -77187.418    7196.0166   -84383.435     4398.075 
   91500    286.11593   -45.776287    275013.05   -77189.072    7271.4607   -84460.532    4401.0848 
   91550    284.12093     297.3681    274191.59   -77174.117    7220.7592   -84394.876    4397.3151 
   91600     288.2191    215.32194    273712.94   -77202.666    7324.9116   -84527.578    4395.9823 
   91650    285.66686    152.19091    273938.91    -77261.78    7260.0481   -84521.828    4400.8438 
   91700    285.05088   -40.938846    274635.33   -77277.902    7244.3932   -84522.296    4410.2107 
   91750    283.97236   -297.04709    275183.44   -77229.246    7216.9833    -84446.23    4419.0156 
   91800    284.65681    27.796491    274733.71   -77227.373    7234.3782   -84461.751    4418.1905 
   91850    287.00514    37.637041    274081.22   -77256.588    7294.0596   -84550.647    4413.2826 
   91900    285.63173    121.18799    274075.43   -77231.824    7259.1553   -84490.979    4415.2876 
   91950    288.03156   -11.634827    274712.98   -77296.082    7320.1455   -84616.228    4425.5014 
   92000    283.65025    10.299995    274863.66   -77253.498    7208.7972   -84462.295    4428.9141 
   92050    284.48872   -80.642135    274469.71   -77305.347    7230.1064   -84535.453    4429.0862 
   92100    285.97465    217.33712    273786.62   -77238.882    7267.8702   -84506.752    4424.1935 
   92150    288.66125     312.4125    273840.72   -77234.842    7336.1485    -84570.99    4425.6464 
   92200    288.40462   -122.47579    274629.89   -77226.451    7329.6265   -84556.077    4437.8894 
   92250    288.15403   -223.80889    275005.32   -77209.051     7323.258   -84532.309    4445.4219 
   92300    286.34929   -22.230019     274618.4   -77214.441    7277.3915   -84491.832    4441.8723 
   92350    285.08875   -42.574711    274008.37   -77227.194    7245.3558    -84472.55     4438.525 
   92400    287.09801    97.416629    273790.66   -77235.258    7296.4198   -84531.678    4440.3396 
   92450    282.79422   -60.656344    274194.25   -77220.504    7187.0415   -84407.545    4445.8595 
   92500    288.68449   -69.104902     274850.8   -77247.011    7336.7393    -84583.75    4451.6317 
   92550      285.278   -449.87521    275118.45   -77254.882    7250.1653   -84505.047    4454.8228 
   92600    283.76906    82.508121    274686.36   -77284.814    7211.8165   -84496.631     4451.743 
   92650    284.95453    348.12219    274094.89   -77273.878    7241.9447   -84515.823    4445.0917 
   92700    289.24107    52.383369    273902.91    -77265.15    7350.8844   -84616.034    4447.1922 
   92750    283.86042   -49.601693    274027.92   -77318.202    7214.1384    -84532.34    4455.6002 
   92800    282.42432      117.403    274048.37    -77302.49    7177.6408   -84480.131    4458.0779 
   92850    285.22894    2.1901925    273982.79   -77288.379    7248.9184   -84537.297    4459.5117 
   92900    283.94926    192.08253    273956.75   -77301.202    7216.3962   -84517.598    4463.4256 
   92950     284.1605   -125.20127    274373.41    -77291.14    7221.7647   -84512.905    4469.7188 
   93000    284.37876   -199.25046    274641.71   -77258.608    7227.3117   -84485.919    4475.7769 
   93050    284.79818    110.70094    274441.79   -77233.618     7237.971   -84471.589    4472.3687 
   93100    286.63647     7.577001    274283.61   -77199.427    7284.6901   -84484.117    4473.2585 
   93150    284.04157    139.53753    274250.45   -77217.325    7218.7422   -84436.067    4476.5361 
   93200    287.41894    81.960042    274385.65   -77193.782    7304.5761   -84498.358    4482.5401 
   93250    292.44125   -195.93038    274516.35   -77174.665     7432.215    -84606.88    4487.6921 
   93300    286.57126   -124.51634    274589.46   -77197.307    7283.0328   -84480.339    4492.5572 
   93350    282.64053    325.11763    274581.89   -77232.401    7183.1358   -84415.537     4495.308 
   93400    288.63449    23.753871    274529.75   -77246.881    7335.4685   -84582.349    4494.1962 
   93450    282.83378    131.69104    274427.89   -77239.103    7188.0471    -84427.15    4497.8269 
   93500    284.84502     404.0945    274367.08   -77228.923    7239.1615   -84468.085    4498.4213 
   93550    287.01291   -320.73285    274650.93   -77216.976    7294.2571   -84511.233     4503.452 
   93600    290.84657   -164.26607    274747.61    -77186.54    7391.6872   -84578.227    4505.7726 
   93650    289.35589    69.715025       274389   -77192.963    7353.8024   -84546.765    4503.0507 
   93700    285.96892    110.05616    273915.69   -77188.664    7267.7247   -84456.389    4500.9463 
   93750    285.54252   -12.299853    273948.57   -77174.555    7256.8881   -84431.443    4499.9183 
   93800     286.6741    90.959664    274279.75   -77167.024    7285.6464   -84452.671    4507.6071 
   93850    285.10686    61.789924    274870.33   -77170.259     7245.816   -84416.075    4515.8529 
   93900    284.05353   -382.48827    275236.96   -77154.843    7219.0461   -84373.889    4520.7941 
   93950    289.23015   -62.591327    274767.55     -77155.5    7350.6069   -84506.107    4520.5655 
   94000    284.68641   -57.477946    274413.38   -77142.693    7235.1306   -84377.823    4520.5366 
   94050    289.63642    51.199227    274402.97   -77110.465    7360.9319   -84471.397    4520.9667 
   94100    291.05158   -237.59383    274634.17   -77130.241    7396.8974   -84527.138    4525.6515 
   94150    287.96809    104.27302    274689.53   -77122.391    7318.5323   -84440.923     4528.549 
   94200    289.26381   -75.012082    274447.01   -77116.608    7351.4623    -84468.07    4532.0666 
   94250    287.05767    161.68424    274529.23    -77086.09    7295.3946   -84381.484    4533.1883 
   94300    285.38583    112.89147     274537.7   -77064.522    7252.9058   -84317.427    4537.9049 
   94350    291.01276   -189.93271    274243.02   -77084.392    7395.9107   -84480.303    4536.6881 
   94400    290.96107    203.89601    274077.28   -77108.763     7394.597    -84503.36    4539.8022 
   94450    290.82159    165.87607    274435.87    -77111.34    7391.0523   -84502.392    4549.8867 
   94500    288.44264    -136.5976    274723.08   -77087.489    7330.5926   -84418.082    4559.3757 
   94550    288.79803   -97.467212    274734.18   -77120.174    7339.6247   -84459.799    4561.6158 
   94600    288.34734    150.15884    274330.58   -77107.638    7328.1707   -84435.809    4557.5427 
   94650    292.04254   -38.355043     274240.2    -77083.46    7422.0821   -84505.543    4558.5534 
   94700    288.84649    122.85501    274339.59   -77042.919    7340.8563   -84383.776     4562.068 
   94750    284.01414     145.7462     274518.7   -77092.379    7218.0451   -84310.424    4566.0233 
   94800    290.11184    -75.17819    274560.74   -77100.607    7373.0144   -84473.622    4568.8381 
   94850    290.61764    171.81762    274335.83   -77116.818    7385.8691   -84502.688    4569.5368 
   94900    288.91143   -165.69162    274384.57   -77120.983    7342.5068   -84463.489    4573.5955 
   94950    289.79855    -26.95424    274175.79   -77162.319    7365.0522   -84527.371    4572.4171 
   95000    292.87044   -247.23014    274112.07   -77177.203    7443.1225   -84620.326    4575.6222 
   95050    290.11715    132.12528    274337.23    -77143.51    7373.1493   -84516.659    4579.2852 
   95100    288.08319   -301.23963     274879.3   -77159.568    7321.4576   -84481.026    4586.7189 
   95150    286.64571   -69.036835    274841.12   -77166.298    7284.9249   -84451.223    4590.8114 
   95200    289.19013   -32.099674    274494.41   -77175.649    7349.5896   -84525.238    4590.2885 
   95250    289.44993    118.11384    274353.25   -77164.937    7356.1924    -84521.13      4591.35 
   95300    282.37457   -23.651874     274496.4   -77215.915    7176.3765   -84392.292    4598.5404 
   95350    288.27963    -160.8135    274634.95   -77235.135    7326.4499   -84561.584    4600.7758 
   95400     288.3032    -344.5894    274734.34   -77185.854    7327.0489   -84512.903     4603.615 
   95450    285.27531     261.1105     274344.6   -77201.446    7250.0971   -84451.543    4599.3818 
   95500    287.78005    110.97776     274296.4   -77199.325    7313.7533   -84513.079    4598.2027 
   95550    287.22982    182.37906    274482.65   -77210.913    7299.7696   -84510.682    4600.5266 
   95600    284.22877    38.727149    274488.62   -77210.081    7223.4997    -84433.58    4604.6705 
   95650    288.36281   -92.106749    274049.54   -77246.663    7328.5638   -84575.226    4601.7596 
   95700    282.77943     30.02919    274151.04   -77232.889    7186.6657   -84419.555    4608.2691 
   95750     289.4085   -117.05511    274524.78   -77225.157    7355.1395   -84580.297    4614.8358 
   95800    288.06298    151.61867    274201.33   -77255.048    7320.9439   -84575.992     4614.837 
   95850    289.93955   -76.028919    274108.11   -77238.771    7368.6359   -84607.407    4618.8824 
   95900    287.23569   -85.137673    274358.07   -77243.869    7299.9187   -84543.788    4622.6769 
   95950    287.25975   -134.89551    274528.54   -77235.166    7300.5302   -84535.696    4625.4495 
   96000    287.97835   -164.74308    274499.74   -77239.952    7318.7931   -84558.745    4628.5768 
   96050    282.72397    113.28571    274517.14   -77210.043    7185.2562   -84395.299    4629.9901 
   96100    287.29635   -66.409796    274626.16   -77146.868    7301.4606   -84448.328    4634.5452 
   96150    282.37256    49.189643    274770.85   -77172.325    7176.3253   -84348.651    4640.7893 
   96200    290.58222   -63.026454    274522.51   -77129.989    7384.9688   -84514.958    4640.8209 
   96250    292.57167    71.571521    274277.86   -77129.314    7435.5294   -84564.844    4641.3971 
   96300    290.45598   -131.83317    274310.55   -77129.561    7381.7605   -84511.322    4642.9511 
   96350    288.49056    56.471823    274114.38   -77139.625    7331.8107   -84471.435     4642.573 
   96400    285.18063    50.322722    274134.27   -77176.341    7247.6907   -84424.031    4642.5977 
   96450    287.00769   -151.90573    274486.53   -77140.186    7294.1243    -84434.31    4646.4241 
   96500    290.05252   -400.20613     274667.2   -77144.429    7371.5067   -84515.936    4651.0902 
   96550    290.96994    54.154899    274545.45   -77133.882    7394.8225   -84528.705    4653.7381 
   96600    286.45603    -68.63733    274859.79   -77128.019    7280.1042   -84408.123    4658.8953 
   96650    285.99893    -75.71287    275037.88   -77164.072    7268.4872   -84432.559     4666.373 
   96700    288.68593   -137.68911    274626.25   -77169.496    7336.7759   -84506.272    4661.4714 
   96750    293.63764    192.45165    274073.04   -77161.199    7462.6205    -84623.82    4658.1796 
   96800    286.17546    349.43109    273920.08   -77161.619    7272.9738   -84434.593    4658.6215 
   96850    286.30739   -29.684022    274313.24   -77208.434    7276.3268   -84484.761    4668.5743 
   96900    287.76893    121.54577    274704.84   -77159.532    7313.4707   -84473.003    4678.8127 
   96950    286.87028   -376.65647    274892.98   -77169.514    7290.6322   -84460.146    4683.8906 
   97000     289.7193    13.037886     274469.2   -77178.427    7363.0383   -84541.465    4676.9603 
   97050    289.16002   -182.56258    273849.36   -77166.291    7348.8244   -84515.116    4669.5931 
   97100     286.8594    384.22949     273506.2    -77206.83    7290.3558   -84497.186    4669.4864 
   97150     290.6278    117.95804    273989.38   -77217.807    7386.1272   -84603.935    4673.9367 
   97200     286.9538   -213.71741    274902.61   -77204.191    7292.7547   -84496.945     4686.526 
   97250    285.87981   -146.97578    275238.71   -77203.058      7265.46   -84468.518     4691.216 
   97300     288.5581   -92.476547    274483.19   -77228.923     7333.527    -84562.45    4685.0166 
   97350    291.27185    91.141436    273687.26   -77249.588    7402.4954   -84652.084    4679.3126 
   97400    284.52792    53.888746    273741.21   -77270.643    7231.1025   -84501.745    4679.8351 
   97450     281.9192      223.829    274235.73   -77287.455    7164.8034   -84452.258    4685.2901 
   97500    285.33073   -62.988559    274791.65   -77285.955    7251.5054    -84537.46    4697.6143 
   97550    288.34039   -198.77623    274896.13       -77252    7327.9941   -84579.995    4702.3787 
   97600    285.56467    419.29765    274297.82   -77224.086     7257.451   -84481.537    4700.6309 
   97650    286.24118   -85.131944    274046.89   -77211.774    7274.6439   -84486.418    4700.2961 
   97700    284.15178    207.03381    273833.06   -77206.899    7221.5432   -84428.442    4699.9487 
   97750    288.88577    41.017294    274216.29   -77208.001    7341.8546   -84549.856    4706.1032 
   97800    285.55008   -166.59481    274729.38   -77239.476      7257.08   -84496.556    4712.0375 
   97850    284.19674    20.448796    274984.58   -77266.737    7222.6858   -84489.422    4715.9667 
   97900    287.07609   -40.746457    274705.54   -77314.064    7295.8628   -84609.927    4715.2297 
   97950    287.18146    89.088057    274086.61    -77271.58    7298.5405   -84570.121    4708.1782 
   98000    290.08424     -51.2801    274012.49   -77290.361     7372.313   -84662.673    4710.5945 
   98050      285.139    101.06423    274468.14   -77289.151    7246.6326   -84535.784    4718.6409 
   98100    281.99977   -27.414914    274805.35   -77302.507     7166.851   -84469.358    4723.9355 
   98150    282.96378   -303.06685    274882.88   -77313.873    7191.3508   -84505.224    4727.4391 
   98200    283.80349    68.864938    274324.27   -77336.681    7212.6917   -84549.373    4724.7406 
   98250    285.38554    37.546023    273709.35   -77323.219    7252.8983   -84576.118    4725.3083 
   98300    288.53479    146.86681    273596.49   -77359.474    7332.9346   -84692.408    4725.0957 
   98350    282.21938    316.94901     274186.5   -77364.406    7172.4325   -84536.839    4735.2074 
   98400    281.92584   -404.30875    274954.92   -77321.844    7164.9722   -84486.816    4749.4057 
   98450    282.03568   -54.585011    274939.24   -77295.445    7167.7637   -84463.209    4750.5882 
   98500    286.47688    197.75448    274332.73   -77306.431    7280.6342   -84587.065    4742.5783 
   98550    287.12055    428.16427    273827.53   -77343.992    7296.9926   -84640.985    4741.1431 
   98600    285.24042    376.43852    273836.28   -77351.125    7249.2103   -84600.336    4743.9073 
   98650    289.46266   -226.46986     274465.6   -77350.103    7356.5159   -84706.619    4751.2459 
   98700     283.0611   -111.96289     274815.4   -77335.556    7193.8242    -84529.38    4757.9939 
   98750     284.4932   -397.41097    274962.88    -77313.26    7230.2203    -84543.48    4759.9185 
   98800    281.18165    81.677232    274361.78   -77312.101    7146.0592   -84458.161    4756.2475 
   98850    284.94152    60.076101    273694.08   -77290.241     7241.614   -84531.855    4749.6731 
   98900    285.37575     193.1229    273782.94   -77306.598    7252.6495   -84559.247    4752.3942 
   98950    285.62202    68.467528    274307.23   -77281.268    7258.9085   -84540.176    4762.2305 
   99000    285.47445    178.13659    274803.25   -77263.358    7255.1581   -84518.516     4769.763 
   99050    287.29908   -195.77393    274962.74    -77269.79    7301.5299    -84571.32    4771.4627 
   99100    284.03768   -310.42473    274620.13   -77273.081    7218.6434   -84491.725    4768.1732 
   99150    287.63489   -64.971935    273806.66   -77287.059    7310.0642   -84597.123    4760.9263 
   99200    285.04763    350.48221    273619.03   -77303.369    7244.3105    -84547.68    4761.2415 
   99250    282.85709   -52.102679    274280.41   -77332.197    7188.6393   -84520.836    4771.4706 
   99300    285.33024   -135.55088    274828.73   -77362.737    7251.4929    -84614.23    4781.9842 
   99350    279.10685    108.41902    274709.87   -77377.031    7093.3295    -84470.36    4785.5584 
   99400    282.25069    201.79474    274153.42   -77350.291    7173.2281   -84523.519     4781.742 
   99450     283.8939    159.36756    273736.47   -77346.056    7214.9892   -84561.045    4778.7521 
   99500    286.65766     35.03849    273912.29   -77377.829    7285.2286   -84663.058    4781.4468 
   99550    283.84277    117.21013    274306.77    -77325.16    7213.6899    -84538.85    4789.9193 
   99600    285.92028   -351.64458    274692.87   -77326.416    7266.4884   -84592.904    4796.5815 
   99650    285.46602   -124.09604    274643.73   -77329.995    7254.9437   -84584.939    4798.8942 
   99700    287.29862    52.229594     274151.1   -77321.622    7301.5182    -84623.14    4795.7174 
   99750    285.99796   -60.817299    273780.18   -77330.824    7268.4626   -84599.287    4793.0927 
   99800    288.04667   -151.94348    273719.25   -77332.467    7320.5293   -84652.996     4793.804 
   99850    286.51569    109.75955    274017.29   -77320.008    7281.6206   -84601.629    4798.4667 
   99900    283.11501   -261.03781    274550.45   -77336.388    7195.1942   -84531.582    4804.7356 
   99950    282.21705   -150.69301     274602.2   -77318.316    7172.3732   -84490.689    4805.0677 
  100000    282.67846    243.34882    274191.37   -77279.719    7184.0997   -84463.819    4801.6655 
Loop time of 250.125 on 6 procs for 100000 steps with 8527 atoms

Performance: 345.427 ns/day, 0.069 hours/ns, 399.800 timesteps/s
99.4% CPU use with 6 MPI tasks x no OpenMP threads

MPI task timing breakdown:
Section |  min time  |  avg time  |  max time  |%varavg| %total
---------------------------------------------------------------
Pair    | 72.209     | 129.08     | 197.17     | 453.5 | 51.61
Neigh   | 30.461     | 35.64      | 39.254     |  61.7 | 14.25
Comm    | 7.4911     | 79.209     | 141.06     | 616.4 | 31.67
Output  | 0.13308    | 0.13519    | 0.14304    |   1.0 |  0.05
Modify  | 4.9849     | 5.0337     | 5.0732     |   1.3 |  2.01
Other   |            | 1.026      |            |       |  0.41

Nlocal:        1421.17 ave        1445 max        1389 min
Histogram: 1 0 0 0 1 1 1 0 0 2
Nghost:        1996.67 ave        2059 max        1961 min
Histogram: 2 2 0 0 0 0 0 1 0 1
Neighs:        0.00000 ave           0 max           0 min
Histogram: 6 0 0 0 0 0 0 0 0 0
FullNghs:      39760.7 ave       40107 max       39354 min
Histogram: 1 0 1 0 0 1 1 1 0 1

Total # of neighbors = 238564
Ave neighs/atom = 27.977483
Neighbor list builds = 20618
Dangerous builds = 0

# Create data file for import to other simulations
#
write_data data.${NAME}
write_data data.coexist_286K_1atm_ML
System init for write_data ...

Total wall time: 0:04:10
