
# Set production fixes - Nose/Hoover
#
fix                 2 all nph iso ${PRES} ${PRES} ${PCOUPL}
fix                 2 all nph iso 1 ${PRES} ${PCOUPL}
fix                 2 all nph iso 1 1 ${PCOUPL}
fix                 2 all nph iso 1 1 10000.0
fix                 3 all temp/csvr ${TEMP} ${TEMP} ${TCOUPL} 837492
fix                 3 all temp/csvr 286 ${TEMP} ${TCOUPL} 837492
fix                 3 all temp/csvr 286 286 ${TCOUPL} 837492
fix                 3 all temp/csvr 286 286 5000.0 837492

# Define Order parameter
#
compute             2 all orientorder/atom nnn NULL cutoff 3.5
thermo              200
thermo_style        custom step temp press vol etotal ke pe c_1[4]

# Run 1ns simulation
dump		    1 all custom 400 prod.${NAME}.dump id type x y z vx vy vz c_2[*]
dump		    1 all custom 400 prod.ice_286K_1atm_ML.dump id type x y z vx vy vz c_2[*]
run                 200000
Neighbor list info ...
  update every 1 steps, delay 0 steps, check yes
  max neighbors/atom: 2000, page size: 100000
  master list distance cutoff = 6.0032907
  ghost atom cutoff = 6.0032907
  binsize = 3.0016454, bins = 20 17 17
  2 neighbor lists, perpetual/occasional/extra = 1 1 0
  (1) pair sw, perpetual
      attributes: full, newton on
      pair build: full/bin/atomonly
      stencil: full/bin/3d
      bin: standard
  (2) compute orientorder/atom, occasional, copy from (1)
      attributes: full, newton on
      pair build: copy
      stencil: none
      bin: none
Per MPI rank memory allocation (min/avg/max) = 5.819 | 5.819 | 5.820 Mbytes
Step Temp Press Volume TotEng KinEng PotEng c_1[4] 
       0    285.68586     29.57201     148510.8   -47729.677    3923.2073   -51652.885   0.14204972 
     200    283.76339   -28.554693    148497.65   -47719.507    3896.8068   -51616.313   0.15458319 
     400    286.59241    4.3076465    148487.42   -47714.309    3935.6566   -51649.966   0.15687887 
     600    284.38532   -31.136917    148503.64   -47750.936    3905.3475   -51656.283   0.15079692 
     800    284.52236   -21.325095    148506.54    -47766.12    3907.2294   -51673.349   0.14871796 
    1000     283.9097    10.678422     148478.3   -47778.595     3898.816   -51677.411   0.14697486 
    1200    278.88116   0.25975648    148458.68   -47803.191    3829.7611   -51632.952   0.14942538 
    1400    288.19022   -11.368925     148528.7   -47795.325    3957.5987   -51752.923   0.14070036 
    1600    283.88521   -63.878115    148554.11   -47798.176    3898.4797   -51696.656   0.14241002 
    1800    281.39423    79.109278     148450.9    -47803.92    3864.2721   -51668.192   0.14661606 
    2000    285.93124    41.636963    148455.92   -47759.734     3926.577   -51686.311   0.14446562 
    2200    283.27134   -37.025116    148586.72   -47728.168    3890.0497   -51618.218    0.1489718 
    2400    283.71314   -33.708351    148583.85   -47745.517    3896.1168   -51641.634   0.14705643 
    2600    282.90663    47.115762    148420.15   -47789.907    3885.0413   -51674.948   0.14905339 
    2800    280.66378    27.391244    148406.92   -47806.364    3854.2412   -51660.606   0.14960866 
    3000    289.80301   -109.24018    148598.64    -47818.74    3979.7464   -51798.486    0.1426615 
    3200    283.37364    -15.70074    148561.77   -47765.003    3891.4546   -51656.457   0.14588103 
    3400     281.3755    102.32058    148358.17   -47804.251    3864.0149   -51668.266   0.14628848 
    3600    278.56007     9.954408    148443.86   -47832.305    3825.3518   -51657.656   0.14480952 
    3800    287.14671   -114.26306    148685.27   -47760.295    3943.2686   -51703.564   0.14606254 
    4000    284.83267   -22.856646    148557.64   -47754.409    3911.4909     -51665.9   0.14734565 
    4200    286.14026    153.44632    148303.73   -47770.751    3929.4474   -51700.199   0.14653207 
    4400    284.17499  0.026192465       148485   -47758.339    3902.4592   -51660.799   0.14434163 
    4600    286.21077   -172.77239    148734.84   -47737.739    3930.4157   -51668.155   0.14789548 
    4800    286.19707   -8.4284204    148485.74    -47727.86    3930.2276   -51658.088   0.15125154 
    5000    286.09669     207.3827    148232.68   -47707.256     3928.849   -51636.105    0.1474801 
    5200    284.93176   -57.075889    148545.18   -47709.482    3912.8515   -51622.334   0.14891621 
    5400    284.84755   -184.00126    148735.64   -47669.773    3911.6952   -51581.468   0.15176694 
    5600    286.02041    120.53413    148404.47   -47654.033    3927.8016   -51581.835   0.14778968 
    5800    286.77513     116.5129    148346.13   -47644.493    3938.1659   -51582.659   0.14850096 
    6000    289.27313   -126.82451    148721.62   -47630.388    3972.4698   -51602.858   0.14723303 
    6200    287.50318   -124.73862    148709.47   -47624.155    3948.1638   -51572.318   0.14957711 
    6400    288.37902    149.73086    148347.56   -47592.782    3960.1914   -51552.974   0.14656549 
    6600    290.04717    34.149296    148472.47    -47633.51    3983.0994   -51616.609   0.14423135 
    6800    284.93073   -186.06668    148806.51   -47670.629    3912.8375   -51583.466   0.14848326 
    7000     287.8447    -7.285141    148553.27   -47675.007    3952.8538    -51627.86   0.14839827 
    7200    290.70798     225.4186    148288.78   -47624.122     3992.174   -51616.296   0.14695637 
    7400    289.74648   -90.038643    148681.22   -47609.906    3978.9702   -51588.876   0.14800545 
    7600    290.96857   -267.11029    148896.94   -47643.468    3995.7526   -51639.221    0.1464956 
    7800    284.11384    73.360572    148411.93   -47671.319    3901.6194   -51572.939    0.1502853 
    8000    288.82665    236.51814    148268.34   -47638.296    3966.3386   -51604.635   0.14439164 
    8200    283.31377   -169.26887    148773.55    -47673.15    3890.6324   -51563.783   0.14551279 
    8400    286.92982   -184.67095    148819.97   -47698.312    3940.2901   -51638.602   0.14268724 
    8600    286.77272    204.52293    148293.03   -47657.188    3938.1327   -51595.321   0.14623517 
    8800    290.33278    148.88892     148380.4   -47589.768    3987.0216   -51576.789   0.14538194 
    9000     289.5203   -279.62571    148931.12    -47569.84    3975.8642   -51545.704    0.1522749 
    9200    293.71919   -105.77202    148722.01   -47554.925    4033.5258   -51588.451   0.14955807 
    9400    285.85509    306.17423       148185    -47603.36    3925.5313   -51528.891   0.14766329 
    9600    289.58008    31.796831    148528.23   -47594.603    3976.6851   -51571.288   0.14364071 
    9800     286.3908   -314.84324    149018.66   -47609.505     3932.888   -51542.393   0.14889078 
   10000    291.54269    39.707658    148547.67   -47606.632    4003.6368   -51610.269   0.14698668 
   10200    286.71299    324.22663    148175.94   -47599.846    3937.3125   -51537.159   0.14654185 
   10400    288.18548   -108.24621    148759.63   -47588.494    3957.5335   -51546.028   0.14244269 
   10600    289.72378   -302.05551    149044.47   -47569.291    3978.6585   -51547.949   0.14153518 
   10800    293.11924    203.73028    148377.61   -47602.535    4025.2868   -51627.822    0.1428332 
   11000    293.03117    329.80427    148236.63   -47644.873    4024.0774    -51668.95   0.14182887 
   11200    288.73576   -291.89982    148932.47   -47660.786    3965.0903   -51625.876   0.15212166 
   11400     288.7269   -201.19326    148886.76   -47685.273    3964.9687   -51650.242   0.14450872 
   11600    287.59784    276.10767     148209.7   -47656.667    3949.4638   -51606.131   0.14274044 
   11800    286.64704    123.47861    148378.48   -47730.699    3936.4068   -51667.106   0.14197018 
   12000    285.52041   -290.83578    148954.04    -47729.95    3920.9353   -51650.886     0.142893 
   12200    285.49353   -39.461331    148665.24   -47708.264    3920.5661    -51628.83   0.14754169 
   12400    286.67845    285.96799    148221.11   -47677.091    3936.8381   -51613.929   0.14516224 
   12600    290.67906   0.83771748    148552.45   -47690.157    3991.7769   -51681.934   0.14279069 
   12800    288.81416   -223.20383    148864.79   -47698.768     3966.167   -51664.935   0.14130835 
   13000     293.6448    63.063829    148483.16   -47680.109    4032.5042   -51712.613   0.14271915 
   13200    286.58694    169.63503     148292.8   -47651.309    3935.5815    -51586.89   0.14895406 
   13400    285.25674   -117.03663    148661.97   -47671.211    3917.3144   -51588.526   0.15291945 
   13600      285.643   -156.18601    148715.38   -47660.734    3922.6187   -51583.352   0.14837536 
   13800    286.43803    130.78552    148391.42   -47654.696    3933.5366   -51588.233   0.14294563 
   14000    290.26193    83.028001    148424.45    -47675.69    3986.0487   -51661.739   0.13660953 
   14200    287.53329   -93.660005    148677.69    -47700.74    3948.5774   -51649.318   0.14182907 
   14400    284.43812   -54.112474    148608.18    -47724.31    3906.0726   -51630.382   0.14564387 
   14600    286.02466    128.77269    148392.34   -47720.326    3927.8599   -51648.186   0.14393712 
   14800    290.47918    16.019584    148507.06   -47704.782    3989.0321   -51693.814   0.14241979 
   15000    284.64258   -90.000165     148682.4   -47754.816    3908.8803   -51663.696   0.13905397 
   15200    280.79349   -7.7002602    148501.21    -47807.03    3856.0224   -51663.052    0.1408275 
   15400    281.42045    86.856268    148344.87    -47823.59    3864.6322   -51688.223   0.14409242 
   15600    281.09134   -36.521111    148522.36   -47859.027    3860.1126    -51719.14   0.14444836 
   15800    283.48969   -58.294708    148624.47    -47811.25    3893.0482   -51704.298   0.14183683 
   16000    283.86665    31.306038    148468.59   -47797.709    3898.2248   -51695.934    0.1372594 
   16200    288.39284    118.35646    148395.85   -47747.323    3960.3812   -51707.704   0.13680576 
   16400    280.91747   -67.230503    148603.26   -47743.701     3857.725   -51601.426    0.1427347 
   16600    288.13559   -130.42812    148677.49   -47761.687    3956.8485   -51718.536   0.14450932 
   16800    284.84109    84.090027    148429.45   -47715.843    3911.6064    -51627.45   0.14630498 
   17000    288.62519    118.85424    148386.19   -47739.317     3963.572   -51702.889   0.14100338 
   17200    285.33943   -97.418585    148631.49   -47721.781    3918.4499   -51640.231   0.14359444 
   17400      285.108    -85.74418    148608.15   -47766.193    3915.2718   -51681.465   0.14194102 
   17600    283.31441    109.20568    148341.77   -47803.642    3890.6412   -51694.283   0.14350954 
   17800    284.36325     71.69737    148393.93   -47822.244    3905.0444   -51727.289   0.14506808 
   18000    281.46067   -126.90261    148651.34    -47854.15    3865.1846   -51719.335   0.14389358 
   18200    278.96928   -52.280436    148544.92   -47877.996    3830.9712   -51708.967   0.14166311 
   18400     280.1367    162.39467    148264.02   -47898.507     3847.003    -51745.51   0.13438494 
   18600    281.68732    14.641878    148447.07   -47856.162    3868.2971   -51724.459    0.1404886 
   18800     283.1689   -170.79214    148729.22   -47790.672     3888.643   -51679.315   0.14344388 
   19000    281.05328    4.7438982     148491.8   -47818.951      3859.59   -51678.541       0.1388 
   19200    284.95971    178.02891    148224.46   -47793.578    3913.2354   -51706.813   0.14516105 
   19400     283.4901   -47.499994    148579.95   -47784.857    3893.0539   -51677.911   0.14059922 
   19600    280.45927   -248.86228    148838.74   -47811.316    3851.4327   -51662.749   0.14019321 
   19800    284.46571    118.23516    148351.02    -47809.49    3906.4514   -51715.941   0.14157097 
   20000    282.23416    321.03392    148121.57    -47798.82    3875.8065   -51674.627    0.1413971 
   20200    285.76608   -227.97539    148785.39   -47826.071     3924.309    -51750.38    0.1416047 
   20400    280.10928    -314.9266    148908.13   -47802.486    3846.6264   -51649.113   0.14313179 
   20600    287.19773    313.86277    148041.46   -47799.747    3943.9692   -51743.716   0.14083711 
   20800    285.51928    336.56662    148099.71   -47802.783    3920.9198   -51723.703   0.13957992 
   21000    284.62993   -463.69295    149115.08   -47795.978    3908.7067   -51704.685   0.14401042 
   21200    280.50882   -233.88514    148787.28   -47785.896    3852.1131   -51638.009    0.1463242 
   21400    284.97034    525.53372     147824.8    -47780.36    3913.3813   -51693.741   0.14579106 
   21600    283.40662    122.21361       148376   -47740.709    3891.9074   -51632.616   0.14297803 
   21800    285.78727   -526.71856    149197.44   -47689.311    3924.5999   -51613.911   0.14428896 
   22000    281.85592   -13.443817    148515.67   -47697.339    3870.6123   -51567.951   0.14569881 
   22200    290.26928    438.46168    147934.23   -47656.363    3986.1495   -51642.513   0.15136971 
   22400     291.4147   -123.96439    148668.97   -47636.955    4001.8792   -51638.834   0.14247694 
   22600    285.38676   -405.42001    149041.97   -47640.908    3919.0999   -51560.008    0.1459555 
   22800    287.58513    170.98904    148308.71   -47677.646    3949.2892   -51626.935   0.14235499 
   23000     289.4589    320.52706    148116.58   -47695.923    3975.0209   -51670.944    0.1436533 
   23200    290.79906   -214.44676    148786.46   -47689.858    3993.4248   -51683.283   0.14700222 
   23400    287.77503   -217.16375    148814.76   -47697.451    3951.8971   -51649.348   0.14171445 
   23600    285.77053    253.52535    148212.83   -47713.241      3924.37   -51637.611   0.14436708 
   23800    287.17715    154.56274    148338.13   -47654.568    3943.6866   -51598.255   0.14438518 
   24000    288.29681   -261.61534    148902.97   -47691.469    3959.0625   -51650.532   0.14416088 
   24200    288.07418   -122.46011    148684.69   -47674.942    3956.0051   -51630.947   0.14720134 
   24400    288.63247    263.41455    148211.21   -47680.511    3963.6719   -51644.183   0.14463555 
   24600    285.18257    48.351008    148473.26   -47681.492    3916.2958   -51597.788   0.15022493 
   24800    288.51913    -280.7903    148865.19   -47606.024    3962.1155   -51568.139   0.15267769 
   25000    292.49087    11.230683    148556.02   -47604.928    4016.6577   -51621.586   0.14451653 
   25200    292.48435    225.80826    148270.97   -47628.604    4016.5682   -51645.173   0.14487194 
   25400     286.0389   -93.982871    148637.63   -47690.641    3928.0555   -51618.697    0.1437839 
   25600    285.49497   -192.32528    148784.38   -47711.743     3920.586   -51632.329   0.14730011 
   25800    283.11131    135.61141    148357.02   -47689.191     3887.852   -51577.043   0.14608096 
   26000    286.19396    121.56236    148327.03   -47668.513    3930.1848   -51598.698   0.14695222 
   26200    290.18138   -166.11387    148728.84   -47714.719    3984.9425   -51699.661   0.14402142 
   26400    285.81174   -64.747384    148617.05   -47735.959    3924.9359   -51660.894   0.14251928 
   26600    287.48908    200.35097    148252.02   -47746.383    3947.9702   -51694.353   0.14334431 
   26800    279.75191    34.779245    148449.69   -47750.758    3841.7189   -51592.477    0.1479045 
   27000     287.3692   -160.95236    148759.03   -47750.919    3946.3239   -51697.243   0.13795287 
   27200    282.00099   -11.117624    148491.32   -47744.487    3872.6044   -51617.091   0.14125992 
   27400    286.66793    198.44859    148244.21   -47709.837    3936.6937   -51646.531   0.14421543 
   27600    282.04921   -78.414184    148585.55   -47714.787    3873.2667   -51588.054   0.14554068 
   27800    288.69779   -163.90118    148769.48   -47710.394     3964.569   -51674.963   0.14084599 
   28000    287.37327    85.193568    148423.83    -47699.32    3946.3799     -51645.7   0.14401633 
   28200    284.59779    145.97145    148310.39   -47718.441    3908.2653   -51626.706    0.1447339 
   28400    286.78768   -109.42131    148634.12   -47714.049    3938.3382   -51652.387   0.14721742 
   28600    286.91566   -128.74969    148644.38   -47732.684    3940.0956   -51672.779    0.1468153 
   28800    285.68875    139.58895     148306.6   -47744.073     3923.247    -51667.32   0.14719265 
   29000     283.6553    115.18922    148363.54   -47779.778    3895.3225     -51675.1   0.13895724 
   29200    281.62101   -173.85201    148671.64   -47813.946    3867.3864   -51681.332   0.14103412 
   29400    281.64279   -65.515816    148505.45   -47814.247    3867.6855   -51681.932   0.14642423 
   29600    287.10462    182.59731    148226.52   -47775.091    3942.6905   -51717.781   0.14221356 
   29800    287.63593    3.3542344     148483.9   -47698.864    3949.9868   -51648.851   0.14695354 
   30000    278.83788   -245.22243    148786.83   -47686.837    3829.1668   -51516.004   0.15293846 
   30200    288.66245    55.967569    148479.04   -47695.974    3964.0837   -51660.058    0.1453613 
   30400    286.53214    170.66313    148202.18   -47747.411     3934.829    -51682.24    0.1478302 
   30600    287.87455   -37.704348    148575.95   -47695.532    3953.2637   -51648.796    0.1465668 
   30800    291.93886   -250.41418    148840.53   -47661.809    4009.0773   -51670.886   0.14557471 
   31000    285.92947     135.7522    148360.71   -47648.078    3926.5527   -51574.631   0.14185906 
   31200    292.34552    266.78984    148165.93   -47653.253    4014.6617   -51667.915   0.14237889 
   31400    284.94619    -249.4561    148808.33   -47651.193    3913.0497   -51564.242   0.15009766 
   31600    285.86931     -269.505    148888.24   -47710.979    3925.7266   -51636.706   0.14216909 
   31800    285.34798    335.84495     148054.2   -47683.478    3918.5674   -51602.046   0.14709141 
   32000    287.23757    262.58837    148133.52    -47655.89    3944.5163   -51600.407   0.14593605 
   32200    287.01993   -414.21858    149072.31   -47688.397    3941.5276   -51629.924   0.14525865 
   32400    289.06821   -219.67249    148816.19    -47683.79    3969.6557   -51653.446   0.14559186 
   32600    285.22342    485.39467    147909.39    -47668.23    3916.8568   -51585.087   0.14412954 
   32800    284.91699    131.75115    148375.67   -47667.926    3912.6487   -51580.575   0.14310795 
   33000    283.72918   -487.57663    149152.98   -47655.627    3896.3371   -51551.964   0.14789466 
   33200    287.52017     -1.57064    148525.29   -47651.225    3948.3971   -51599.622   0.14376089 
   33400    292.27163    460.37154    147951.16   -47612.869     4013.647   -51626.516   0.14574343 
   33600    293.96187   -51.968963    148707.57   -47549.886    4036.8584   -51586.744   0.14166853 
   33800    289.70653    -420.4848     149111.3   -47582.895    3978.4216   -51561.317   0.14860227 
   34000    291.50779    163.22497    148383.19   -47605.269    4003.1575   -51608.426   0.13938697 
   34200    289.53462    312.66586    148196.71   -47636.633    3976.0607   -51612.694   0.14169267 
   34400    281.60193   -218.44057    148826.56   -47701.961    3867.1243   -51569.085   0.14755564 
   34600      289.269    -195.0373    148822.81   -47675.716    3972.4131   -51648.129   0.14010218 
   34800    286.80195    211.49705    148281.86   -47716.215    3938.5342   -51654.749   0.14085466 
   35000    288.56765    118.33856    148376.79    -47742.63    3962.7818   -51705.411   0.14019019 
   35200    283.79372   -237.29202    148830.35    -47729.26    3897.2234   -51626.484   0.14611206 
   35400    286.63695    -70.30047    148632.13   -47691.577    3936.2683   -51627.845   0.14552941 
   35600    288.38466    188.06433    148251.82   -47685.837    3960.2688   -51646.105   0.14119701 
   35800     287.8193    51.930034    148520.91   -47687.282    3952.5049   -51639.786   0.14077616 
   36000    290.63164   -196.79999    148847.97   -47687.981    3991.1257   -51679.107   0.13629182 
   36200    286.07783    9.8671626    148511.12   -47702.804    3928.5901   -51631.394   0.14188079 
   36400    283.58212    185.73217    148247.56   -47728.773    3894.3176    -51623.09   0.14055453 
   36600    285.84205   -59.513696    148626.78   -47705.069    3925.3522   -51630.422   0.14097487 
   36800    284.77738   -177.13838    148795.57   -47747.956    3910.7316   -51658.687   0.14250646 
   37000    289.51286    145.02179    148393.57   -47738.391     3975.762   -51714.153   0.14043398 
   37200    286.45176    146.07251    148352.03   -47700.345    3933.7251    -51634.07   0.14580972 
   37400    286.38636   -168.30225    148767.77   -47693.175    3932.8271   -51626.002   0.14153556 
   37600    286.64874   -127.54354    148688.43   -47719.421    3936.4302   -51655.851   0.13917188 
   37800    285.79989     177.0436    148262.75    -47684.23    3924.7733   -51609.003   0.14349979 
   38000    282.25748    61.248818    148428.12   -47738.714    3876.1268   -51614.841   0.14194351 
   38200     280.5138   -215.22321    148790.05   -47731.704    3852.1815   -51583.886   0.14081897 
   38400    291.24259   -8.3856484    148567.81   -47698.164    3999.5157    -51697.68   0.13783325 
   38600    282.95354    170.47456    148278.34   -47694.728    3885.6854   -51580.413   0.14639161 
   38800    288.53322   -34.438264    148548.35   -47746.074     3962.309   -51708.383   0.14232572 
   39000    285.94133   -203.86548     148747.4   -47771.955    3926.7156   -51698.671   0.14420047 
   39200    285.29542    100.67294    148433.27   -47791.362    3917.8456   -51709.207   0.13960863 
   39400    281.38636    138.57781    148315.56   -47782.364    3864.1641   -51646.528   0.14102568 
   39600    281.63066    -113.7198    148650.99   -47852.153     3867.519   -51719.672   0.13395376 
   39800    283.03894   -89.809537    148670.47   -47839.287    3886.8582   -51726.146   0.13646477 
   40000    276.77364    136.66531    148317.08   -47850.851    3800.8194    -51651.67   0.13956356 
   40200    282.00257    127.23096    148367.97   -47827.701    3872.6262   -51700.327    0.1391592 
   40400    282.82864   -174.33648    148702.56   -47822.268    3883.9703   -51706.239   0.13925077 
   40600    282.29926   -72.667619     148568.8   -47849.846    3876.7005   -51726.546   0.13888556 
   40800    280.64327    186.29128    148225.87   -47867.912    3853.9595   -51721.871   0.14393497 
   41000    284.81702     43.05635    148457.39   -47825.164    3911.2759    -51736.44   0.14186559 
   41200    281.24003    -237.2602    148799.27   -47857.116    3862.1546   -51719.271   0.14132056 
   41400    277.80791    30.955938    148494.71   -47822.077    3815.0227     -51637.1   0.13707314 
   41600    281.70679    225.73038    148221.82   -47817.689    3868.5644   -51686.254   0.13975137 
   41800    281.56209   -76.380124    148630.66   -47817.023    3866.5773   -51683.601   0.14034474 
   42000    286.09639    -291.5858    148838.14   -47789.792    3928.8449   -51718.637   0.14572131 
   42200    283.57504     156.8375    148296.17   -47814.688    3894.2204   -51708.908   0.13995165 
   42400    280.32412    267.26389    148125.02   -47865.193    3849.5767    -51714.77   0.13983149 
   42600    274.39225   -243.00146       148808   -47889.909    3768.1167   -51658.026   0.14529311 
   42800    277.40576   -289.41585    148866.25   -47889.582    3809.5001   -51699.082   0.14262876 
   43000      282.932    372.92806    148039.09   -47844.605    3885.3896   -51729.995   0.14168693 
   43200    280.16318    222.32607    148203.17   -47850.178    3847.3666   -51697.545   0.14138403 
   43400    282.66002   -430.97185    149104.68   -47838.846    3881.6547   -51720.501   0.13887731 
   43600     283.7626    -123.4479    148690.68   -47835.122    3896.7959   -51731.918   0.13741069 
   43800    286.89119    476.56047    147849.84   -47808.933    3939.7596   -51748.693   0.14212071 
   44000    285.44322    57.030206    148459.42   -47829.051    3919.8752   -51748.926   0.13832953 
   44200    280.39882   -487.70482    149135.85   -47868.301    3850.6026   -51718.904   0.14424215 
   44400    282.17905    93.958426    148373.92   -47843.722    3875.0498   -51718.771   0.14052057 
   44600    287.46799     435.7029    147915.63   -47781.125    3947.6805   -51728.805   0.14275896 
   44800    285.67505    -137.6189    148715.27   -47747.452    3923.0588   -51670.511   0.13907329 
   45000    284.89552   -378.70452    148969.56    -47781.92    3912.3539   -51694.274   0.13982961 
   45200     284.2233    224.01658    148203.18   -47802.534    3903.1226   -51705.657   0.14316959 
   45400    283.53832    282.92993    148112.32   -47851.046    3893.7161   -51744.762   0.14550666 
   45600     284.6008   -244.54103    148789.29   -47840.001    3908.3067   -51748.308   0.14669801 
   45800    283.85714   -174.81964    148723.81   -47813.408    3898.0943   -51711.502   0.14187692 
   46000    284.77125    259.48844    148160.22   -47810.024    3910.6474   -51720.671   0.13853811 
   46200    278.94042    102.08228     148309.8   -47843.056     3830.575   -51673.631   0.14144936 
   46400    282.98085   -250.98062    148770.45   -47825.595    3886.0606   -51711.655   0.14164919 
   46600    283.61204   -16.835457    148513.98    -47822.83    3894.7283   -51717.558   0.14079843 
   46800    282.06597    252.11853    148165.03   -47788.071    3873.4969   -51661.567   0.14024724 
   47000    284.16283     6.211697    148537.77   -47768.755    3902.2921   -51671.047   0.13802381 
   47200    285.74658   -199.21726    148831.13   -47738.367    3924.0412   -51662.408   0.13816831 
   47400    287.39825    68.778061    148420.18   -47670.873    3946.7229   -51617.596    0.1494974 
   47600      285.723    198.37158    148245.19   -47645.287    3923.7173   -51569.005   0.15306894 
   47800    288.36997   -116.45714    148700.85   -47614.966    3960.0672   -51575.034   0.14747754 
   48000    288.69856   -155.50301    148796.34   -47618.354    3964.5796   -51582.933    0.1445286 
   48200    293.80078    159.90181    148368.33   -47619.342    4034.6462   -51653.988   0.13959048 
   48400    289.46762    138.71617    148403.25   -47600.693    3975.1406   -51575.833   0.14162906 
   48600    283.43338   -202.36134    148801.86   -47663.851     3892.275   -51556.126   0.14536335 
   48800     290.7466   -89.881041    148641.55     -47606.7    3992.7043   -51599.405   0.14718254 
   49000    290.23754    220.67881    148304.13   -47585.134    3985.7137   -51570.848   0.14549319 
   49200    293.49556    32.373639    148548.37   -47619.972    4030.4548   -51650.427   0.14296867 
   49400    291.43008    -194.9055    148821.78   -47629.272    4002.0904   -51631.363   0.14582714 
   49600    290.47259     25.06642    148520.78   -47647.463    3988.9415   -51636.404   0.14517577 
   49800    290.50848    161.73748    148331.72   -47627.891    3989.4343   -51617.325    0.1493545 
   50000    284.13127   -110.64373    148693.97   -47628.852    3901.8588   -51530.711   0.15045234 
   50200    288.32254   -183.23498    148790.99   -47665.452    3959.4158   -51624.867   0.14266904 
   50400     287.3637    158.61477    148352.26   -47669.673    3946.2485   -51615.922   0.14100267 
   50600    286.16475    119.88604    148367.57   -47691.522    3929.7837   -51621.306   0.14069887 
   50800    288.24489   -156.72602    148817.06    -47701.87    3958.3494   -51660.219   0.14001727 
   51000    287.25844   -63.219334    148695.17   -47638.289     3944.803   -51583.092   0.14931218 
   51200    287.14396    212.13559    148287.14   -47669.176    3943.2309   -51612.407   0.14859229 
   51400    287.19752    67.914634     148490.1   -47633.485    3943.9664   -51577.451   0.14764877 
   51600    288.27496   -226.95095    148864.33    -47633.81    3958.7624   -51592.572   0.14280063 
   51800    284.40328   -48.764124    148586.31   -47630.001    3905.5941   -51535.595   0.14675832 
   52000    290.13398    197.83596    148303.23   -47592.949    3984.2916   -51577.241   0.14784501 
   52200    290.24126   -70.508921    148697.37   -47566.082    3985.7648   -51551.847   0.14416689 
   52400    289.73072    -209.2194    148922.78   -47547.051    3978.7537   -51525.805   0.14158948 
   52600    291.31086    132.50791    148484.02   -47585.615    4000.4532   -51586.068   0.13316092 
   52800    287.40533    209.42424    148358.25   -47603.954    3946.8201   -51550.774   0.13984874 
   53000    287.61345   -166.90191    148846.89   -47610.783    3949.6781   -51560.461   0.14691396 
   53200    290.82607   -175.55897    148884.28   -47619.485    3993.7958   -51613.281   0.14652238 
   53400     287.6447    216.76045    148316.24   -47647.966    3950.1073   -51598.073    0.1423268 
   53600    285.81428    186.92089    148356.54   -47674.605    3924.9709   -51599.576   0.13860184 
   53800    288.07753   -257.05113    148949.46    -47650.71    3956.0511   -51606.761   0.14014708 
   54000    290.81004   -138.40155    148785.62   -47641.755    3993.5757   -51635.331   0.13865237 
   54200    289.89518    344.28949    148144.71   -47649.509    3981.0122   -51630.521    0.1436114 
   54400    290.45902    93.568297    148442.48   -47677.876    3988.7552   -51666.631    0.1401009 
   54600    286.66584   -415.06653    149064.41   -47670.235     3936.665     -51606.9   0.14139369 
   54800    287.63149   -13.402735    148549.81   -47615.096    3949.9258   -51565.022   0.14470297 
   55000    287.65197    462.84199    148000.03   -47616.646    3950.2071   -51566.853   0.14580451 
   55200     289.3878   -105.72907    148690.63   -47648.063    3974.0446   -51622.107   0.14460413 
   55400    289.16307   -398.63434    149113.06   -47668.712    3970.9584    -51639.67   0.14481404 
   55600    284.42467    198.77576    148258.22   -47705.121    3905.8879   -51611.009    0.1396709 
   55800    285.00733    428.42236    148013.28   -47677.954    3913.8894   -51591.843   0.14479142 
   56000    286.31563   -297.42453    148923.85   -47663.795    3931.8557   -51595.651   0.14498221 
   56200    287.36604   -315.52059    148992.15   -47696.208    3946.2806   -51642.489   0.14659653 
   56400     288.6474    323.23549    148143.85   -47699.187     3963.877   -51663.064   0.14542375 
   56600    290.62899    226.53288    148266.16   -47704.762    3991.0893   -51695.852   0.14216851 
   56800     288.9536   -312.47837       148984   -47653.666    3968.0819   -51621.748   0.14348157 
   57000    288.74145   -109.03963    148735.34   -47660.722    3965.1686   -51625.891   0.13875555 
   57200     290.2558     300.2848    148177.82   -47690.111    3985.9645   -51676.075   0.14235761 
   57400     285.8541    54.253641    148474.43   -47710.488    3925.5177   -51636.006    0.1481848 
   57600    287.05602   -239.66397    148871.25   -47698.827    3942.0231    -51640.85   0.14445777 
   57800    284.45079   -6.2076356    148540.18   -47710.922    3906.2466   -51617.169   0.14257891 
   58000    285.92819    200.56973    148259.36    -47723.53    3926.5351   -51650.066   0.14340923 
   58200     278.4113   -49.271327    148554.72   -47763.381    3823.3087    -51586.69   0.14774034 
   58400     282.0355   -158.29066    148706.62   -47754.813    3873.0784   -51627.892   0.14665258 
   58600    286.64559    78.327467    148428.35   -47734.225    3936.3869   -51670.612   0.14245207 
   58800    280.57476    100.40493    148374.22    -47765.68    3853.0187   -51618.699   0.14635154 
   59000    284.16569   -81.556366    148608.85   -47789.668    3902.3314       -51692   0.14296101 
   59200    286.31901   -26.649798    148571.24   -47788.729    3931.9021   -51720.631   0.13194679 
   59400     287.3496    101.25462     148379.4   -47732.504    3946.0547   -51678.559     0.141645 
   59600    289.26291    20.887812    148503.51   -47728.552    3972.3295   -51700.881   0.14605138 
   59800    285.85271   -124.94426    148654.38     -47712.9    3925.4986   -51638.399   0.14458967 
   60000    286.97927    18.290099    148514.74    -47700.55    3940.9692   -51641.519   0.14111178 
   60200    286.75733    91.140664    148452.17    -47674.41    3937.9213   -51612.331    0.1438866 
   60400    283.39892   -93.785733    148627.53   -47643.023    3891.8018   -51534.825   0.15015694 
   60600    286.35464   -36.859002    148626.49   -47683.369    3932.3914    -51615.76   0.14668171 
   60800    286.76623    54.683701    148470.25   -47623.468    3938.0436   -51561.512    0.1474729 
   61000    282.13014   -16.759763    148532.56   -47663.184    3874.3781   -51537.562   0.14666419 
   61200    291.50724   -76.405516    148676.98   -47668.428    4003.1499   -51671.578   0.13968637 
   61400    286.60113   -1.8072278     148583.7   -47666.039    3935.7764   -51601.815   0.13771519 
   61600    291.88506    102.66851    148466.48   -47659.054    4008.3384   -51667.392   0.14503715 
   61800    286.17013     -68.3238    148628.36   -47659.101    3929.8577   -51588.959   0.14976546 
   62000    289.04175   -97.839375    148698.12   -47682.952    3969.2924   -51652.244   0.14644855 
   62200    286.20254    51.735771    148478.06   -47693.916    3930.3027   -51624.218   0.14602363 
   62400    291.60341    78.073575    148431.04   -47655.314    4004.4707   -51659.785   0.14321757 
   62600    293.80279   -64.537869    148660.64   -47675.259    4034.6739   -51709.933   0.14385448 
   62800    293.83069   -26.762472    148633.56   -47652.093     4035.057    -51687.15   0.14088424 
   63000    294.31617    163.06016    148392.56   -47619.959    4041.7239   -51661.683   0.14188581 
   63200    289.06031    40.752028    148500.57   -47624.355    3969.5473   -51593.902   0.14631717 
   63400    289.09506   -178.54121    148769.59   -47580.979    3970.0245   -51551.003   0.14848033 
   63600    289.98557    24.772163    148579.85   -47561.976    3982.2535   -51544.229   0.14517362 
   63800    287.26638     192.4043    148336.28   -47590.003     3944.912   -51534.915   0.14694623 
   64000     287.4402   -40.264075    148612.16   -47583.926     3947.299   -51531.224   0.14810202 
   64200    289.24696   -220.22324    148830.78   -47585.514    3972.1104   -51557.624   0.14705553 
   64400    288.38609    101.26611    148426.97   -47572.421    3960.2884   -51532.709   0.14680545 
   64600    288.24245    261.75959    148213.17   -47626.753     3958.316   -51585.069   0.14490724 
   64800    285.52133   -98.841059    148710.37   -47636.906    3920.9479   -51557.854   0.14543496 
   65000    289.45832   -214.43714    148873.29   -47627.153     3975.013   -51602.166    0.1410069 
   65200    287.72199    132.57233    148299.33   -47653.905    3951.1687   -51605.074   0.14409363 
   65400     285.9035    201.15689    148206.92   -47679.071    3926.1961   -51605.267   0.14838183 
   65600    290.42123   -258.66194    148824.35   -47704.438    3988.2362   -51692.674   0.14644506 
   65800    292.14806   -174.38428    148788.49   -47677.911    4011.9501   -51689.861   0.14210776 
   66000    287.53836    297.23282    148168.36   -47675.291     3948.647   -51623.938   0.14610172 
   66200    280.40328     115.2725    148363.55   -47701.827    3850.6638   -51552.491   0.14637112 
   66400    289.05266   -276.93222    148913.43   -47696.422    3969.4422   -51665.864   0.14701164 
   66600    285.33537   -43.666718     148569.7   -47708.974    3918.3942   -51627.369   0.14444784 
   66800     286.0264    297.60403    148089.79   -47691.411    3927.8838   -51619.295   0.14566043 
   67000    283.98585   -54.632677    148527.81   -47721.092    3899.8617   -51620.954   0.14943609 
   67200    285.58214   -272.97109    148884.52    -47740.62    3921.7829   -51662.403   0.14151223 
   67400    284.36835    47.010679    148404.95   -47773.565    3905.1145   -51678.679   0.14803328 
   67600    284.99485    255.27072    148162.95   -47729.723     3913.718   -51643.442   0.14736145 
   67800    286.57492   -144.28896    148704.75   -47678.538    3935.4164   -51613.955   0.14834629 
   68000    290.03987   -222.59739    148838.82   -47674.096    3982.9992   -51657.095   0.14498962 
   68200    284.25856    195.60266    148271.33   -47744.878    3903.6068   -51648.484   0.14545611 
   68400    284.72365    240.37396    148231.54   -47688.953    3909.9937   -51598.947   0.14870015 
   68600    284.49527   -223.08362    148818.58   -47675.046    3906.8575   -51581.903    0.1452411 
   68800    284.76245   -168.49895    148761.86   -47642.519    3910.5265   -51553.045   0.14126428 
   69000    288.56545    226.83736    148240.56   -47687.041    3962.7516   -51649.793   0.14289536 
   69200    288.56976    98.199592    148405.73   -47694.714    3962.8108   -51657.525   0.15114215 
   69400    288.15307   -245.77573    148846.56   -47732.561    3957.0886    -51689.65   0.14445877 
   69600    287.08288   -49.634288    148598.69   -47745.378     3942.392    -51687.77    0.1437349 
   69800    285.15395    249.85597    148245.94   -47711.263    3915.9029   -51627.166   0.14125381 
   70000    291.79193   -44.967075    148576.65   -47674.134    4007.0595   -51681.194   0.14967897 
   70200    289.64471   -228.67124    148813.19   -47655.536    3977.5726   -51633.108   0.15077464 
   70400     286.7617    132.93923    148430.89   -47669.771    3937.9814   -51607.752   0.14612574 
   70600    291.72578    224.24468    148288.52   -47642.746     4006.151   -51648.897   0.14737645 
   70800    289.05855    -97.90727    148668.85   -47667.326    3969.5232   -51636.849   0.14464812 
   71000    287.21533   -167.55126    148722.12   -47711.592    3944.2109   -51655.802   0.14956328 
   71200    287.36371    123.83478    148352.37   -47719.277    3946.2486   -51665.525    0.1454908 
   71400    286.47234    118.14818    148374.37   -47686.823    3934.0077   -51620.831    0.1472206 
   71600    289.92032   -128.73107    148731.11   -47665.473    3981.3575    -51646.83   0.13974494 
   71800    287.64774   -97.845008    148621.92   -47684.849    3950.1491   -51634.998   0.14578942 
   72000     283.6087    153.34894    148307.37   -47709.226    3894.6825   -51603.909   0.14753871 
   72200    285.39674    11.679296    148475.82   -47744.673    3919.2369    -51663.91   0.14853076 
   72400    284.61635   -171.17561    148709.83   -47725.563    3908.5202   -51634.083   0.14742089 
   72600    286.26596   -17.366809    148528.35   -47693.034    3931.1736   -51624.208   0.14594634 
   72800    284.05863    115.99786    148365.47   -47768.654    3900.8613   -51669.515   0.14895371 
   73000    286.93499    13.010572    148542.15   -47766.595    3940.3611   -51706.956   0.14172987 
   73200    281.45464   -120.33524    148659.15   -47779.474    3865.1017   -51644.576   0.14474265 
   73400    280.47671     23.75984    148455.88   -47773.856    3851.6722   -51625.528   0.14205884 
   73600    284.51214    91.552597     148397.2    -47758.24    3907.0891   -51665.329   0.14310679 
   73800    283.24868   -80.728357    148608.27   -47752.747    3889.7385   -51642.485   0.14373253 
   74000    283.02752   -68.059372    148601.25    -47799.35    3886.7014   -51686.052   0.14112431 
   74200    283.30065    105.95917    148394.18   -47795.307    3890.4522   -51685.759   0.14464492 
   74400    283.28833    34.101079    148453.74   -47758.172     3890.283   -51648.455   0.14721522 
   74600    283.48039   -109.37507    148620.53   -47780.338    3892.9205   -51673.258   0.15068969 
   74800    288.70646     30.74006    148520.96   -47790.101    3964.6879   -51754.789   0.13953922 
   75000    283.64834    95.015332    148411.03   -47754.335    3895.2269   -51649.562   0.14604789 
   75200    285.60821   -26.064341    148564.43   -47741.755     3922.141   -51663.896   0.14412453 
   75400    289.05787   -82.144418    148661.75   -47730.562    3969.5138   -51700.076   0.13739661 
   75600     287.3896    35.630555    148523.36   -47709.526     3946.604    -51656.13   0.14103632 
   75800    289.67615    84.517901    148499.43   -47688.354    3978.0043   -51666.358   0.14397749 
   76000    288.10108   -29.654136    148646.24   -47673.813    3956.3745   -51630.188   0.14369819 
   76200    289.15877   -13.067726    148635.67   -47700.188    3970.8994   -51671.087   0.14174821 
   76400    289.18681    61.882539    148493.28   -47670.546    3971.2844   -51641.831   0.14411252 
   76600    289.33092    59.144126    148550.27   -47657.451    3973.2635   -51630.715   0.14740758 
   76800    292.49135   -69.238562    148691.16   -47658.161    4016.6644   -51674.826   0.14313393 
   77000    288.07445   -32.337422    148596.05   -47659.628    3956.0089   -51615.637   0.14362222 
   77200    290.88526    92.971325    148431.72   -47705.926    3994.6086   -51700.535   0.13887175 
   77400    286.83001    36.793235    148541.24   -47696.107    3938.9194   -51635.026   0.13931042 
   77600    283.93825   -129.49142    148689.07   -47711.001    3899.2081   -51610.209   0.14335005 
   77800     287.4322    52.877755    148524.45   -47723.026    3947.1891   -51670.215   0.14060664 
   78000    283.40841    68.808552    148401.25   -47722.971     3891.932   -51614.903   0.14684124 
   78200    285.82497   -3.0485428    148561.87   -47716.518    3925.1177   -51641.635    0.1475774 
   78400    287.04187   -113.68553    148647.29   -47736.919    3941.8288   -51678.748     0.144051 
   78600    282.72464    21.013366    148457.92   -47754.279     3882.542   -51636.821   0.14601914 
   78800    281.63034    83.340089     148413.6   -47740.235    3867.5145    -51607.75   0.14526423 
   79000     283.9971   -38.333896    148573.32   -47722.262    3900.0163   -51622.278   0.14740527 
   79200    287.63169   -38.910646    148581.96   -47732.943    3949.9286   -51682.872   0.14183712 
   79400    288.19723    18.876189     148465.6   -47686.621    3957.6949   -51644.316   0.14587597 
   79600    287.53358    34.873451     148491.3   -47676.473    3948.5814   -51625.055   0.14632917 
   79800     289.3229   -63.564938     148596.2   -47702.165    3973.1532   -51675.318   0.14187867 
   80000    289.45737   -33.822608    148538.29   -47674.622    3974.9999   -51649.622   0.15103209 
   80200    286.90236    34.849796    148440.51    -47639.84    3939.9131   -51579.753    0.1503608 
   80400    290.65738    33.274207    148533.27   -47609.766    3991.4792   -51601.245   0.14737565 
   80600    286.30839   -48.456282    148621.58   -47629.439    3931.7562   -51561.195   0.14506456 
   80800    289.47425    29.463129    148528.01   -47573.946    3975.2317   -51549.178   0.14467698 
   81000    292.56833    48.148356    148474.02   -47626.203    4017.7215   -51643.924   0.14949089 
   81200    288.74232   -3.0350651    148542.07   -47605.603    3965.1805   -51570.784   0.14732913 
   81400     289.5374   -56.079126    148548.88   -47582.202     3976.099   -51558.301   0.15224496 
   81600     290.1852    9.7104731    148485.01   -47602.234    3984.9949   -51587.229   0.15015597 
   81800    290.24302    32.760114    148488.69   -47606.032     3985.789   -51591.821   0.14651087 
   82000    290.31816    -18.87908    148536.13   -47572.503    3986.8208   -51559.324   0.14888731 
   82200     289.2858   -49.982971    148546.93   -47617.315    3972.6438   -51589.959    0.1479029 
   82400     288.8763    47.337481    148500.03   -47618.535    3967.0203   -51585.555   0.14700106 
   82600    286.83575    7.1986124    148513.77   -47662.874    3938.9983   -51601.872   0.15017637 
   82800    284.57654   -36.120742    148576.22   -47701.137    3907.9735   -51609.111   0.14215292 
   83000     289.1902    4.9135728    148542.77   -47685.482    3971.3309   -51656.813   0.14293736 
   83200    287.84366    10.628598    148499.96   -47706.224    3952.8395   -51659.063   0.14793021 
   83400    283.99988   -57.226999    148555.15    -47725.82    3900.0545   -51625.874   0.14759021 
   83600    283.50357    3.8478877    148557.99   -47741.286    3893.2388   -51634.525   0.14113036 
   83800    287.73381     12.30307    148511.44   -47693.871     3951.331   -51645.202   0.13994842 
   84000    286.53735   -1.1403036    148546.98   -47722.729    3934.9005    -51657.63   0.14256213 
   84200    285.99276   -27.643915    148568.96    -47710.46    3927.4219   -51637.882   0.14318029 
   84400    289.24406    8.9270941    148548.96   -47715.608    3972.0707   -51687.679   0.14168593 
   84600    283.08656    14.233843    148534.92   -47711.911    3887.5122   -51599.423   0.14866431 
   84800    289.16607    24.398722    148548.51   -47721.972    3970.9996   -51692.971   0.14255436 
   85000    285.79613    12.012547    148559.14   -47686.669    3924.7216   -51611.391   0.14404635 
   85200    288.52211   -12.301869    148608.12   -47656.793    3962.1564   -51618.949   0.14657503 
   85400    289.49454   -2.7734888     148616.7   -47644.322    3975.5104   -51619.832   0.14920743 
   85600    290.82906    28.084984    148552.55   -47642.906    3993.8367   -51636.743   0.14528562 
   85800    290.28163    30.511738    148555.29   -47657.015    3986.3191   -51643.334   0.14194049 
   86000    290.83972    4.1462646    148596.89   -47610.847    3993.9832    -51604.83   0.14194797 
   86200      288.519   -22.435559    148621.65   -47621.561    3962.1136   -51583.675   0.14538323 
   86400    293.19484    14.874006    148598.95   -47616.603    4026.3251   -51642.929   0.14571977 
   86600    290.52949    12.960633    148559.34   -47615.228    3989.7229    -51604.95   0.14457189 
   86800    289.37126    2.7307908    148578.71   -47645.346    3973.8174   -51619.164     0.149521 
   87000    283.89937   -58.258433    148596.12   -47666.582    3898.6741   -51565.256    0.1496974 
   87200    291.50232    38.942892    148512.88   -47637.137    4003.0824    -51640.22   0.14787766 
   87400    289.37976    41.785652    148493.85   -47600.978    3973.9342   -51574.913   0.15037103 
   87600    284.61228    -103.0212    148614.18   -47665.885    3908.4642   -51574.349   0.14984957 
   87800    288.15586   -42.043071    148552.84   -47672.232    3957.1268   -51629.359   0.14795702 
   88000    289.43488    146.19817    148388.66   -47623.091    3974.6911   -51597.782   0.14293613 
   88200    294.98332      37.5549    148515.28   -47635.365    4050.8855   -51686.251   0.14247615 
   88400    291.31163   -107.73551    148686.73   -47620.297    4000.4638   -51620.761   0.14570731 
   88600    284.39011   -7.2099416    148493.79   -47633.718    3905.4133   -51539.131   0.15192623 
   88800    291.58226    131.21632    148322.11   -47625.434    4004.1801   -51629.614   0.15230858 
   89000    289.09096   -38.170571    148592.03    -47646.39    3969.9681   -51616.358   0.14844357 
   89200    287.35868   -162.14032    148761.15   -47619.558    3946.1794   -51565.737   0.14914887 
   89400    288.58504    105.61158    148427.97   -47592.507    3963.0206   -51555.527   0.14962581 
   89600    293.86522    243.37697    148279.68   -47614.235    4035.5312   -51649.767   0.14765721 
   89800    285.35733   -87.017441    148690.34   -47649.024    3918.6958    -51567.72   0.15091886 
   90000    286.38474   -220.70104    148758.25   -47665.186    3932.8048   -51597.991   0.15056861 
   90200    287.78901    199.89508     148259.6    -47709.82     3952.089   -51661.909   0.14419443 
   90400    285.63741    158.16086    148309.09   -47730.951     3922.542   -51653.493   0.14340222 
   90600    283.55271   -262.11361    148828.72    -47722.36    3893.9137   -51616.274   0.15124749 
   90800    284.04747   -94.255259    148592.93   -47745.183     3900.708   -51645.891   0.14675245 
   91000    289.05803    348.42699    148078.65   -47745.603     3969.516   -51715.119   0.14270161 
   91200    286.30683    7.4889687    148507.48   -47761.032    3931.7348   -51692.767   0.14595222 
   91400    285.17977    -331.7678    148967.53   -47749.273    3916.2574    -51665.53   0.14344881 
   91600    286.46451    95.611932    148415.97   -47754.543    3933.9002   -51688.443   0.14377269 
   91800     282.4713    349.53293    148088.15   -47729.835    3879.0631   -51608.898   0.14380357 
   92000    282.76106   -108.39697    148729.27    -47746.46    3883.0423   -51629.503   0.14364244 
   92200     282.2776    -322.4594    148942.99   -47768.418     3876.403   -51644.821   0.14796075 
   92400    287.40764    207.20048    148257.06   -47748.564    3946.8519   -51695.416   0.13816775 
   92600     281.9246     258.7031     148177.8   -47804.345    3871.5554     -51675.9   0.14321596 
   92800    278.50714   -274.22674    148830.92   -47773.797     3824.625   -51598.422   0.14855151 
   93000    290.27843   -188.26605    148759.49   -47703.213    3986.2753   -51689.488   0.14392865 
   93200    284.82084    250.70214     148164.1    -47701.72    3911.3284   -51613.049   0.14711184 
   93400    283.50065    117.76235    148336.71    -47705.27    3893.1988   -51598.469   0.14615478 
   93600    286.38094   -256.49104    148854.25   -47688.627    3932.7526    -51621.38   0.15014288 
   93800    287.24303   -85.165329    148587.63   -47678.804    3944.5914   -51623.395   0.14745823 
   94000    291.81343    256.58661    148161.97   -47679.493    4007.3548   -51686.848   0.14635033 
   94200    286.92094    5.4155831    148474.49   -47761.134    3940.1682   -51701.302   0.14852198 
   94400    286.45992   -255.75049    148778.71   -47744.893    3933.8371    -51678.73   0.14639362 
   94600    287.41881    41.682687    148417.04     -47742.4    3947.0052   -51689.405   0.14788503 
   94800    286.68414    204.04276    148213.16   -47793.302    3936.9163   -51730.218   0.14257459 
   95000    283.87708   -82.260181    148581.54   -47799.617    3898.3681   -51697.985   0.14252189 
   95200    281.93202   -192.78417    148693.84   -47804.626    3871.6574   -51676.284   0.14902131 
   95400    287.32945    128.51782    148339.27   -47815.812    3945.7781    -51761.59   0.13865796 
   95600    283.64298    124.85446    148329.15    -47778.88    3895.1533   -51674.033   0.14529642 
   95800    285.97336   -118.72456    148670.85   -47742.587    3927.1554   -51669.742   0.14559396 
   96000    284.29033   -112.83436     148642.4   -47734.087    3904.0431    -51638.13   0.14677391 
   96200    280.43681    112.95166    148354.63   -47775.959    3851.1242   -51627.083   0.14502577 
   96400    285.12938    74.559016     148417.1   -47770.333    3915.5654   -51685.898   0.14187146 
   96600    284.99107   -93.479319    148663.23   -47782.515     3913.666   -51696.181   0.14318296 
   96800    286.18396   -51.426232    148554.78   -47834.603    3930.0475   -51764.651   0.14171754 
   97000    284.15849    124.07035    148318.01   -47818.268    3902.2326   -51720.501   0.14124608 
   97200    281.21758   -0.3160568    148435.55   -47805.207    3861.8462   -51667.053   0.14632715 
   97400    286.85177    -106.3958    148615.07   -47759.478    3939.2183   -51698.696   0.14434221 
   97600    283.81449    24.251432     148490.3   -47731.587    3897.5086   -51629.096   0.14687236 
   97800    286.73551    60.678255    148390.38   -47727.568    3937.6218   -51665.189   0.15038037 
   98000    281.82881   -31.751876    148527.24   -47697.659    3870.2401   -51567.899   0.14796498 
   98200    283.04154   -63.149738    148563.64   -47708.412    3886.8939   -51595.306   0.14346166 
   98400    286.72957    41.483688    148419.62   -47638.239    3937.5402   -51575.779   0.15046801 
   98600    287.26681    18.132594     148430.4   -47686.253    3944.9179   -51631.171   0.15087861 
   98800    289.79591   -53.793205    148552.37    -47649.05     3979.649   -51628.699   0.14602581 
   99000     287.0328   -43.386721    148527.89   -47651.266    3941.7043    -51592.97   0.14845289 
   99200    285.42879    84.296738    148409.79   -47714.689    3919.6771   -51634.367   0.14408464 
   99400    281.83234    -3.306627    148433.24   -47806.064    3870.2884   -51676.353   0.14793086 
   99600    281.45077   -20.358951    148495.95   -47829.272    3865.0485   -51694.321   0.14447256 
   99800    284.96329     3.045311    148467.03   -47801.486    3913.2846    -51714.77   0.14120676 
  100000    285.93425   0.71990136    148436.78   -47801.924    3926.6183   -51728.543   0.14514316 
  100200    285.65429    56.812666    148459.59   -47759.545    3922.7738   -51682.319   0.13984869 
  100400    282.25985   -35.167004    148487.53   -47756.523    3876.1593   -51632.682   0.14419519 
  100600    291.74344   -16.598215    148457.64   -47706.494    4006.3935   -51712.888   0.14718001 
  100800     287.0282    22.771951    148458.71   -47735.044    3941.6412   -51676.685   0.14358787 
  101000    287.41077    2.1665819    148483.72   -47717.552    3946.8947   -51664.447   0.14545456 
  101200    286.04343   -39.752723    148501.27   -47697.072    3928.1177    -51625.19   0.14976513 
  101400    286.41243    -4.025685    148481.38   -47703.395    3933.1851    -51636.58   0.14500093 
  101600    285.72922    51.332874    148438.94     -47719.5    3923.8028   -51643.303   0.14745373 
  101800    284.40653    29.910209    148454.36   -47685.444    3905.6388   -51591.083   0.14819094 
  102000    289.72127   -16.238776    148502.15   -47687.762    3978.6239   -51666.386   0.14283832 
  102200    286.88216   -19.600515    148509.25   -47679.777    3939.6356   -51619.412   0.14599751 
  102400    292.23409    51.814903    148472.46   -47623.046    4013.1315   -51636.178   0.14289419 
  102600    289.69108    4.5784609    148487.24   -47635.155    3978.2094   -51613.365   0.14848938 
  102800    290.89204    6.2960695    148549.22   -47646.634    3994.7016   -51641.336    0.1427747 
  103000     289.6639   -17.472305    148546.41   -47640.573    3977.8362   -51618.409    0.1466516 
  103200    291.31674    83.867474    148478.38   -47621.441    4000.5339   -51621.975   0.14689753 
  103400    291.82339     24.26597    148530.43   -47650.086    4007.4915   -51657.577   0.14105228 
  103600    284.66925   -89.640871    148580.75   -47653.583    3909.2467   -51562.829   0.14883858 
  103800    285.98297    7.5240205     148485.6   -47658.373    3927.2874    -51585.66   0.14729318 
  104000    288.24948    58.272044    148449.48   -47667.844    3958.4125   -51626.256   0.14364474 
  104200    286.39377   -13.563481    148572.58   -47681.354    3932.9287   -51614.283   0.14308976 
  104400    287.47082   -42.817566    148595.56   -47697.824    3947.7194   -51645.543   0.14378314 
  104600    288.18275    48.925671    148455.11   -47693.694    3957.4961    -51651.19   0.14345257 
  104800    287.12937    47.648999    148458.27   -47684.605    3943.0305   -51627.636   0.14331347 
  105000     289.3286    -55.86334     148592.1   -47713.865    3973.2316   -51687.097   0.14030672 
  105200    289.09651   -15.485605    148539.89   -47714.094    3970.0445   -51684.139   0.14134456 
  105400    287.80269    78.258496    148407.74   -47706.838    3952.2769   -51659.115   0.14234977 
  105600    288.21168    8.5392782    148531.65    -47705.79    3957.8934   -51663.683   0.13838019 
  105800    287.32935   -103.23695    148658.16   -47721.974    3945.7767   -51667.751   0.14292717 
  106000    285.41791     24.79529    148497.06   -47702.804    3919.5277   -51622.332   0.14372565 
  106200    282.73818    116.28426    148387.98   -47679.468     3882.728   -51562.196   0.14386688 
  106400     289.5103   -44.414224    148601.52    -47691.75    3975.7268   -51667.477   0.13930907 
  106600    286.40005   -93.039982    148688.16   -47693.231     3933.015   -51626.246    0.1441292 
  106800    285.38841    83.940188    148391.57   -47686.555    3919.1225   -51605.678   0.14361827 
  107000    286.40796    174.85675    148342.44   -47644.185    3933.1237   -51577.309   0.14276588 
  107200    286.91388   -116.07568    148697.15   -47632.728    3940.0712   -51572.799   0.14530321 
  107400     290.4736    -100.7971    148678.92   -47639.887    3988.9554   -51628.842   0.14087059 
  107600    285.48793    203.95571    148250.28   -47617.077    3920.4892   -51537.566   0.14793858 
  107800    291.55541    103.47309    148355.48   -47639.488    4003.8114   -51643.299   0.14266885 
  108000    290.24527   -264.04072    148814.28   -47615.741    3985.8198   -51601.561   0.15065396 
  108200    290.32814    -56.65937    148579.73   -47649.068    3986.9578   -51636.026   0.14784894 
  108400    287.79018    286.58866    148168.89   -47645.409     3952.105   -51597.514   0.14405853 
  108600     289.5297   -23.932864    148556.14   -47617.855    3975.9933   -51593.848   0.14347868 
  108800    283.20449   -278.08404    148883.46   -47637.638    3889.1317    -51526.77   0.14608945 
  109000    284.14122    104.11587    148397.29   -47675.756    3901.9955   -51577.752   0.14557919 
  109200    289.12202    258.38117    148174.16   -47678.649    3970.3947   -51649.044   0.14325683 
  109400    285.87264   -152.09405    148739.88   -47664.392    3925.7723   -51590.164   0.14127241 
  109600    285.02027   -200.51891    148850.26   -47623.944    3914.0671   -51538.011   0.14536993 
  109800    291.94202    238.66663    148258.16   -47675.936    4009.1207   -51685.057   0.14262341 
  110000    287.96932    163.45069    148316.24   -47616.223    3954.5651   -51570.789   0.14720889 
  110200    289.77624   -307.94201    148908.98   -47602.737    3979.3789   -51582.116   0.14938413 
  110400    288.79906   -131.67716    148686.97    -47653.66    3965.9596    -51619.62   0.14732594 
  110600    282.22523     281.2169    148118.88    -47723.95    3875.6839   -51599.634   0.14268529 
  110800    285.26658    69.781478    148438.56   -47723.422    3917.4495   -51640.871   0.14201122 
  111000    284.28405   -359.59826    148954.08   -47723.291    3903.9568   -51627.247   0.14483451 
  111200    285.07344    11.591578    148512.86   -47711.559    3914.7972   -51626.356   0.14124057 
  111400    286.89197    335.31049    148106.03   -47764.273    3939.7704   -51704.043   0.13693409 
  111600    282.55391   -73.431169    148597.24   -47817.582    3880.1975   -51697.779   0.13573249 
  111800    285.08898   -235.34535    148843.89   -47849.727    3915.0106   -51764.738   0.13828845 
  112000    281.74108    122.80133    148335.28   -47841.143    3869.0352   -51710.179   0.13892323 
  112200     283.1108    201.66591    148211.26   -47801.022    3887.8451   -51688.868   0.14435433 
  112400    285.08497   -173.36525    148729.68   -47769.439    3914.9556   -51684.394    0.1413178 
  112600    285.92578   -171.21854    148728.28   -47744.712     3926.502   -51671.214   0.14307787 
  112800    284.74801    187.55028    148245.18   -47760.416    3910.3282   -51670.744   0.13860191 
  113000    281.79136    129.70679    148371.62   -47739.186    3869.7258   -51608.911    0.1393009 
  113200    288.83936   -185.14875    148815.89   -47774.369     3966.513   -51740.882   0.13767883 
  113400    287.95246     -24.5786    148592.25    -47755.13    3954.3336   -51709.463   0.13834473 
  113600     285.1121    233.18933    148217.17    -47760.02    3915.3281   -51675.348   0.13812551 
  113800    282.53016    18.990072    148544.35   -47743.992    3879.8713   -51623.864   0.13945636 
  114000    287.80204   -232.42321    148846.71   -47728.383     3952.268   -51680.651    0.1454644 
  114200    286.26162    74.457407    148456.01   -47740.941     3931.114   -51672.055   0.14105409 
  114400    289.61879    226.93754    148249.42   -47683.342    3977.2166   -51660.559   0.14030731 
  114600    292.97338    -118.5184    148703.89   -47657.018    4023.2838   -51680.302   0.14234773 
  114800    287.89765   -216.26079    148787.32   -47642.655    3953.5809   -51596.236   0.14978905 
  115000    286.03394    170.68433    148313.14   -47669.687    3927.9873   -51597.675   0.14405667 
  115200    286.79171    185.03076    148328.66   -47685.838    3938.3935   -51624.232    0.1412559 
  115400    286.65072   -165.40374    148794.78   -47696.894    3936.4573   -51633.352   0.14165373 
  115600    286.51171   -102.29988    148687.49   -47680.107    3934.5484   -51614.655   0.14484858 
  115800    285.13453     203.3986    148280.19   -47695.663    3915.6361     -51611.3   0.14265616 
  116000    288.66024    63.817485    148460.78   -47682.858    3964.0533   -51646.911   0.14812829 
  116200    284.23936   -209.26213     148796.3   -47699.239    3903.3431   -51602.582   0.14960275 
  116400    290.84239    16.774308    148532.88   -47740.525    3994.0198   -51734.545   0.13876154 
  116600    292.96534    200.55112    148255.58   -47752.469    4023.1735   -51775.642   0.13840241 
  116800    283.91659   -28.735407    148545.27   -47708.808    3898.9107   -51607.719   0.14436458 
  117000    290.05427   -163.11476    148745.55   -47716.262    3983.1969   -51699.459   0.14352031 
  117200    289.00661    40.770015    148466.27   -47706.259    3968.8098   -51675.069   0.14280717 
  117400    288.65716     137.0234    148347.73   -47732.311     3964.011   -51696.322   0.14071767 
  117600    283.69838   -51.338822    148565.72   -47712.221     3895.914   -51608.135   0.14925482 
  117800    289.03966   -64.888804    148621.62   -47673.658    3969.2637   -51642.922   0.14424902 
  118000    290.52951    32.858988    148470.18   -47664.954    3989.7232   -51654.677   0.14545759 
  118200    284.05489    49.957198    148444.42   -47697.811    3900.8099   -51598.621   0.14537271 
  118400    283.89036   -4.3582734    148561.88   -47747.093    3898.5505   -51645.643   0.14292905 
  118600    283.95792   -55.499795    148539.02   -47773.959    3899.4783   -51673.437   0.14372653 
  118800    279.72367    74.424584    148430.88   -47822.594     3841.331   -51663.925   0.13699563 
  119000    281.30148    18.052167    148465.62   -47821.731    3862.9984    -51684.73    0.1404967 
  119200    284.96699   -34.684075     148535.4   -47823.889    3913.3353   -51737.224   0.14258514 
  119400    282.13939    29.090496    148494.28   -47849.029    3874.5051   -51723.534    0.1404749 
  119600    282.06804    8.8745949    148449.99   -47789.424    3873.5252    -51662.95   0.14338713 
  119800    283.16774   -2.0787935    148496.81   -47785.981    3888.6271   -51674.608   0.14259834 
  120000    285.86208   0.46693507    148532.15   -47804.428    3925.6273   -51730.055   0.13746781 
  120200    285.12786    16.778512    148468.66   -47777.703    3915.5445   -51693.247   0.13911186 
  120400    280.27324    27.005359    148459.22   -47822.802     3848.878    -51671.68   0.14125341 
  120600    283.73316   -16.757742    148537.75   -47816.307    3896.3917   -51712.699    0.1419483 
  120800    283.62593    28.229862    148516.83   -47806.887    3894.9191   -51701.806   0.13781878 
  121000    283.41481    40.449583    148469.61   -47792.214      3892.02   -51684.234   0.13927415 
  121200     281.6178   -4.0351263    148496.23   -47790.971    3867.3423   -51658.313   0.14405885 
  121400    283.81456   -8.7628986    148539.48   -47790.215    3897.5095   -51687.724   0.14343926 
  121600    284.85572  -0.46050147    148520.58   -47779.718    3911.8073   -51691.525   0.14148985 
  121800    286.41739    25.693274    148486.15   -47778.275    3933.2531   -51711.528   0.13812299 
  122000     278.4093    -23.55476    148523.07    -47755.53    3823.2813   -51578.811   0.14376251 
  122200    286.93956    -9.071129    148563.07   -47725.146    3940.4239    -51665.57   0.13902357 
  122400     284.4371    32.777168    148542.21   -47679.684    3906.0586   -51585.743   0.14013495 
  122600    291.88802    49.799001    148521.99   -47602.872     4008.379   -51611.251   0.14372856 
  122800    288.98335   -21.228873    148548.63   -47603.036    3968.4904   -51571.526   0.14762241 
  123000    285.26775    2.3744108    148563.57   -47647.942    3917.4656   -51565.407   0.14357005 
  123200    285.25866   -43.892944    148540.24   -47671.332    3917.3408   -51588.673   0.14322646 
  123400    283.79419   -13.642211    148501.51   -47753.907    3897.2298   -51651.137   0.14202174 
  123600    282.34189    11.198501    148479.55   -47701.289    3877.2859   -51578.575   0.14645232 
  123800    289.55513    21.955551    148519.54       -47724    3976.3424   -51700.342   0.13812373 
  124000    289.24236   -28.576673     148552.6   -47706.878    3972.0474   -51678.926   0.14034238 
  124200    284.37626   -35.950492    148490.91   -47691.057    3905.2231    -51596.28    0.1504484 
  124400    286.17305    92.007952    148429.81   -47704.767    3929.8977   -51634.665   0.14325126 
  124600    286.22309    -13.71574    148511.18   -47722.188    3930.5849   -51652.773   0.14393686 
  124800    284.25328   -87.696989     148514.8   -47725.142    3903.5344   -51628.677   0.14541908 
  125000     284.5691    51.771169    148393.38   -47732.846    3907.8714   -51640.717   0.14535946 
  125200    287.67494    18.211976    148430.86   -47724.687    3950.5226    -51675.21     0.149077 
  125400    285.66862     -104.742     148568.9   -47791.741    3922.9705   -51714.711   0.14199345 
  125600    283.28179   -11.564857    148468.21   -47785.184    3890.1932   -51675.377   0.14279663 
  125800    287.80494    103.24408    148342.24   -47775.847    3952.3078   -51728.155   0.14108427 
  126000    288.34823   -3.4561227    148538.21   -47744.142    3959.7685   -51703.911    0.1389737 
  126200    287.37224   -99.491451    148662.08   -47723.845    3946.3657   -51670.211   0.14349765 
  126400    280.67663    6.7883287     148437.7   -47752.749    3854.4176   -51607.167   0.14817636 
  126600    279.56473    81.970729    148340.87   -47777.607    3839.1483   -51616.756   0.14834005 
  126800    285.57212   -65.305474    148623.24   -47750.291    3921.6454   -51671.937   0.14247693 
  127000    283.31523   -100.49763    148687.75   -47766.992    3890.6524   -51657.645   0.13889759 
  127200    285.48568    119.29475    148381.53   -47801.078    3920.4583   -51721.536   0.13934501 
  127400    279.45692    63.522953    148359.19    -47801.05    3837.6678   -51638.717   0.14527369 
  127600     282.7044   -95.588197    148682.92   -47794.803    3882.2642   -51677.067   0.14024522 
  127800    281.73509   -46.990719     148635.7   -47784.476     3868.953   -51653.429   0.14179793 
  128000    288.21706     146.5648    148324.64     -47781.7    3957.9672   -51739.667   0.14245804 
  128200    285.60361    54.001342     148413.1   -47748.381    3922.0778   -51670.459   0.14547849 
  128400    281.64082    -159.8551       148723   -47774.325    3867.6585   -51641.984   0.14375092 
  128600    282.64766   -62.891985    148552.42    -47805.51    3881.4849   -51686.995   0.14395233 
  128800    278.54502    172.75338    148220.28   -47841.906    3825.1451   -51667.051   0.14786678 
  129000    284.76238    19.242613    148462.43    -47875.67    3910.5255   -51786.195   0.13823355 
  129200    283.76062   -206.74733    148762.81   -47832.641    3896.7687   -51729.409   0.14064416 
  129400     280.0132    78.482329    148437.84   -47831.687    3845.3069   -51676.994   0.14043009 
  129600    281.66938    224.58133    148211.24   -47831.649    3868.0507   -51699.699   0.14268234 
  129800     282.7729   -120.75267    148636.47   -47844.206    3883.2049   -51727.411   0.14036386 
  130000    278.81894   -224.77077    148776.45   -47852.932    3828.9068   -51681.839   0.14485866 
  130200    277.21189      152.876     148252.2   -47871.292    3806.8378   -51678.129   0.14523756 
  130400     284.3981    234.56753    148201.13   -47856.242    3905.5231   -51761.765   0.13994726 
  130600    283.33706   -238.79807    148821.47   -47811.189    3890.9522   -51702.141   0.14522644 
  130800    281.84666   -184.99153    148747.27   -47830.499    3870.4852   -51700.984   0.14494307 
  131000    281.98535     320.1267    148085.42   -47848.734    3872.3898   -51721.124   0.14483872 
  131200    286.49632    171.95629    148323.82   -47823.885    3934.3371   -51758.223   0.13803185 
  131400    287.18611    -370.6352     149048.7   -47823.887    3943.8097   -51767.697   0.13978022 
  131600      286.539    -91.59773    148669.86   -47817.129    3934.9232   -51752.053   0.14068529 
  131800    283.24737     393.8263     147988.1   -47787.888    3889.7205   -51677.608   0.14648815 
  132000    284.46575    39.989522    148496.76   -47735.174     3906.452   -51641.626   0.14391272 
  132200    289.26094   -404.64993    149071.19   -47740.985    3972.3024   -51713.287   0.14195884 
  132400    285.18766    71.724754     148446.9    -47744.73    3916.3657   -51661.096   0.14240984 
  132600    287.62388     379.5769    148021.03   -47721.123    3949.8214   -51670.944   0.14706228 
  132800    284.83307   -132.60551    148679.12   -47693.923    3911.4963    -51605.42   0.14914169 
  133000    288.82927   -308.57617    148946.06   -47687.635    3966.3745    -51654.01   0.14729653 
  133200     288.2115    160.28082    148338.98    -47636.27     3957.891   -51594.161   0.15128079 
  133400     289.1256    234.65009    148252.51   -47623.735    3970.4438   -51594.179   0.14662341 
  133600    287.56199   -181.07331    148794.21   -47637.436    3948.9715   -51586.407   0.14579427 
  133800    289.38165   -190.96005     148788.1   -47657.573    3973.9601   -51631.533   0.14739071 
  134000     291.1415    182.27124    148330.78   -47608.073    3998.1274   -51606.201    0.1499295 
  134200    291.69666    121.52574    148396.45   -47622.726    4005.7512   -51628.477    0.1442846 
  134400    286.15865    -122.8732    148744.56   -47621.587    3929.6999   -51551.287   0.14549857 
  134600    290.07146   -57.967403    148629.39   -47637.106     3983.433   -51620.539   0.14714962 
  134800     291.7419    144.37543     148347.6    -47679.48    4006.3724   -51685.853   0.14528576 
  135000    285.93072    25.529464     148486.6   -47733.729    3926.5699   -51660.299   0.14608405 
  135200    290.32906   -99.526531    148724.31   -47743.394    3986.9705   -51730.364   0.14210865 
  135400    284.42366   -34.158607    148578.75    -47764.45    3905.8741   -51670.324   0.14855889 
  135600    289.67275    169.80324    148388.23   -47729.186    3977.9576   -51707.144   0.13725592 
  135800    281.88228   -52.748233    148573.47     -47800.3    3870.9744   -51671.274   0.13952976 
  136000    278.50724   -104.33703    148672.08   -47831.243    3824.6263   -51655.869   0.14120641 
  136200    284.17093     55.50361    148468.61   -47843.124    3902.4034   -51745.527   0.14143455 
  136400    281.95773    84.361574    148413.14   -47797.697    3872.0104   -51669.707   0.14353134 
  136600    285.03367   -20.002902    148622.21   -47742.546    3914.2511   -51656.797   0.13825536 
  136800    285.34169   -66.998744    148656.36   -47751.383     3918.481   -51669.864   0.14105483 
  137000    288.34493    88.041989    148424.43   -47756.593    3959.7233   -51716.316   0.14173367 
  137200    283.43248    79.490907    148397.21   -47788.032    3892.2625   -51680.294   0.14653868 
  137400    286.32895   -96.217844    148636.19   -47746.551    3932.0386   -51678.589   0.15219279 
  137600    284.58235   -67.053818    148620.53   -47737.862    3908.0533   -51645.915   0.15309186 
  137800    286.65956     97.54871    148388.02   -47711.756    3936.5788   -51648.335   0.14463434 
  138000    288.09822    48.823675    148466.17   -47710.002    3956.3353   -51666.337   0.14008985 
  138200    284.59475   -127.18455    148657.95   -47758.224    3908.2235   -51666.448   0.14316947 
  138400    286.09006    46.042179    148504.43   -47742.911    3928.7581   -51671.669    0.1450895 
  138600    285.58491    127.27253    148361.42   -47756.446     3921.821   -51678.267   0.14811852 
  138800    286.95054   -23.747329    148567.74   -47708.091    3940.5746   -51648.666   0.14534403 
  139000    287.82081   -128.40795    148710.93   -47695.873    3952.5258   -51648.398   0.14768622 
  139200    290.20753    83.720635    148439.84   -47697.264    3985.3016   -51682.565   0.14390784 
  139400    285.26692     142.2537    148329.45    -47724.21    3917.4541   -51641.665   0.14630148 
  139600    288.59804   -107.79831    148674.38   -47706.152    3963.1991   -51669.351   0.14888315 
  139800    286.45218   -116.57534    148720.21   -47666.336    3933.7309   -51600.067    0.1477024 
  140000    285.15403      121.173    148350.92    -47633.74     3915.904   -51549.644   0.14820068 
  140200    288.92372    123.90576    148381.84   -47676.498    3967.6715    -51644.17   0.13766964 
  140400       286.45   -160.40102    148765.99   -47700.532     3933.701   -51634.233    0.1418597 
  140600    285.37554   -99.246962    148644.33   -47699.459    3918.9459   -51618.405   0.15115784 
  140800    286.32047    222.44379    148248.64     -47692.5    3931.9222   -51624.423   0.14770135 
  141000    288.71666     67.70187    148464.07   -47730.341     3964.828   -51695.169   0.14163778 
  141200    291.40994   -240.37771    148854.67   -47682.038    4001.8138   -51683.852   0.14250931 
  141400    285.39335   -30.309978    148524.25   -47687.201    3919.1903   -51606.391    0.1477915 
  141600    287.10788    301.10158    148156.06   -47669.899    3942.7353   -51612.635   0.14763883 
  141800    290.50739   -87.818991    148622.55   -47724.127    3989.4194   -51713.547   0.14651867 
  142000    286.07385   -305.97721    148877.28   -47737.903    3928.5355   -51666.439    0.1505221 
  142200     281.6647    147.03739    148286.92   -47734.231    3867.9864   -51602.217   0.14609336 
  142400     284.9912    258.72558    148137.56   -47737.917    3913.6678   -51651.585   0.14077971 
  142600    285.45582    -224.3496    148800.39   -47729.551    3920.0483   -51649.599    0.1481548 
  142800    280.75596    -245.5163    148831.44   -47732.135     3855.507   -51587.642   0.15157005 
  143000    281.06011    263.12105    148137.52   -47793.124    3859.6838   -51652.808   0.14567511 
  143200    285.31576    195.00553     148236.2   -47762.956    3918.1249    -51681.08   0.14467471 
  143400    285.43076   -310.64999       148927   -47727.554    3919.7041   -51647.258   0.15086738 
  143600    289.50312   -129.39162    148681.06     -47717.5    3975.6282   -51693.128   0.14968625 
  143800    284.80074    339.31488    148090.78   -47727.926    3911.0524   -51638.978   0.14849637 
  144000     289.3613    66.179953    148465.54   -47717.484    3973.6806   -51691.164   0.14910634 
  144200    287.41802   -341.49453    148944.57   -47688.466    3946.9943    -51635.46   0.14964324 
  144400    283.99814     47.87772    148477.12   -47691.374    3900.0305   -51591.404   0.14974393 
  144600    291.27661    304.75312    148165.36   -47664.712    3999.9828   -51664.694   0.14219433 
  144800    287.93748   -123.80335    148709.63   -47635.651    3954.1279   -51589.779   0.14787453 
  145000    289.83063   -235.95417    148890.83   -47676.941    3980.1258   -51657.067   0.14714572 
  145200    288.87599    162.45322    148325.31   -47707.261    3967.0161   -51674.277   0.14591949 
  145400    283.65201    214.64772    148254.56   -47712.494    3895.2773   -51607.771   0.14502896 
  145600    282.27024   -196.12434    148782.03   -47730.917     3876.302   -51607.219   0.14474607 
  145800      285.953   -168.16954    148716.02   -47746.864    3926.8758    -51673.74   0.15039122 
  146000    285.88105    190.33013    148273.33   -47734.534    3925.8879   -51660.422   0.14850295 
  146200    281.93123    82.183935    148418.94   -47765.917    3871.6465   -51637.564   0.14382562 
  146400    283.51894   -164.87719     148729.2   -47719.231    3893.4499   -51612.681   0.15025941 
  146600    284.93225   -66.605152    148578.24   -47684.114    3912.8583   -51596.972   0.15112691 
  146800    289.61488    120.31413    148394.39   -47640.556     3977.163   -51617.719   0.14190558 
  147000     284.3189   -13.331934     148530.2    -47654.79    3904.4354   -51559.225   0.15207341 
  147200    290.07021   -63.134544    148650.61   -47623.405    3983.4158   -51606.821   0.15283913 
  147400    286.03079    6.4842941    148551.16   -47687.785    3927.9442   -51615.729   0.14846943 
  147600    286.77123    40.515538    148478.03   -47700.354    3938.1122   -51638.466   0.14620061 
  147800    285.74594    11.691801    148542.01   -47742.131    3924.0324   -51666.163   0.14508688 
  148000    283.55836   -32.678637    148550.14   -47706.539    3893.9913   -51600.531    0.1506011 
  148200    286.00825    11.213309    148496.51   -47748.956    3927.6346   -51676.591   0.14445912 
  148400    279.03862   -16.148356    148473.41   -47796.743    3831.9235   -51628.666   0.14829183 
  148600    284.74353    14.697273    148505.64   -47766.899    3910.2667   -51677.165   0.14406387 
  148800    280.90552   -14.963375    148548.52   -47769.865    3857.5609   -51627.426   0.14380135 
  149000    283.66186   -44.412529    148494.44   -47776.995    3895.4126   -51672.408   0.14499611 
  149200    283.34529    57.499021     148444.8    -47782.24    3891.0652   -51673.305   0.14659414 
  149400    283.24566    12.477976    148477.52   -47803.993    3889.6971    -51693.69   0.14758374 
  149600    283.26186   -14.280761    148522.08   -47804.044    3889.9195   -51693.964   0.14560881 
  149800    279.61016    9.4873548     148500.2   -47789.588    3839.7722   -51629.361   0.14802187 
  150000    286.93303    28.014917    148486.54   -47749.068    3940.3342   -51689.402   0.14595125 
  150200     285.7147   -5.6239689    148539.72   -47695.547    3923.6034    -51619.15   0.15299456 
  150400    287.59351   -8.6107631    148564.97   -47666.819    3949.4043   -51616.224   0.14804387 
  150600     285.7328     5.028915    148510.11   -47717.067    3923.8519   -51640.919   0.14546582 
  150800    289.30478    30.332461    148499.81   -47681.084    3972.9045   -51653.989   0.14766429 
  151000    289.06903   -39.339753    148613.63   -47721.313    3969.6671   -51690.981   0.14501393 
  151200    282.26648   -78.650698    148591.49   -47708.534    3876.2504   -51584.784   0.15235857 
  151400    289.57236    72.879715    148458.72   -47624.026    3976.5791   -51600.605   0.15221856 
  151600    289.87263   -28.762642    148569.22   -47611.069    3980.7025   -51591.772   0.15821853 
  151800    293.40413   -86.938105    148691.46   -47623.754    4029.1992   -51652.953   0.15008687 
  152000    290.87282  -0.28545231    148539.26   -47625.483    3994.4377   -51619.921    0.1486747 
  152200    289.09813    117.38309    148434.15   -47645.424    3970.0666   -51615.491   0.14981266 
  152400     286.5372   -45.293836       148626   -47693.397    3934.8985   -51628.295   0.14947357 
  152600    284.57943   -110.50121    148679.16   -47662.246    3908.0132   -51570.259   0.15080411 
  152800    288.29301    99.297081    148442.95   -47596.272    3959.0102   -51555.282    0.1472556 
  153000    288.35356    76.305612    148440.04   -47664.688    3959.8417    -51624.53   0.15052509 
  153200    290.41036   -78.192873    148691.87   -47606.931     3988.087   -51595.018   0.14832162 
  153400    286.75608   -94.085258    148628.85   -47658.309    3937.9042   -51596.213   0.15031865 
  153600    289.92496     150.4844    148313.33   -47685.169    3981.4212   -51666.591   0.14761677 
  153800    290.34259      42.8135     148438.1   -47714.269    3987.1563   -51701.426   0.15514304 
  154000    283.89406   -172.67277    148731.71   -47726.877    3898.6013   -51625.478   0.15260784 
  154200    289.27143    5.7043889     148516.5    -47674.46    3972.4466   -51646.907   0.14785784 
  154400    286.46321    178.20364    148261.37   -47667.677    3933.8823   -51601.559   0.15355599 
  154600    290.12454   -69.864826    148546.06   -47689.651    3984.1619   -51673.812   0.15445611 
  154800    283.19021   -188.80081    148739.72   -47702.692    3888.9356   -51591.627   0.15236146 
  155000    285.08679    80.743473    148411.28   -47691.576    3914.9806   -51606.557   0.15107292 
[...]
  163200    283.29416    49.620725    148453.93   -47761.233    3890.3631   -51651.596   0.14817152 
  163400    285.43022    248.94459    148194.97   -47796.152    3919.6967   -51715.849   0.14758292 
  163600    286.65314   -92.557664    148677.27   -47746.454    3936.4906   -51682.945   0.14351265 
  163800    283.62182   -215.17178    148806.07   -47804.422    3894.8626   -51699.285   0.14606552 
  164000    284.82971    166.23324    148286.68   -47820.379    3911.4502   -51731.829   0.14761402 
  164200    281.84237    194.68776    148233.74   -47817.413    3870.4263   -51687.839   0.15489954 
  164400    279.67899   -219.39243    148719.32   -47760.665    3840.7174   -51601.382   0.15274319 
  164600    282.46595   -159.60485    148696.15   -47739.581    3878.9896    -51618.57   0.14929226 
  164800    284.77101    199.58239    148264.95   -47777.329     3910.644   -51687.973   0.15393328 
  165000    282.75085    77.819706    148394.85   -47754.355     3882.902   -51637.257   0.15677056 
  165200    282.45536   -186.26413    148771.79   -47749.573    3878.8442   -51628.417   0.15126414 
  165400    285.58572   -28.644092    148576.03    -47779.12    3921.8321   -51700.952   0.14160038 
  165600     285.8658    193.37472    148285.42    -47718.07    3925.6783   -51643.748   0.14940147 
  165800    290.15209  -0.24582392    148543.94   -47743.647    3984.5402   -51728.188    0.1406857 
  166000    288.95963   -145.64614    148761.85   -47702.727    3968.1646   -51670.892   0.14480506 
  166200    284.72788    44.341739    148483.98   -47732.967    3910.0517   -51643.019   0.15104157 
  166400    283.93739     107.4819    148358.22   -47729.375    3899.1963   -51628.571   0.15127167 
  166600    290.12001   -71.048888    148637.69   -47725.093    3984.0998   -51709.192   0.14492773 
  166800    284.65161   -94.854588    148664.62   -47783.727    3909.0044   -51692.731     0.141273 
  167000     279.3951    86.771964    148373.03   -47784.644     3836.819   -51621.463   0.15670881 
  167200    284.44357    81.574026    148420.27   -47733.234    3906.1474   -51639.382   0.15287942 
  167400    283.21334    -131.1742    148677.27   -47778.554    3889.2533   -51667.807   0.14462566 
  167600     282.9362   -15.676184    148580.01   -47760.624    3885.4474   -51646.071    0.1434033 
  167800    282.82044    150.79036    148379.09    -47828.27    3883.8576   -51712.128   0.14481357 
  168000    284.13752    17.274426    148515.25   -47816.944    3901.9446   -51718.889   0.14189512 
  168200    280.73133   -102.65001    148656.07   -47814.341    3855.1688    -51669.51    0.1477736 
  168400    280.30406    38.127056    148477.45   -47770.618    3849.3012   -51619.919   0.15092534 
  168600    282.65555    127.36204    148328.92   -47781.549    3881.5933   -51663.143   0.15196686 
  168800    286.28469   -9.2057912    148532.19   -47821.344    3931.4308   -51752.774   0.14283261 
  169000    283.56699   -86.541093    148632.37   -47805.856    3894.1097   -51699.966   0.14234235 
  169200    284.67237    62.603989    148398.69    -47776.48    3909.2895    -51685.77   0.15280893 
  169400     283.2653    84.020161    148359.59   -47801.916    3889.9668   -51691.883   0.14918694 
  169600    282.98636   -62.316533    148591.31   -47811.717    3886.1362   -51697.853   0.14615122 
  169800    283.23998   -51.569038    148594.43   -47816.721     3889.619    -51706.34   0.14174799 
  170000    279.71933    71.338369     148350.5   -47854.981    3841.2714   -51696.252   0.14679827 
  170200    283.83538      91.0447    148377.29   -47864.149    3897.7954   -51761.945   0.14053164 
  170400    290.74787   -51.596466    148596.86   -47836.037    3992.7218   -51828.759   0.13813633 
  170600    280.72954   -45.865084    148529.34   -47815.187    3855.1442   -51670.331   0.15197463 
  170800    278.21803    81.342944    148302.54   -47838.906    3820.6546    -51659.56   0.15472816 
  171000    281.11967    56.624799    148381.83    -47838.11    3860.5017   -51698.612   0.14317192 
  171200    279.87813   -129.64151    148595.36   -47864.389    3843.4521   -51707.841   0.14205033 
  171400    276.43253   -50.276209    148487.66   -47859.077    3796.1351   -51655.212   0.15402604 
  171600    282.75107    162.66608    148273.11   -47823.744     3882.905   -51706.649   0.15233881 
  171800    287.02766    10.362017    148475.06   -47802.923    3941.6338   -51744.557   0.14567937 
  172000    283.81136   -213.95694    148744.46   -47807.865    3897.4655    -51705.33   0.14462386 
  172200    278.27406    52.946528    148428.79   -47812.272     3821.424   -51633.696   0.14954559 
  172400    283.97874    273.47749    148142.85   -47781.648    3899.7642   -51681.412   0.14688739 
  172600    283.89357   -101.13856    148582.51   -47766.862    3898.5945   -51665.457   0.14850887 
  172800    285.91689   -277.51745    148831.68   -47773.745      3926.38   -51700.125   0.15273209 
  173000    283.47837    149.72921    148266.66   -47792.379    3892.8927   -51685.271   0.15016776 
  173200    280.92345    292.08589    148072.96   -47829.138    3857.8071   -51686.945   0.15144324 
  173400    279.99857   -230.54629    148733.55    -47815.93    3845.1061   -51661.036   0.14872022 
  173600    285.89259   -297.86408    148845.84   -47766.573    3926.0463    -51692.62   0.15400651 
  173800    285.73675    245.85435    148148.15   -47766.429    3923.9062   -51690.336   0.15010234 
  174000    287.20064    253.16841    148202.24   -47732.474    3944.0092   -51676.483   0.14311404 
  174200    286.41513   -358.97141    148960.23   -47726.163    3933.2221   -51659.385   0.14500157 
  174400    286.98737   -175.16993    148754.63   -47709.726    3941.0804   -51650.806   0.14580636 
  174600    287.18745    375.16535    148032.21   -47720.516     3943.828   -51664.344   0.14529023 
  174800    290.46874    132.17419    148411.54   -47687.725    3988.8887   -51676.614   0.14150719 
  175000    283.68906   -443.93289    149072.48   -47731.831    3895.7861   -51627.618   0.15438115 
  175200    283.94064   -23.330752    148529.25   -47730.432    3899.2409   -51629.673   0.15272685 
  175400    283.89578    392.08588    147987.91   -47739.265    3898.6249    -51637.89   0.14878548 
  175600    283.85338   -86.444468     148606.8    -47751.96    3898.0426   -51650.003   0.14325841 
  175800    285.65966   -319.87013    148984.25   -47734.147    3922.8475   -51656.995   0.14515365 
  176000    287.15116    91.637814    148378.07    -47723.34    3943.3297    -51666.67    0.1508169 
  176200    288.82763    298.10948    148171.81   -47674.011     3966.352   -51640.363    0.1413688 
  176400    291.83903   -84.732635     148749.9   -47712.718    4007.7063   -51720.424   0.13841033 
  176600    286.37864   -217.68437    148804.25   -47692.357     3932.721   -51625.078   0.15320641 
  176800    284.74996    183.93241    148282.81   -47699.265     3910.355    -51609.62   0.15015165 
  177000    289.71893     159.3904    148315.51   -47716.513    3978.5918   -51695.105   0.14590393 
  177200    285.79683   -167.49179    148754.33   -47729.612    3924.7313   -51654.343   0.15080366 
  177400    282.08431   -111.38876     148626.7   -47817.589    3873.7488   -51691.337   0.15122178 
  177600    286.76386    182.38328    148239.29   -47783.072    3938.0111   -51721.083   0.14620484 
  177800    284.09581    56.359984    148387.14   -47762.281    3901.3718   -51663.653   0.14583652 
  178000    282.98709   -205.57693    148724.27   -47719.556    3886.1463   -51605.702   0.15302507 
  178200    284.57448   -107.72171    148524.99   -47754.704    3907.9452   -51662.649   0.15354987 
  178400    285.26143    208.18363    148247.67   -47729.519    3917.3788   -51646.898   0.13943837 
  178600    289.69496    12.482247    148511.34   -47746.689    3978.2627   -51724.952   0.14392011 
  178800    288.80377   -164.40231     148715.9   -47715.755    3966.0244   -51681.779   0.15008849 
  179000    285.04408    74.297314    148404.34   -47689.467     3914.394   -51603.861   0.14997282 
  179200    283.11242    161.78181    148277.52   -47712.611    3887.8673   -51600.478   0.14806441 
  179400    290.40839   -115.20975    148598.67   -47688.659    3988.0599   -51676.719   0.15425544 
  179600    286.37254   -129.10479    148668.87   -47693.111    3932.6372   -51625.748    0.1512548 
  179800    286.56737    108.61707    148341.91   -47722.376    3935.3128   -51657.689   0.14593181 
  180000    287.60126    124.47994       148355   -47689.897    3949.5108   -51639.407   0.14508683 
  180200    294.21778   -86.872186    148690.39   -47652.116    4040.3727   -51692.489   0.14623442 
  180400    289.21892   -52.247683    148631.02   -47608.836    3971.7254   -51580.562   0.15014198 
  180600    290.10564    118.58488    148325.12   -47696.418    3983.9024    -51680.32   0.14439222 
  180800    287.87198    60.724489    148443.78   -47661.474    3953.2284   -51614.702   0.14795189 
  181000    292.78551   -146.80801    148724.82   -47702.578    4020.7039   -51723.282   0.14444855 
  181200    284.77897   -33.423828    148542.61   -47685.366    3910.7533   -51596.119   0.15356228 
  181400    284.71668    160.20953    148310.11   -47724.095     3909.898   -51633.993   0.15059907 
  181600    284.82259   -47.731757    148557.16   -47745.302    3911.3524   -51656.654   0.14956413 
  181800    283.41568   -149.20968    148729.18   -47716.126    3892.0319   -51608.158   0.15066446 
  182000    288.35294    82.849411    148454.62   -47725.273    3959.8332   -51685.106   0.13898064 
  182200    290.34677    148.87813    148375.08    -47741.96    3987.2136   -51729.174   0.13956907 
  182400    287.33362   -78.597387    148670.93   -47742.789    3945.8353   -51688.624   0.14315728 
  182600    286.14513   -137.62238    148681.36   -47707.124    3929.5143   -51636.638    0.1469383 
  182800    290.46936    138.46142    148417.21   -47672.079    3988.8972   -51660.977   0.14057149 
  183000    288.45071    66.707689    148464.92   -47672.879    3961.1759   -51634.055   0.14514274 
  183200    288.09937   -115.21348    148722.97   -47653.302    3956.3511   -51609.653   0.15157581 
  183400    288.01651   -29.717665    148607.68   -47660.628    3955.2133   -51615.841   0.14729276 
  183600    286.24447    198.87141    148350.67   -47688.439    3930.8785   -51619.318   0.14820118 
  183800    287.67925    36.953626    148519.82   -47722.291    3950.5818   -51672.873   0.14741475 
  184000    285.29429   -156.22268    148748.15   -47734.082      3917.83   -51651.912   0.14561162 
  184200    282.08447    11.085085    148508.29     -47776.2     3873.751   -51649.951   0.14352397 
  184400    286.25118    158.76586    148306.37   -47786.367    3930.9706   -51717.337   0.14082728 
  184600    284.48343   -22.827317     148577.3   -47794.134    3906.6949   -51700.829   0.14101521 
  184800    285.21895   -169.06637    148748.98   -47783.222    3916.7955   -51700.017   0.14305767 
  185000    284.63234    98.676858    148417.53   -47772.976    3908.7398   -51681.716   0.13814277 
  185200    285.88793    200.09356    148292.19   -47830.222    3925.9823   -51756.204   0.13691314 
  185400    281.26102   -118.58986     148668.8   -47809.077    3862.4428    -51671.52   0.14437592 
  185600    279.31029   -210.31464    148741.12   -47811.493    3835.6543   -51647.148   0.14369866 
  185800       282.09    174.67805    148303.33   -47757.487    3873.8268   -51631.314   0.14771269 
  186000    282.76795    122.95618    148325.76   -47745.799    3883.1369   -51628.936   0.14814061 
  186200    282.31759     -217.403    148823.84   -47736.563    3876.9522   -51613.515   0.15220888 
  186400     287.3276    -141.8323    148688.57   -47688.224    3945.7526   -51633.977   0.14226041 
  186600    288.57321    285.11152    148175.71   -47720.614    3962.8581   -51683.473   0.13790894 
  186800     284.1045    91.795174    148419.54   -47747.937    3901.4911   -51649.428   0.14438744 
  187000    285.05833   -261.48626    148906.64   -47717.739    3914.5897   -51632.329   0.14059619 
  187200    289.96951    11.236663    148551.82   -47737.765    3982.0329   -51719.798   0.13826223 
  187400    285.77888    369.26396    148087.51   -47722.663    3924.4847   -51647.148   0.13692689 
  187600    287.24853   -48.156756    148611.85   -47764.604    3944.6668   -51709.271   0.14403497 
  187800    278.97592   -372.02069    148991.57   -47750.318    3831.0625   -51581.381   0.14649362 
  188000    290.00915    185.92439    148300.59   -47725.908    3982.5773   -51708.485    0.1412806 
  188200    280.37302    365.60728    148041.59   -47715.469    3850.2482   -51565.718   0.14612912 
  188400    286.39498   -247.18821    148867.95    -47705.53    3932.9454   -51638.476    0.1422666 
  188600    282.15916   -323.20709    148967.99    -47709.19    3874.7766   -51583.966   0.14680721 
  188800    288.75223    351.64412    148087.07   -47722.596    3965.3165   -51687.913    0.1386249 
  189000    284.01169     290.9129     148190.4   -47716.034    3900.2167   -51616.251   0.13962211 
  189200    283.50578   -343.79189    149024.43   -47719.695    3893.2692   -51612.964   0.14598368 
  189400    288.30664   -179.74499    148763.61   -47681.968    3959.1975   -51641.166   0.14398158 
  189600    287.37394    385.87185    148095.06   -47695.339     3946.389   -51641.728   0.14179918 
  189800    281.93555    60.855101    148439.34   -47735.335    3871.7058    -51607.04   0.14711776 
  190000    276.53537   -288.61113    148872.79   -47765.757    3797.5473   -51563.304   0.14900064 
  190200    290.27849   -13.133717    148522.71   -47742.425     3986.276   -51728.701   0.14591463 
  190400    288.81711    192.46166    148279.95   -47739.999    3966.2076   -51706.207   0.14146145 
  190600    289.50528   -31.180182    148576.22   -47684.804    3975.6578   -51660.461   0.14355708 
  190800    281.46021   -140.63433    148717.35   -47715.887    3865.1781   -51581.065   0.14503952 
  191000     285.8851    79.318229    148481.55   -47729.514    3925.9435   -51655.458   0.13497724 
  191200    288.16209    82.350158    148428.24   -47725.095    3957.2123   -51682.307   0.14078362 
  191400    287.31072   -59.963228    148644.93   -47748.336    3945.5209   -51693.857   0.13946023 
  191600    288.02146   -78.245411    148632.72   -47704.857    3955.2812   -51660.138   0.14243025 
  191800    280.61736     68.01412    148421.64    -47737.75    3853.6037   -51591.354   0.14550366 
  192000    289.47435    51.488901    148480.26   -47739.648    3975.2331   -51714.881    0.1404658 
  192200    283.66046   -95.299441    148684.68   -47708.037    3895.3933    -51603.43   0.14198781 
  192400    288.24801   -8.0064948    148563.44   -47716.498    3958.3922    -51674.89   0.14114786 
  192600    282.45375     124.9519    148368.05   -47745.096    3878.8221   -51623.918   0.14684137 
  192800    283.82919    -7.601919    148547.15   -47721.071    3897.7104   -51618.781   0.14369538 
  193000    288.39615   -113.43104    148688.31   -47710.983    3960.4267    -51671.41   0.14217857 
  193200    289.31952    27.089521     148465.4   -47664.599    3973.1069   -51637.706   0.14577024 
  193400    285.84799    97.749147    148379.09   -47666.494    3925.4338   -51591.928   0.14543824 
  193600    288.37442   -74.880802    148633.12   -47679.251    3960.1283    -51639.38    0.1452969 
  193800     282.9515   -72.355449    148637.65   -47726.155    3885.6575   -51611.813   0.14696708 
  194000    280.69703    77.047556    148340.79   -47751.495    3854.6978   -51606.193   0.14983811 
  194200    287.91855      51.4119    148415.03   -47738.227    3953.8679   -51692.095   0.14589464 
  194400    286.08079    -133.5526    148675.28   -47718.959    3928.6308   -51647.589   0.14820763 
  194600    284.47138   -50.348454    148532.69   -47742.666    3906.5294   -51649.196   0.14865818 
  194800    286.58818      132.492    148307.24   -47729.438    3935.5985   -51665.036   0.15170102 
  195000     285.3634   -2.0801733    148519.31   -47712.636    3918.7791   -51631.415   0.14941065 
  195200    283.70568   -165.24219    148705.59   -47696.848    3896.0143   -51592.862    0.1501851 
  195400    291.41641    47.691057    148442.27    -47699.06    4001.9027   -51700.962   0.14353409 
  195600    290.76261    172.65885    148301.96   -47704.282    3992.9242   -51697.206   0.14231769 
  195800    288.29374   -121.00421    148624.53   -47748.942    3959.0203   -51707.962   0.14706062 
  196000    281.94605   -141.97461    148663.77   -47717.625    3871.8501   -51589.475   0.14623551 
  196200    289.76957    155.56245    148313.93   -47705.924    3979.2872   -51685.212   0.14471342 
  196400    286.48034    145.89824    148365.05   -47706.328    3934.1176   -51640.445   0.14756976 
  196600    283.97538   -216.74292     148726.3   -47771.122     3899.718    -51670.84   0.14819114 
  196800    281.38689   -50.435923    148523.85   -47761.432    3864.1714   -51625.603   0.14935349 
  197000    286.99458    281.55629    148176.56    -47771.99    3941.1794    -51713.17    0.1430155 
  197200    282.34539   -13.479822    148506.17   -47827.523    3877.3341   -51704.857   0.13965538 
  197400    279.83397   -270.75869     148823.8    -47783.88    3842.8458   -51626.725   0.14592602 
  197600    288.09941    92.078203    148365.56   -47699.219    3956.3517   -51655.571   0.14268426 
  197800    287.55072    284.54987    148131.34   -47686.399    3948.8166   -51635.216   0.14599032 
  198000    285.36118   -154.46912    148720.33   -47716.482    3918.7486   -51635.231   0.14791983 
  198200    287.37755   -270.47505    148859.04   -47740.151    3946.4386    -51686.59   0.14735963 
  198400    285.61743    241.20393    148222.28   -47668.851    3922.2677   -51591.119   0.15301243 
  198600    287.66257    181.90274    148271.04    -47659.97    3950.3527   -51610.323   0.15219385 
  198800    289.26926   -328.65589       148941   -47691.934    3972.4167    -51664.35   0.14912992 
  199000    287.63782   -140.01361    148712.96    -47698.21    3950.0128   -51648.222   0.14580261 
  199200     288.2868    349.48536    148099.73   -47692.468    3958.9249   -51651.393   0.14454356 
  199400    287.01103    37.230608    148456.38   -47705.292    3941.4053   -51646.697   0.14743981 
  199600    285.10865   -306.59852     148980.6    -47726.39    3915.2808   -51641.671   0.14450301 
  199800    285.63743    -7.865398    148515.33   -47706.027    3922.5423   -51628.569   0.14216748 
  200000    287.68843    307.89185    148112.03   -47725.099    3950.7078   -51675.807   0.14146611 
Loop time of 115.078 on 6 procs for 200000 steps with 4608 atoms

Performance: 750.796 ns/day, 0.032 hours/ns, 1737.954 timesteps/s
98.0% CPU use with 6 MPI tasks x no OpenMP threads

MPI task timing breakdown:
Section |  min time  |  avg time  |  max time  |%varavg| %total
---------------------------------------------------------------
Pair    | 77.741     | 78.292     | 78.904     |   4.9 | 68.03
Neigh   | 12.372     | 12.545     | 12.851     |   5.5 | 10.90
Comm    | 13.126     | 13.745     | 14.415     |  13.6 | 11.94
Output  | 3.0692     | 3.0704     | 3.0752     |   0.1 |  2.67
Modify  | 5.9275     | 6.0061     | 6.0595     |   1.9 |  5.22
Other   |            | 1.419      |            |       |  1.23

Nlocal:        768.000 ave         782 max         760 min
Histogram: 2 1 0 1 0 1 0 0 0 1
Nghost:        1395.83 ave        1404 max        1382 min
Histogram: 1 0 0 0 1 0 1 1 0 2
Neighs:        0.00000 ave           0 max           0 min
Histogram: 6 0 0 0 0 0 0 0 0 0
FullNghs:      21896.3 ave       22270 max       21651 min
Histogram: 2 0 1 1 0 0 0 1 0 1

Total # of neighbors = 131378
Ave neighs/atom = 28.510851
Neighbor list builds = 12367
Dangerous builds = 0
write_data		data.${NAME}
write_data		data.ice_286K_1atm_ML
System init for write_data ...
Total wall time: 0:02:54
