
# Define the lattice
#
variable	    lattice_constant equal 6.36339
lattice		    diamond ${lattice_constant}
lattice		    diamond 6.36339
Lattice spacing in x,y,z = 6.3633900 6.3633900 6.3633900

# Define region
# multiples of lattice spacing
#
region 		    simbox block 0 9 0 8 0 8

# Create Atoms
#
create_box          1 simbox
Created orthogonal box = (0.0000000 0.0000000 0.0000000) to (57.270510 50.907120 50.907120)
  3 by 1 by 2 MPI processor grid
create_atoms        1 box
Created 4608 atoms
  create_atoms CPU = 0.000 seconds
mass                1 18.015

# Define potential
#
pair_style          sw
pair_coeff          * * /data/emrosky-sim/Freezing_Simulations/Melting/MLmW_fancy/ML_mW.sw mW
Reading sw potential file /data/emrosky-sim/Freezing_Simulations/Melting/MLmW_fancy/ML_mW.sw with DATE: 2019-02-27

# Add velocity/set timestep
#
velocity            all create ${TEMP} 120598 rot yes dist gaussian
velocity            all create 286 120598 rot yes dist gaussian
timestep            5.0

# Define output
#
compute	            1 all msd
thermo              100
thermo_style        custom step temp press vol etotal ke pe c_1[4]

# Neighbor lists
#
neigh_modify        delay 0 every 1 check yes

# Set fixes
#
fix                 1 all momentum 10 linear 1 1 1 rescale
fix                 2 all nve
fix                 3 all temp/csvr ${TEMP} ${TEMP} 500.0 928347
fix                 3 all temp/csvr 286 ${TEMP} 500.0 928347
fix                 3 all temp/csvr 286 286 500.0 928347
fix                 4 all press/berendsen iso ${PRES} ${PRES} 1000.0 modulus 20000
fix                 4 all press/berendsen iso 1 ${PRES} 1000.0 modulus 20000
fix                 4 all press/berendsen iso 1 1 1000.0 modulus 20000

# Run 0.5 ns equilibration
#
dump		    1 all custom 1000 eq.${NAME}.dump id type x y z vx vy vz
dump		    1 all custom 1000 eq.ice_286K_1atm_ML.dump id type x y z vx vy vz
run                 100000
Neighbor list info ...
  update every 1 steps, delay 0 steps, check yes
  max neighbors/atom: 2000, page size: 100000
  master list distance cutoff = 6.0032907
  ghost atom cutoff = 6.0032907
  binsize = 3.0016454, bins = 20 17 17
  1 neighbor lists, perpetual/occasional/extra = 1 0 0
  (1) pair sw, perpetual
      attributes: full, newton on
      pair build: full/bin/atomonly
      stencil: full/bin/3d
      bin: standard
Per MPI rank memory allocation (min/avg/max) = 4.779 | 4.779 | 4.779 Mbytes
Step Temp Press Volume TotEng KinEng PotEng c_1[4] 
       0          286    -652.6324    148418.52   -51969.663    3927.5213   -55897.184            0 
     100    188.09046    117.41033    147714.19   -50381.073    2582.9696   -52964.043  0.094233357 
     200    218.66301    103.68191    147990.13   -49435.514    3002.8099   -52438.324   0.10713401 
     300    241.99361    51.804771    148185.73   -48836.735    3323.1994   -52159.934   0.12472495 
     400    257.91783     32.86883    148319.06   -48439.539    3541.8804    -51981.42   0.12899984 
     500    273.41728    43.944934     148417.3   -48163.342     3754.728    -51918.07    0.1288747 
     600    283.03355    18.457291    148496.32   -47896.986    3886.7842   -51783.771   0.13906593 
     700    281.41876   -6.1917227    148551.16   -47851.056     3864.609   -51715.665   0.13108665 
     800     279.6055   -39.257564    148566.67   -47757.025    3839.7083   -51596.734   0.14452941 
     900    282.13615   -3.5983895    148571.51   -47738.789    3874.4606    -51613.25   0.14352974 
    1000     279.2011   -9.9482417    148547.45   -47782.777    3834.1547   -51616.931   0.13729452 
    1100    279.94154   -12.501323    148571.05   -47727.354    3844.3229   -51571.677   0.13576409 
    1200     286.6565    4.5732113    148568.34   -47719.948    3936.5367   -51656.485    0.1397052 
    1300    282.26145   -25.227352    148563.46   -47640.394    3876.1813   -51516.575   0.14275898 
    1400      279.437   -13.128036    148580.14   -47740.023    3837.3943   -51577.417   0.14421898 
    1500    278.20689    20.724131    148536.05   -47762.247    3820.5017   -51582.748   0.13451688 
    1600    292.36377    29.787657    148557.48   -47702.324    4014.9124   -51717.236   0.14068767 
    1700    289.10687    9.3279062    148558.83   -47731.229    3970.1867   -51701.416   0.13690637 
    1800    289.15269    45.028198     148534.3   -47723.952    3970.8159   -51694.768   0.13805535 
    1900    286.66653   -22.590887    148556.72   -47635.391    3936.6744   -51572.065   0.14608277 
    2000    292.97103    15.995364    148616.32   -47587.448    4023.2516   -51610.699   0.13299831 
    2100    279.59401    -47.74405    148567.55   -47748.564    3839.5505   -51588.115   0.14521315 
    2200    291.44764    3.3742671    148561.87   -47683.126    4002.3315   -51685.458   0.12804186 
    2300    283.85166   -21.764911    148565.69    -47616.68     3898.019   -51514.699   0.15070826 
    2400    290.68227    57.816993    148574.78   -47642.191     3991.821   -51634.012   0.13722781 
    2500    293.71275    -4.507215    148601.94   -47691.614    4033.4373   -51725.052   0.13159209 
    2600    282.16328   -24.820452    148589.13   -47721.881    3874.8331   -51596.714     0.142611 
    2700    291.09797     41.53121       148567   -47694.554    3997.5297   -51692.084   0.12739474 
    2800    290.48892     19.40834    148569.52   -47595.242    3989.1658   -51584.408   0.14152569 
    2900    287.31205   -39.557879    148599.18    -47621.03    3945.5392   -51566.569   0.14209235 
    3000    285.60549   -7.5680763    148570.38   -47674.671    3922.1037   -51596.775   0.14495146 
    3100    288.93194   -4.6564089    148589.51   -47654.705    3967.7844    -51622.49   0.13891784 
    3200    286.26648  -0.12024401    148554.96    -47759.22    3931.1807   -51690.401   0.13791015 
    3300    287.93406    28.399704    148532.67    -47821.52     3954.081     -51775.6   0.12461805 
    3400    283.38093   -41.981871    148525.12   -47751.145    3891.5546     -51642.7   0.14574496 
    3500    290.47564   -9.4846292     148541.4   -47717.506    3988.9834   -51706.489   0.13618735 
    3600    291.29263    18.155859    148539.04    -47722.77    4000.2028   -51722.973    0.1370447 
    3700    288.29278   -17.583291    148558.55   -47685.098    3959.0071   -51644.105   0.14081825 
    3800    290.44609    17.315265     148563.1   -47675.339    3988.5776   -51663.916   0.13833812 
    3900    288.14891   -7.2505633     148557.7   -47676.326    3957.0314   -51633.357   0.14167055 
    4000    281.40787   -46.495813    148545.03   -47726.251    3864.4595   -51590.711    0.1391079 
    4100     286.3421   -5.7725902    148541.16   -47739.826    3932.2192   -51672.045   0.14281508 
    4200    286.04768   -8.4748336    148549.26   -47699.403    3928.1761   -51627.579   0.13704668 
    4300    278.84828   -32.700627    148497.26    -47825.32    3829.3097   -51654.629   0.14717908 
    4400    291.14233    18.326636    148537.81   -47722.099    3998.1388   -51720.238   0.12944458 
    4500    284.75038   -4.3806382    148510.45   -47771.895    3910.3607   -51682.256   0.14798962 
    4600    281.64774   -13.044544    148496.81   -47806.163    3867.7534   -51673.916    0.1353203 
    4700    287.06674   -5.0183003    148521.24   -47708.238    3942.1704   -51650.409   0.13929436 
    4800    287.55708    18.463502     148531.1   -47607.634    3948.9041   -51556.538   0.13792008 
    4900    287.72659    1.6208201    148559.19   -47583.357    3951.2318   -51534.589   0.13889156 
    5000     285.2392    13.081643    148547.59   -47710.517    3917.0735    -51627.59   0.14170528 
    5100    286.04993    15.295021    148541.26   -47634.017    3928.2069   -51562.224   0.13954982 
    5200     282.5422    2.8307642    148522.93   -47704.867    3880.0367   -51584.903   0.14406886 
    5300    282.90013    24.485695    148493.04    -47807.91     3884.952   -51692.862   0.13560316 
    5400    285.51944    21.428693    148474.87   -47768.098    3920.9219    -51689.02   0.14011761 
    5500    289.49778    38.312022    148493.24   -47736.926    3975.5548    -51712.48   0.13473085 
    5600    285.38227   -30.854652    148494.92   -47778.926    3919.0383   -51697.964   0.14325577 
    5700    283.10992    4.3831992     148509.7   -47763.624    3887.8329   -51651.456   0.13746467 
    5800    281.31414   -26.240244    148515.84   -47709.513    3863.1723   -51572.685   0.14336918 
    5900    288.38039   -11.643845     148507.8   -47786.271    3960.2103   -51746.481   0.13443217 
    6000     284.9558    5.4746082    148503.27    -47762.59    3913.1818   -51675.771   0.14103505 
    6100    281.70787    3.1409993     148516.2   -47843.327    3868.5792   -51711.906    0.1316688 
    6200    284.01877    13.800791    148497.18   -47814.455    3900.3138   -51714.769   0.13642803 
    6300    287.52627    7.1080933     148501.2   -47697.644    3948.4809   -51646.125   0.14300958 
    6400    286.51584   -8.8151555    148540.39   -47757.718    3934.6051   -51692.323   0.13574475 
    6500    279.78694   -23.827488    148521.69   -47773.581    3842.1999   -51615.781   0.14424038 
    6600    282.81159    38.648731    148528.36   -47774.979    3883.7362   -51658.716    0.1338065 
    6700    279.45776   -27.012793    148515.76   -47833.489    3837.6794   -51671.169   0.14216229 
    6800    288.56089    14.260785    148522.45   -47787.255     3962.689   -51749.944   0.13349836 
    6900    290.71741    10.752471    148540.82   -47712.087    3992.3035    -51704.39   0.13216825 
    7000    289.86915  -0.71120726    148539.26   -47710.098    3980.6547   -51690.752     0.143353 
    7100    289.51228   -23.271351    148538.16   -47719.906    3975.7539   -51695.659   0.13416256 
    7200    278.66109    14.169552    148519.36   -47830.888     3826.739   -51657.626   0.13979299 
    7300    281.74525    39.872147    148494.78   -47880.396    3869.0925   -51749.489   0.13089357 
    7400    286.18425    11.542967    148521.03   -47773.071    3930.0515   -51703.122   0.14082246 
    7500    287.57465    35.075521    148532.17   -47704.851    3949.1453   -51653.996   0.13563026 
    7600    288.97618     33.65879    148538.83   -47676.288    3968.3919    -51644.68   0.13981525 
    7700    283.60131   -23.377065     148533.5   -47774.683    3894.5811   -51669.264   0.13790069 
    7800    280.47722   -31.817632    148523.36   -47838.159    3851.6792   -51689.838   0.14352725 
    7900    283.16212   -1.6153694    148525.65    -47773.61    3888.5498    -51662.16   0.13392189 
    8000    288.60484    12.648622    148540.06   -47678.579    3963.2924   -51641.871   0.13957504 
    8100    287.69251    -28.37157    148541.76   -47634.652    3950.7639   -51585.416   0.14076504 
    8200    287.83836   -40.852927    148537.18   -47661.431    3952.7667   -51614.198   0.13989264 
    8300    289.23654    2.8798608    148536.83   -47617.464    3971.9674   -51589.431   0.14392028 
    8400    288.31824    13.098461    148573.83   -47592.842    3959.3567   -51552.198   0.13823336 
    8500    286.44064    22.346312    148564.37   -47682.514    3933.5724   -51616.086   0.14591743 
    8600    285.45276   -9.9551767    148555.08   -47697.001    3920.0062   -51617.007   0.13581143 
    8700    284.87159    26.391278    148542.97   -47667.457    3912.0253   -51579.482   0.14674214 
    8800    288.48259    7.9029099    148553.66   -47710.644    3961.6137   -51672.257   0.13300357 
    8900    288.40562   -18.920948    148538.34   -47775.216    3960.5566   -51735.773   0.14128571 
    9000    286.26809    19.198607    148543.96   -47698.791    3931.2028   -51629.994   0.13472556 
    9100    287.40702   -28.381353    148527.69   -47753.677    3946.8433   -51700.521   0.14016716 
    9200    291.22025    11.695337     148540.7    -47644.75    3999.2088   -51643.959   0.14123136 
    9300    284.68228   -14.960081    148557.04   -47799.424    3909.4256   -51708.849   0.13511607 
    9400    284.68375    9.1530312    148535.03   -47760.004    3909.4458   -51669.449   0.14027874 
    9500    283.08229   -7.4779457    148516.13   -47800.339    3887.4536   -51687.793   0.13576586 
    9600    285.24704   -14.177418    148537.64   -47800.136    3917.1811   -51717.317   0.13827579 
    9700    288.52399    15.720417    148564.05   -47674.247    3962.1822   -51636.429    0.1357971 
    9800    290.14803    6.5470587    148584.67   -47628.595    3984.4844   -51613.079   0.14377935 
    9900    290.38227    5.6259315    148582.05   -47658.048    3987.7013    -51645.75   0.13532066 
   10000    284.78545   -32.602432    148556.65   -47711.384    3910.8423   -51622.227   0.14439991 
   10100    293.07894    43.839144    148586.72   -47666.499    4024.7334   -51691.233   0.13089431 
   10200    290.34671   -13.321226    148594.33   -47637.672    3987.2129   -51624.885   0.13757029 
   10300     290.0623   -1.8993688    148581.18   -47635.544    3983.3072   -51618.852    0.1411804 
   10400    287.38532    15.045486    148594.45   -47641.378    3946.5453   -51587.924   0.13611511 
   10500    287.92568    26.385829    148574.81   -47687.389    3953.9659   -51641.355   0.13757697 
   10600    283.17803    21.919355    148567.16   -47711.379    3888.7683   -51600.148   0.13531616 
   10700    285.93088   -17.252827    148559.04    -47730.61     3926.572   -51657.182   0.13997257 
   10800    283.67081   -27.952811    148529.86   -47861.567    3895.5355   -51757.102   0.13463887 
   10900    279.40029   -10.970618     148515.5   -47844.673    3836.8902   -51681.563   0.14000981 
   11000    278.78401   -3.5737353    148502.07   -47852.557    3828.4271   -51680.984   0.14040402 
   11100    283.68552    5.0319564    148538.48   -47767.367    3895.7374   -51663.105   0.14121099 
   11200    286.13826     6.468493    148531.11   -47872.218      3929.42   -51801.638   0.13337744 
   11300    285.62465   -1.7846921    148534.42   -47796.745    3922.3668   -51719.112    0.1353106 
   11400    280.52901   -18.355109    148542.09   -47767.665    3852.3904   -51620.055   0.14517385 
   11500    289.67102   0.32791802    148564.04   -47670.608    3977.9339   -51648.542   0.13585924 
   11600    291.06139    19.325091    148567.45   -47665.674    3997.0273   -51662.701   0.14402383 
   11700    294.28582    34.415375    148594.88   -47535.442    4041.3071   -51576.749   0.13543417 
   11800    292.81332    14.234376    148588.89   -47612.064    4021.0858    -51633.15   0.14332476 
   11900    286.62185  -0.81386295    148582.01   -47659.796    3936.0609   -51595.857   0.13610166 
   12000    289.15287   -21.582228    148603.11   -47627.318    3970.8183   -51598.137   0.14574671 
   12100    285.71935   -4.5376923     148574.4    -47679.77    3923.6673   -51603.437    0.1397821 
   12200    286.38946   -38.020863    148570.98   -47686.217    3932.8695   -51619.087   0.14141263 
   12300    284.77973    15.199648    148546.93   -47731.621    3910.7639   -51642.385   0.13894995 
   12400    286.04293    59.942711    148557.08   -47729.565    3928.1108   -51657.676   0.13276964 
   12500    286.91592   -14.122585    148554.07    -47656.15    3940.0993    -51596.25   0.14631253 
   12600    292.05273   -11.497931     148579.8   -47624.737     4010.641   -51635.378   0.13598818 
   12700    284.59783    20.158909    148587.08   -47691.982    3908.2658   -51600.248   0.14507731 
   12800    285.30909   -25.703612    148584.23   -47681.799    3918.0333   -51599.832   0.13710497 
   12900     283.5789   -28.220793    148582.12   -47750.429    3894.2732   -51644.702   0.14299879 
   13000     290.4375    12.287126    148558.67   -47714.212    3988.4597   -51702.672    0.1310375 
   13100    287.15006   -4.8509535    148552.61   -47793.673    3943.3146   -51736.988   0.14019376 
   13200    284.79628   -23.528678    148534.49   -47819.083    3910.9911   -51730.074   0.13258864 
   13300    282.15768   -18.511091    148515.52     -47897.9    3874.7562   -51772.656   0.13637011 
   13400    284.29985    29.887699     148496.2   -47881.252    3904.1738   -51785.426   0.13333953 
   13500    280.04733   -26.581344    148513.65   -47792.296    3845.7757   -51638.072   0.14068073 
   13600    283.20927    11.889432    148528.04   -47741.152    3889.1973   -51630.349   0.14411402 
   13700    284.93504    32.683876    148536.18   -47774.097    3912.8966   -51686.993    0.1343895 
   13800    286.05552    17.015305    148537.81   -47726.411    3928.2838   -51654.695   0.14379785 
   13900    279.64518    13.419983    148528.29   -47716.319    3840.2531   -51556.572   0.13908049 
   14000    290.26479    12.399542    148568.54   -47606.174     3986.088   -51592.262   0.14390855 
   14100    285.37237   -24.806482    148545.37   -47692.206    3918.9023   -51611.108   0.14166768 
   14200    289.31233    22.950561    148557.94   -47703.469    3973.0082   -51676.477   0.14148596 
   14300    287.76222   -7.9664248    148535.77   -47733.591    3951.7211   -51685.312   0.13962608 
   14400    282.62758    43.981481     148539.3   -47788.519    3881.2092   -51669.728   0.13566138 
   14500    281.40351    10.070888    148514.49   -47807.396    3864.3996   -51671.795   0.14007285 
   14600    288.60943    10.785017    148489.33   -47757.954    3963.3555   -51721.309   0.13848878 
   14700    283.05878    -9.959885    148493.48   -47707.871    3887.1307   -51595.002   0.14770035 
   14800     283.8493   -17.622354    148510.55   -47680.083    3897.9866    -51578.07   0.14064903 
   14900    279.57346   -30.037362    148504.62    -47693.44    3839.2683   -51532.708   0.14885795 
   15000    287.27579    23.709034    148494.56    -47759.64    3945.0412   -51704.681   0.13376138 
   15100    286.82192    26.521937    148475.65   -47771.775    3938.8084   -51710.583   0.14029022 
   15200    283.86706    16.644613    148470.82   -47695.373    3898.2304   -51593.603   0.14380447 
   15300    283.71021    14.909648    148471.89   -47782.654    3896.0765   -51678.731   0.14269749 
   15400    285.58643    4.9073429    148471.09   -47778.911    3921.8419   -51700.753   0.14259656 
   15500    285.59799   -5.0983145    148503.91   -47719.918    3922.0006   -51641.919   0.13999972 
   15600    288.13645    35.920118    148519.91   -47590.284    3956.8603   -51547.144   0.15013451 
   15700    284.44472   -6.1404757    148529.32   -47607.666    3906.1633   -51513.829   0.14130602 
   15800    291.27647   -10.954401    148529.32    -47611.66    3999.9809   -51611.641   0.15178721 
   15900    288.71053    9.9927378    148538.22   -47639.104    3964.7439   -51603.848   0.13916362 
   16000    284.56917   -8.8942879    148515.64   -47682.022    3907.8723   -51589.894   0.14858201 
   16100    286.23615    9.3960447    148465.33   -47711.918    3930.7642   -51642.682   0.14145403 
   16200    287.83494    24.363997    148469.85    -47722.59    3952.7198    -51675.31   0.14518296 
   16300    281.78044   -32.103818    148449.18   -47734.039    3869.5758   -51603.615    0.1469723 
   16400    283.77308   -18.171884    148447.04   -47747.923    3896.9399   -51644.863   0.14779809 
   16500    284.63796    27.935013    148477.75   -47664.695     3908.817   -51573.512   0.14442441 
   16600    287.54954    18.298828    148494.29   -47592.234    3948.8005   -51541.034   0.14488309 
   16700    288.08261    24.105725    148490.47   -47637.897    3956.1209   -51594.017   0.14897079 
   16800    282.33096   -22.925494    148483.88   -47691.644    3877.1359    -51568.78   0.14156038 
   16900     282.5763   -24.376343    148465.69   -47710.697     3880.505   -51591.202   0.15087605 
   17000    283.75417    2.9926973    148460.72   -47762.307    3896.6803   -51658.987   0.13675439 
   17100    284.36836   -39.051598    148463.46   -47712.317    3905.1146   -51617.432    0.1494451 
   17200    283.20108    -26.15576    148466.06   -47776.204    3889.0848   -51665.289   0.14210892 
   17300    281.12501    -10.15958    148453.98   -47864.835     3860.575    -51725.41   0.14422747 
   17400    280.68534   -24.535925    148434.72   -47853.487    3854.5373   -51708.024   0.13945745 
   17500     284.7946    33.761142    148490.57   -47756.267    3910.9681   -51667.235    0.1373614 
   17600    284.63917    21.013902    148490.82   -47762.895    3908.8335   -51671.728   0.13772619 
   17700    281.33895   -5.0742027    148500.38   -47829.538     3863.513   -51693.051   0.13668187 
   17800    288.43236    25.376873    148486.34   -47774.572    3960.9238   -51735.496   0.13961067 
   17900    284.72239    13.592351    148524.55   -47724.429    3909.9764   -51634.406   0.13985445 
   18000    284.34121    -19.80545    148528.96   -47631.838    3904.7418    -51536.58   0.14832148 
   18100    286.89718    20.888826    148548.93   -47645.886    3939.8419   -51585.727   0.14062298 
   18200    285.20127   -8.7303443    148507.81   -47684.434    3916.5526   -51600.986   0.14482002 
   18300    282.71381    5.9194834    148524.23   -47689.921    3882.3934   -51572.315   0.14047656 
   18400    282.01106   -10.082626    148526.01   -47790.119    3872.7429   -51662.861   0.13855285 
   18500    285.19768     44.16306    148533.96   -47728.442    3916.5033   -51644.945   0.13691025 
   18600    289.17641   -28.276861    148545.72   -47684.706    3971.1417   -51655.847   0.14077059 
   18700    290.51435    3.9375412    148521.08   -47697.574    3989.5151   -51687.089   0.14223028 
   18800    283.59168   -2.1478319    148521.66   -47717.237    3894.4488   -51611.686   0.13975313 
   18900    287.43606   -12.595279    148538.04    -47675.35    3947.2421   -51622.592   0.14765634 
   19000    286.87539   -23.999906    148550.19   -47710.251    3939.5426   -51649.794   0.13793182 
   19100    287.73934    24.140655     148548.4   -47620.676    3951.4069   -51572.083   0.14084389 
   19200    287.10516    0.1270266    148527.99   -47645.482     3942.698    -51588.18   0.14129279 
   19300    291.19461   -38.113491    148562.95   -47541.451    3998.8567   -51540.308   0.14641612 
   19400    291.99743    14.021549    148560.14   -47603.536    4009.8816   -51613.418   0.14191512 
   19500    292.75194    3.9151914    148551.88   -47604.788     4020.243   -51625.031    0.1376405 
   19600    294.85655    60.731296    148591.42   -47598.417    4049.1447   -51647.562   0.13811182 
   19700    292.03904    4.2078033       148584   -47652.137    4010.4529    -51662.59   0.13673907 
   19800    290.23023   -9.2134396    148578.07   -47601.994    3985.6133   -51587.608   0.14392076 
   19900    288.78441    3.4638272    148556.68    -47683.86    3965.7584   -51649.619   0.13809258 
   20000    288.18069  -0.91567627    148531.32   -47710.402    3957.4679    -51667.87   0.14430894 
   20100    282.89682    11.240741    148529.53   -47749.866    3884.9066   -51634.772   0.13195308 
   20200    282.69026   -10.001478       148516   -47726.102    3882.0699   -51608.172   0.14346234 
   20300    285.95559    15.508329    148515.78   -47683.962    3926.9115   -51610.874   0.13499362 
   20400    281.45356   -31.626123    148528.74   -47756.372    3865.0869   -51621.459   0.14525698 
   20500    283.60901   -27.419706    148505.32   -47789.256    3894.6868   -51683.943   0.13903199 
   20600     281.1591   -13.087769    148506.42    -47807.02    3861.0432   -51668.064   0.14146079 
   20700    287.63459    2.2572476    148519.19    -47749.58    3949.9685   -51699.548   0.14059025 
   20800    292.06439    61.867289    148559.11   -47614.771     4010.801   -51625.572   0.13400547 
   20900    288.57049    8.7760432    148554.55   -47721.243    3962.8208   -51684.064   0.13918516 
   21000    286.52905    36.788871    148541.07   -47733.856    3934.7865   -51668.643    0.1316223 
   21100    290.52091    41.317414    148534.98   -47613.647    3989.6051   -51603.253   0.14592551 
   21200    286.81501   -7.8039085    148554.59   -47636.286    3938.7135       -51575   0.13718881 
   21300    284.54609   -55.758753    148551.07   -47628.179    3907.5553   -51535.734   0.15188214 
   21400    289.81678    17.628947    148534.31   -47669.119    3979.9355   -51649.055   0.13719287 
   21500    289.95356    28.148889    148535.16   -47573.173    3981.8139   -51554.987   0.14628014 
   21600    292.45241    35.596313    148579.36    -47582.35    4016.1295   -51598.479   0.13673258 
   21700    288.58363   -7.9903515     148533.4   -47718.658    3963.0013   -51681.659   0.14091186 
   21800    284.31555   -38.901585    148518.44    -47746.24    3904.3894    -51650.63   0.14213049 
   21900     285.7721   -20.535356    148517.22   -47716.372    3924.3916   -51640.764   0.14115246 
   22000    283.69787    19.651392    148506.32   -47744.409    3895.9071   -51640.316   0.13933389 
   22100    286.46952   -23.361919    148514.57   -47792.715    3933.9691   -51726.684   0.13372091 
   22200    282.27125    4.9697822    148469.25   -47871.156    3876.3159   -51747.471   0.13863651 
   22300    285.97094    16.317719    148495.69   -47760.696    3927.1222   -51687.818   0.13328835 
   22400     284.4008   -13.857158    148513.76    -47709.17    3905.5601    -51614.73    0.1418723 
   22500     283.8495   -5.9019347    148506.12    -47656.69    3897.9893   -51554.679   0.14205901 
   22600    283.82419    -38.42841    148506.96   -47700.917    3897.6417   -51598.559   0.14383352 
   22700    284.15986   -18.948064       148486   -47756.954    3902.2513   -51659.205   0.14008187 
   22800    291.48413    19.952406    148505.34   -47682.466    4002.8326   -51685.299   0.13931548 
   22900    288.80579    -4.316293    148501.19   -47718.641    3966.0521   -51684.693   0.13642058 
   23000    280.41372  -0.63593574     148471.6   -47789.827    3850.8071   -51640.634   0.13757649 
   23100    282.54114    25.922559    148492.24   -47731.383    3880.0222   -51611.405   0.14097903 
   23200    289.04985    50.472843    148514.42   -47676.971    3969.4037   -51646.375   0.13331714 
   23300    285.61074   -9.0249132    148534.67   -47677.119    3922.1757   -51599.295   0.14335674 
   23400    285.05642   -7.2381133    148525.42   -47724.175    3914.5634   -51638.739   0.13328874 
   23500    286.95579   -20.346004    148518.93   -47611.276    3940.6467   -51551.922   0.14750656 
   23600    284.87025  -0.24206543    148522.26   -47626.388    3912.0069   -51538.394   0.14277332 
   23700    286.94932    17.748564    148513.04   -47620.135    3940.5579   -51560.693   0.14222026 
   23800    286.56869   -29.454521    148509.16   -47629.275    3935.3309   -51564.606   0.14732227 
   23900    287.45001   -3.0348685    148495.78    -47719.32    3947.4337   -51666.754   0.13581854 
   24000    293.37801    29.177174    148511.35   -47664.143    4028.8406   -51692.984   0.14138346 
   24100    294.54015    29.129203       148559   -47600.878    4044.7997   -51645.678   0.13159337 
   24200    289.00257    4.5741889    148558.52    -47726.98    3968.7543   -51695.734   0.14104056 
   24300    285.39881     12.56658     148550.4   -47769.108    3919.2653   -51688.373   0.13127986 
   24400    281.07502    -12.25664    148520.77   -47792.071    3859.8886   -51651.959   0.14244544 
   24500     286.7268   -20.603021    148527.25   -47744.747    3937.5021   -51682.249   0.13471319 
   24600    283.71502   -50.562263    148525.34   -47793.811    3896.1426   -51689.954   0.14105054 
   24700    284.53023    14.372694    148529.08    -47794.09    3907.3376   -51701.428   0.13297362 
   24800    287.36099    45.019977    148541.45   -47739.606    3946.2112   -51685.818   0.13280164 
   24900    287.67256    39.482505    148514.38   -47791.027    3950.4899   -51741.517   0.13268509 
   25000    284.29602    11.082945    148512.25   -47777.618    3904.1213   -51681.739     0.137565 
   25100     280.1466    15.520486     148487.1   -47827.809     3847.139   -51674.948    0.1386928 
   25200    276.81208    -31.90105    148475.58   -47962.864    3801.3473   -51764.211   0.13086149 
   25300    281.95124  -0.19868836    148485.27   -47796.414    3871.9213   -51668.336   0.14289698 
   25400    281.07369   -14.159071    148527.91   -47845.926    3859.8703   -51705.796   0.12930149 
   25500    286.59523   -28.534484    148519.25   -47727.998    3935.6954   -51663.694   0.14312339 
   25600    286.41514   -4.7964577    148536.01   -47648.881    3933.2222   -51582.104    0.1346318 
   25700    283.08034    5.0043736    148518.27   -47739.479    3887.4268   -51626.906   0.14463099 
   25800    288.99859    -10.50099    148555.69   -47602.869    3968.6998   -51571.569   0.14279395 
   25900    289.20967  -0.38575317    148567.95   -47631.719    3971.5983   -51603.317   0.13874117 
   26000    287.95663  -0.14263938    148541.47   -47671.025     3954.391   -51625.416     0.139571 
   26100    282.18838   -44.294127    148558.34   -47656.735    3875.1778   -51531.913   0.14013309 
   26200    285.10742    -13.17858    148542.19   -47762.957    3915.2638   -51678.221   0.13915234 
   26300    281.53232    7.5771793    148512.66   -47717.261    3866.1684   -51583.429   0.13657333 
   26400    280.53022   -19.588485    148512.28   -47771.583    3852.4071    -51623.99   0.14040699 
   26500    292.61617    5.9563137    148545.31   -47690.038    4018.3785   -51708.417   0.13315366 
   26600    288.18643     48.39134    148545.88   -47632.091    3957.5467   -51589.637    0.1365285 
   26700    286.52788    23.802906    148551.99   -47635.151    3934.7704   -51569.922   0.14074892 
   26800     284.9574   -8.7630486    148560.13   -47691.735    3913.2037   -51604.938   0.13809343 
   26900    284.75604    8.5587525     148575.1   -47630.692    3910.4385   -51541.131   0.14180104 
   27000    287.34014   -7.7536292    148570.36   -47666.409    3945.9249   -51612.334   0.13629215 
   27100    290.16892    20.187154    148571.27    -47607.97    3984.7714   -51592.741   0.13883263 
   27200     288.1457    19.388519    148546.15   -47673.446    3956.9874   -51630.433   0.13521446 
   27300    292.94576     20.82419    148576.46   -47511.426    4022.9045   -51534.331   0.14312277 
   27400    289.18123   -11.064273    148583.08   -47633.466    3971.2078   -51604.674   0.13516273 
   27500    281.60703   -24.003603    148556.69   -47740.276    3867.1944   -51607.471   0.13967174 
   27600     286.6895 -0.044451142    148527.36   -47792.786      3936.99   -51729.776   0.13164226 
   27700    284.14902   -2.5366723    148538.05   -47684.921    3902.1025   -51587.024   0.13835628 
   27800    283.88649   -8.8526423    148572.36   -47663.393    3898.4973    -51561.89   0.14035179 
   27900    285.95326   -18.361969    148548.23   -47724.519    3926.8795   -51651.398   0.13655129 
   28000    285.62771  -0.84575539    148527.48   -47798.909    3922.4088   -51721.318   0.13540498 
   28100    284.44363   -2.7393973    148533.64    -47772.13    3906.1483   -51678.278   0.13075131 
   28200    282.95852    1.9161858     148559.1   -47741.583    3885.7538   -51627.337   0.13998466 
   28300    284.76859    8.0391112    148556.27   -47763.791    3910.6109   -51674.402   0.13110553 
   28400    280.75234   -3.7958392    148544.54   -47692.016    3855.4573   -51547.474     0.145972 
   28500    283.18531   -18.841076    148546.02   -47726.715    3888.8683   -51615.584   0.13676996 
   28600    283.30426    33.562061     148539.3   -47730.086    3890.5018   -51620.587   0.13942609 
   28700    284.75512    11.145445    148543.76    -47730.65    3910.4259   -51641.076   0.13516732 
   28800    281.97632   -11.568774    148534.52   -47774.799    3872.2657   -51647.065   0.13444058 
   28900    280.23553   -22.597554    148538.19   -47747.709    3848.3601   -51596.069   0.13627208 
   29000     288.7046    42.843278    148558.07    -47693.36    3964.6624   -51658.023   0.13395701 
   29100    284.44893   -19.790645     148566.2   -47684.617    3906.2211   -51590.838   0.13737692 
   29200    286.92747    10.181091    148577.02   -47620.002    3940.2579   -51560.259   0.13633058 
   29300    290.55187   -24.778972    148577.96   -47626.023    3990.0303   -51616.053   0.14102804 
   29400    290.71317   -2.2405724    148579.12    -47642.17    3992.2454   -51634.416   0.13829244 
   29500    286.10869    1.2213316     148559.3   -47679.787    3929.0139   -51608.801   0.13970329 
   29600    292.77879    6.3274803    148574.04   -47654.488    4020.6116   -51675.099   0.13470374 
   29700    288.60513    18.997091     148587.5   -47728.204    3963.2964     -51691.5   0.13439725 
   29800    288.49988    21.038254    148529.96   -47813.378    3961.8511   -51775.229   0.12870425 
   29900    282.87086   -18.952084    148532.49   -47799.572      3884.55   -51684.122    0.1385221 
   30000    285.73605    17.164157     148526.3   -47757.587    3923.8966   -51681.483   0.13073332 
   30100    280.15559    2.6298573    148551.24   -47733.797    3847.2624    -51581.06   0.14094228 
   30200    281.52761    4.9071359    148551.92   -47738.981    3866.1038   -51605.085   0.13594651 
   30300    286.00394    10.612295    148533.24   -47729.822    3927.5755   -51657.397   0.13481241 
   30400    281.14858    1.3898883    148530.02   -47767.121    3860.8988    -51628.02   0.13865943 
   30500    280.78631    20.460546    148500.99   -47863.345    3855.9239   -51719.269   0.13288821 
   30600    284.81354   -14.343056    148532.64   -47742.941    3911.2281   -51654.169   0.13914675 
   30700    284.43747    39.295491     148532.3   -47771.444    3906.0637   -51677.508   0.13128309 
   30800    288.45247   -8.3421829    148551.66   -47702.245       3961.2   -51663.445   0.13635302 
   30900    283.47649    19.458497    148567.83   -47678.277     3892.867   -51571.144   0.13684358 
   31000    286.72707   -12.402141    148541.19   -47713.992    3937.5058   -51651.498   0.13542295 
   31100    282.27834   -3.5262703    148527.86   -47727.697    3876.4132    -51604.11   0.14025121 
   31200    287.15446    1.0541712    148525.46   -47675.267     3943.375   -51618.642   0.14007026 
   31300    285.43395    12.100866    148543.59   -47608.319     3919.748   -51528.067   0.14206301 
   31400     283.8823   -9.0506024    148539.17    -47726.77    3898.4398   -51625.209   0.13749109 
   31500    286.91494    29.176466     148537.8   -47673.705    3940.0857    -51613.79   0.13841362 
   31600    287.27286    30.165568    148530.55   -47695.993     3945.001   -51640.994   0.13416022 
   31700    285.61056   -21.044179    148529.98   -47669.537    3922.1733    -51591.71   0.14212323 
   31800    280.85282   -4.1543021    148526.59   -47729.982    3856.8372   -51586.819    0.1382352 
   31900    286.61206    -11.25679    148506.91   -47725.228    3935.9265   -51661.154   0.14044683 
   32000    288.15309    34.009072    148533.82   -47674.596    3957.0888   -51631.685   0.13271782 
   32100    283.40725    3.1330946    148528.09   -47713.147    3891.9161   -51605.063   0.14093225 
   32200    280.69953   -29.653294    148498.71    -47830.17    3854.7321   -51684.902   0.13816352 
   32300    284.73166   -10.469566    148490.44   -47775.099    3910.1037   -51685.203   0.13525454 
   32400    279.14993    5.2349126    148495.35   -47866.168    3833.4521    -51699.62   0.13925429 
   32500    284.63626    28.598845    148520.85   -47726.433    3908.7936   -51635.227   0.13157677 
   32600    287.61052   -12.373076    148532.96   -47682.877    3949.6379   -51632.515   0.14503846 
   32700    287.10261    33.869579    148528.84   -47771.804     3942.663   -51714.467   0.12831712 
   32800    290.00114   -41.217444    148535.05   -47640.823    3982.4673    -51623.29   0.14618081 
   32900    289.29406   -2.6182327    148562.92   -47717.206    3972.7573   -51689.963   0.13351764 
   33000    285.90121    16.622971    148552.42   -47702.608    3926.1646   -51628.772    0.1377776 
   33100    286.67105    3.5239541    148533.41   -47730.192    3936.7366   -51666.929    0.1367862 
   33200    287.70908   -24.474379    148559.71   -47720.779    3950.9913    -51671.77   0.13574165 
   33300    283.95358     15.88101    148559.23   -47716.892    3899.4186    -51616.31   0.13782485 
   33400    285.76098   -3.3233655    148546.64   -47737.665    3924.2389   -51661.904   0.13463157 
   33500    285.10997    37.744094    148527.92   -47753.524    3915.2988   -51668.823   0.13743179 
   33600    281.50469    18.550427    148551.39   -47770.011    3865.7891     -51635.8   0.13297907 
   33700    288.94074    21.281839     148594.1    -47670.64    3967.9053   -51638.546   0.13698774 
   33800    290.36949   -0.9079002    148604.18   -47568.093    3987.5258   -51555.619   0.13853919 
   33900    292.07045   -14.911995    148596.79   -47598.537    4010.8843   -51609.421   0.14223033 
   34000    289.96654      2.65879    148554.15   -47738.216    3981.9922   -51720.208   0.13068292 
   34100    287.61254    9.9160608    148520.74   -47751.372    3949.6657   -51701.038   0.13714744 
   34200    283.91219    1.3722265    148545.88   -47750.192    3898.8502   -51649.042   0.13268719 
   34300    282.73338  -0.33925336    148525.04   -47780.419    3882.6621   -51663.081   0.14060631 
   34400    284.41695    2.2895509    148520.94   -47705.697    3905.7819   -51611.478   0.13956199 
   34500    289.23666   -15.954315    148541.64   -47637.294     3971.969   -51609.263   0.13856475 
   34600    288.31707    20.369009    148551.74   -47635.416    3959.3407   -51594.756   0.14393509 
   34700    285.35655    4.9495917    148534.88   -47746.779    3918.6851   -51665.464   0.13260114 
   34800     284.0051    29.586082    148532.97   -47740.805    3900.1262   -51640.931   0.14004666 
   34900    284.67084    9.9702001    148540.69   -47716.199    3909.2685   -51625.468   0.13609366 
   35000     286.0539   -10.277861    148558.21   -47698.979    3928.2615    -51627.24   0.13957938 
   35100    281.88774   -46.906634    148565.27   -47716.685    3871.0493   -51587.734    0.1411041 
   35200    284.51556    7.0306164    148560.03   -47653.405    3907.1361   -51560.541   0.13837502 
   35300    285.91701    15.466923    148555.67   -47733.044    3926.3816   -51659.426   0.13685051 
   35400    285.74995    6.3561864    148557.32   -47740.157    3924.0874   -51664.244   0.13430458 
   35500    282.27246   -23.723921    148540.62   -47719.486    3876.3325   -51595.819   0.14257298 
   35600    285.95923    31.619287    148562.41   -47695.073    3926.9614   -51622.035   0.13389224 
   35700     289.3501   -23.368042    148557.66   -47711.355    3973.5268   -51684.882   0.14229794 
   35800    291.11952   -31.744489     148587.5   -47547.528    3997.8255   -51545.353   0.14148724 
   35900    286.12584   -12.124735    148590.37   -47666.708    3929.2493   -51595.958   0.14340372 
   36000    287.35969    15.136246    148571.42   -47718.269    3946.1934   -51664.463   0.13451706 
   36100    286.52804    3.1988705    148553.67   -47763.454    3934.7726   -51698.226   0.13431493 
   36200    281.90995   -1.5809428    148555.21   -47796.867    3871.3543   -51668.222   0.13255577 
   36300    289.42365    10.515073    148541.63    -47726.14    3974.5369   -51700.677    0.1365989 
   36400    284.07084    8.9058038    148550.65    -47782.87    3901.0289   -51683.899   0.13970761 
   36500    288.06367   -21.699097    148534.06   -47758.708    3955.8608   -51714.568   0.13833649 
   36600    282.78287    17.355533    148517.47   -47754.532    3883.3418   -51637.874   0.14006829 
   36700    284.13903   -11.299486    148516.52   -47794.868    3901.9653   -51696.833   0.13238764 
   36800    276.96743    4.0173868    148494.88   -47862.848    3803.4807   -51666.329   0.14223126 
   36900    283.32528   -54.654698    148534.33   -47786.033    3890.7904   -51676.824   0.13475092 
   37000    283.71087    -22.54704    148511.82    -47768.77    3896.0856   -51664.855    0.1453858 
   37100    283.39695     21.67119    148517.53   -47811.728    3891.7746   -51703.503   0.13266822 
   37200    283.72616       20.236     148490.1   -47810.484    3896.2955    -51706.78   0.13668267 
   37300    280.67646    11.960472    148501.39   -47806.318    3854.4153   -51660.733   0.13712103 
   37400    282.14426     13.34052    148512.56   -47821.698    3874.5719    -51696.27   0.13387251 
   37500    287.73889     4.357876    148508.74   -47791.089    3951.4008   -51742.489   0.14038247 
   37600    280.74048   -47.842497    148523.14   -47846.809    3855.2945   -51702.103   0.13704505 
   37700    279.40077   -4.5748142    148481.34   -47917.583    3836.8967    -51754.48    0.1367122 
   37800    280.30489    8.4973268     148476.2   -47939.352    3849.3126   -51788.664   0.13264145 
   37900    278.95208   -21.137612    148501.25   -47843.941    3830.7351   -51674.676   0.14189174 
   38000    284.15599   -24.397284    148533.31   -47778.927    3902.1983   -51681.125   0.13642484 
   38100    286.55141    15.617039    148532.32   -47718.071    3935.0935   -51653.165   0.14019004 
   38200    288.02337    36.303907    148536.83   -47681.007    3955.3074   -51636.314    0.1344754 
   38300    284.00291     2.417265    148548.36   -47736.237     3900.096   -51636.333   0.13925004 
   38400    288.89519    45.755693    148558.63   -47670.721    3967.2797   -51638.001   0.13397472 
   38500    289.24267   -14.108264    148520.39   -47730.074    3972.0516   -51702.125   0.14001038 
   38600    287.28862    1.8024217    148531.25   -47693.327    3945.2174   -51638.544   0.14039165 
   38700    286.12373    4.4142351    148547.55   -47662.911    3929.2204   -51592.132    0.1408298 
   38800     288.9899   -5.7267862    148544.24   -47695.835    3968.5804   -51664.415   0.14236946 
   38900    286.57262   -8.1096685    148571.97     -47637.8    3935.3848   -51573.185   0.13806007 
   39000    286.81706    9.4491083    148549.62   -47694.079    3938.7416    -51632.82   0.14626637 
   39100    289.90691   -2.4567982    148558.68    -47722.47    3981.1733   -51703.644   0.13217324 
   39200    278.94032    -17.49385    148527.95    -47845.11    3830.5736   -51675.684   0.14030363 
   39300    280.25367    -8.821223    148499.77   -47852.084    3848.6093   -51700.693   0.13572407 
   39400    287.08161   -42.050624    148525.61   -47730.407    3942.3746   -51672.781   0.13874774 
   39500    286.35303    21.714105    148523.24   -47706.599    3932.3693   -51638.968   0.14129245 
   39600    287.11404   -5.4885209    148544.15   -47708.143      3942.82   -51650.963    0.1358181 
   39700    287.07681   -27.822543    148537.49   -47691.167    3942.3087   -51633.475   0.14594653 
   39800     286.2017     -7.13338    148536.26   -47712.367    3930.2912   -51642.658   0.13940204 
   39900    286.76537   -31.269741    148543.39   -47679.009    3938.0317   -51617.041   0.14063489 
   40000    282.89975    21.517186     148531.7   -47750.289    3884.9468   -51635.236   0.13959671 
   40100    285.27196   -15.992096    148529.62   -47762.416    3917.5235    -51679.94   0.14238049 
   40200    283.46119    42.322697    148530.69   -47735.036    3892.6569   -51627.693   0.13601641 
   40300    286.81778    19.173714    148536.03   -47746.162    3938.7515   -51684.914    0.1401293 
   40400     282.4486    16.257235    148519.48   -47830.594    3878.7514   -51709.345   0.13225093 
   40500    290.33319    8.9505792    148538.63   -47690.837    3987.0272   -51677.864   0.13894544 
   40600    285.37778   -49.764527    148563.03   -47765.377    3918.9767   -51684.354    0.1388092 
   40700    283.51577    14.895089    148531.32   -47767.775    3893.4064   -51661.182   0.13442764 
   40800    287.96736   0.30257637    148551.21    -47742.69    3954.5382   -51697.228   0.13810656 
   40900    290.44666    40.371391    148523.19   -47730.229    3988.5855   -51718.815    0.1327601 
   41000    284.60737   -12.746039    148500.97   -47791.251    3908.3968   -51699.648   0.14113648 
   41100    285.73146    26.077377    148487.97   -47761.041    3923.8336   -51684.875   0.13497053 
   41200    287.43402   0.53963013     148538.8   -47652.781    3947.2141   -51599.996   0.14638046 
   41300    282.40354   -10.769542     148538.8   -47735.678    3878.1325    -51613.81   0.13483852 
   41400    290.71085    1.1854049    148516.11   -47679.324    3992.2134   -51671.537   0.14395224 
   41500    283.63563    50.858294    148531.64   -47692.762    3895.0524   -51587.814   0.13599591 
   41600    284.93476    2.5347486    148542.19   -47701.742    3912.8928   -51614.634   0.13838289 
   41700    282.05773   -29.255911    148496.28   -47805.406    3873.3837    -51678.79    0.1419367 
   41800    290.98967    26.208266    148515.73   -47723.829    3996.0424   -51719.872   0.13329579 
   41900    284.94568    -3.960798    148499.62   -47800.281    3913.0428   -51713.323   0.13875185 
   42000    283.11843    18.917828    148480.21   -47770.877    3887.9499   -51658.827   0.13561744 
   42100    281.53494    21.148369    148480.63   -47839.866    3866.2044    -51706.07   0.13829969 
   42200    280.39852    3.0084898    148489.73   -47803.438    3850.5985   -51654.036   0.14046932 
   42300    282.69154   -29.283439    148497.84   -47765.098    3882.0875   -51647.186   0.14569832 
   42400    287.20677    14.898855    148497.56   -47788.191    3944.0934   -51732.284   0.13307501 
   42500    283.60064    2.6649526    148508.02   -47753.146    3894.5719   -51647.718   0.14311319 
   42600    279.79298    -4.205411    148508.42   -47787.831    3842.2828   -51630.114   0.13502444 
   42700    285.15528    20.309851    148508.24   -47857.084     3915.921   -51773.005   0.13335374 
   42800    287.82603    -2.370874    148525.36   -47773.577    3952.5974   -51726.175   0.13638891 
   42900     282.4213   -2.5611369     148506.1   -47791.572    3878.3765   -51669.949   0.13935504 
   43000    284.73598   -38.457873    148520.29   -47814.374     3910.163   -51724.537   0.14188613 
   43100    288.15153   -11.643058    148521.63   -47731.982    3957.0674   -51689.049   0.13880671 
   43200    284.22174    11.892009    148524.81   -47743.079    3903.1012    -51646.18   0.14088062 
   43300    287.03284    31.958443    148508.71   -47738.553    3941.7048   -51680.258   0.13509656 
   43400    288.15917   -11.590836    148515.23   -47668.497    3957.1723   -51625.669   0.14733296 
   43500    285.15545   -26.108133    148547.68   -47731.404    3915.9235   -51647.328   0.13585218 
   43600    281.70337   -18.514611    148530.05   -47770.248    3868.5173   -51638.765   0.14441043 
   43700    284.18929    27.718127    148503.71   -47816.234    3902.6556    -51718.89   0.13549541 
   43800    282.19569     5.969273    148502.99   -47852.652    3875.2783    -51727.93   0.13559995 
   43900    280.13665   0.27054689    148498.35   -47760.407    3847.0022   -51607.409   0.14590957 
   44000    282.48195    1.9296095    148494.59   -47846.445    3879.2093   -51725.654   0.12859893 
   44100    283.80823    45.041359    148518.82   -47808.279    3897.4227   -51705.702   0.13701728 
   44200     285.0571    5.0439416    148533.21   -47769.632    3914.5728   -51684.205    0.1344359 
   44300    286.54262   -16.542191    148539.62   -47771.115    3934.9729   -51706.088   0.13691251 
   44400    286.39064    44.440898    148523.85   -47780.695    3932.8857    -51713.58   0.13669516 
   44500     282.3294    1.1756722    148528.22   -47786.193    3877.1144   -51663.307   0.14011055 
   44600    281.07613   -21.806593    148510.18   -47790.861    3859.9037   -51650.764   0.13770754 
   44700    284.35704   -29.440887    148517.72    -47782.31    3904.9592   -51687.269   0.14171694 
   44800    286.65515    19.495474    148514.59   -47732.581    3936.5182   -51669.099   0.13338386 
   44900    285.63537     3.381636    148516.59   -47724.125     3922.514   -51646.639    0.1386579 
   45000    283.94858    -2.957386    148506.58   -47763.007      3899.35   -51662.357   0.14503662 
   45100    291.37757    20.612732    148528.66   -47650.093    4001.3693   -51651.462   0.13507018 
   45200    288.27385    24.569784    148541.02   -47687.517    3958.7471   -51646.264   0.14045225 
   45300    286.06192    24.590818    148529.17   -47710.383    3928.3716   -51638.754    0.1331609 
   45400    285.47912   -14.360599    148512.45   -47775.413    3920.3683   -51695.781    0.1442117 
   45500    287.79138    20.496602    148544.72   -47715.335    3952.1215   -51667.456   0.13541526 
   45600    286.55961   -21.888996    148530.36   -47707.303    3935.2062   -51642.509   0.14639948 
   45700    292.74518    41.871655    148539.91     -47664.9    4020.1501    -51685.05   0.13409828 
   45800    288.49034    14.602866    148540.75   -47740.886    3961.7201   -51702.606    0.1390609 
   45900    290.53467    -28.96827    148567.33   -47602.089     3989.794   -51591.883   0.13954849 
   46000    292.46604    15.142038    148560.25   -47668.592    4016.3168   -51684.909   0.13695108 
   46100    289.04379    3.0843217    148549.36   -47571.654    3969.3204   -51540.974   0.15198962 
   46200    291.44958    9.8836999    148560.48   -47631.642    4002.3581       -51634   0.13472648 
   46300     288.4484   -22.622859    148566.97   -47623.884    3961.1442   -51585.029   0.14756884 
   46400    288.36472    10.252487    148535.18   -47665.397    3959.9951   -51625.392   0.13772238 
   46500    290.24395    3.5267831    148533.02    -47631.57    3985.8018   -51617.372   0.14573579 
   46600    289.38768   -20.161622    148528.77   -47689.221    3974.0429   -51663.264   0.14078869 
   46700    288.16007    26.593674    148546.11   -47626.784    3957.1847   -51583.969   0.14307451 
   46800    292.92914    28.260524    148538.99   -47634.519    4022.6763   -51657.195   0.13794325 
   46900    284.34959    3.1627111    148527.52   -47689.651    3904.8568   -51594.508   0.14327389 
   47000    286.32328    3.2185521    148527.72   -47721.003    3931.9607   -51652.964   0.13882111 
   47100    286.27384    2.2026779    148531.85   -47733.994    3931.2819   -51665.276   0.13950428 
   47200    283.49348    -24.35326    148510.87   -47702.778    3893.1002   -51595.878   0.14722874 
   47300    277.20358 -0.047182627       148512   -47823.655    3806.7236   -51630.378   0.13623739 
   47400     287.9006    10.083323    148488.06   -47755.123    3953.6214   -51708.745   0.14377658 
   47500    284.83239   -20.080629    148495.77   -47761.407    3911.4869   -51672.894    0.1393098 
   47600    290.74832    45.297988    148511.95   -47756.811     3992.728   -51749.539   0.13792791 
   47700    288.71423    4.0133284     148557.3    -47685.38    3964.7947   -51650.174   0.13752297 
   47800    284.41047   -39.589587    148534.13   -47745.527    3905.6929    -51651.22   0.14256895 
   47900    280.19399    9.5161423    148518.54   -47787.244    3847.7898   -51635.034   0.13524685 
   48000    281.75654    6.1315491    148514.33    -47752.01    3869.2476   -51621.258   0.14368672 
   48100    283.22566    46.835604    148472.99   -47788.976    3889.4223   -51678.398   0.13988822 
   48200    280.48084    12.643915     148497.4   -47782.218    3851.7289   -51633.947   0.13759319 
   48300    282.45511    46.160993    148521.46   -47734.998    3878.8407   -51613.839   0.14322067 
   48400    285.78049   0.83884883    148519.43   -47778.012    3924.5069   -51702.519   0.13209761 
   48500    281.02511   -4.9496696     148487.4   -47856.622    3859.2032   -51715.825   0.14501111 
   48600    280.20772    27.787527    148498.58   -47846.127    3847.9783   -51694.105   0.13419845 
   48700    285.99121    52.571383    148518.18   -47741.318    3927.4006   -51668.719    0.1384411 
   48800    280.48875    41.102984    148517.82   -47726.116    3851.8375   -51577.953   0.13843151 
   48900    283.53311   -58.149486    148535.31    -47759.63    3893.6445   -51653.274   0.14256254 
   49000    286.42127   -8.0024295    148516.32   -47788.003    3933.3064   -51721.309   0.13928502 
   49100    284.56754   -46.477124    148544.17   -47705.114      3907.85   -51612.963   0.14236524 
   49200    286.78726   -5.8741528    148558.97    -47741.37    3938.3324   -51679.702   0.14068458 
   49300    283.59761    6.2787084    148541.04   -47807.489    3894.5302   -51702.019   0.13551216 
   49400    284.45273   -37.277252    148501.92   -47823.414    3906.2732   -51729.687    0.1474958 
   49500    280.20528    7.3840878    148516.29   -47764.959    3847.9447   -51612.903    0.1390575 
   49600    284.11508    3.5681972     148526.4   -47764.146    3901.6364   -51665.782   0.14517919 
   49700     287.9604    28.931878    148530.31   -47766.492    3954.4426   -51720.935   0.13399196 
   49800    281.91363   -17.054971    148528.67   -47776.912    3871.4049   -51648.317   0.14008897 
   49900    287.13369    10.708339    148536.96   -47761.148    3943.0898   -51704.238   0.13518203 
   50000    284.87793    -3.880369    148506.45   -47763.773    3912.1123   -51675.885   0.14242133 
   50100    291.75653    19.096571    148539.58    -47621.89    4006.5734   -51628.463    0.1387996 
   50200    288.53551   -36.504055    148519.25   -47699.735    3962.3404   -51662.075   0.14363609 
   50300    289.13002    29.998887    148535.16   -47709.809    3970.5045   -51680.314   0.13686314 
   50400    285.34118   -8.3336598    148531.49   -47732.553     3918.474   -51651.027   0.14048904 
   50500    288.90172   0.81283718    148539.11   -47639.544    3967.3694   -51606.914   0.14704738 
   50600    289.98834    14.002955    148565.32   -47570.955    3982.2915   -51553.247   0.14145099 
   50700    283.11954   -5.2432254    148526.81   -47805.922    3887.9651   -51693.888   0.14379075 
   50800    283.26628   -13.410021    148507.92   -47784.023    3889.9802   -51674.003   0.13576961 
   50900    282.92774   -39.716553     148506.7   -47816.264    3885.3313   -51701.596   0.14478499 
   51000    287.12616    11.626387    148512.47   -47769.724    3942.9863    -51712.71   0.13892241 
   51100    284.94695   -12.625955    148483.81   -47779.152    3913.0602   -51692.212   0.14128186 
   51200    280.55556   -24.652487    148487.19   -47836.915    3852.7551    -51689.67   0.14231445 
   51300    280.12983   -7.7150301    148467.84   -47844.462    3846.9086    -51691.37    0.1388847 
   51400    288.22982      26.3587    148497.88   -47785.793    3958.1424   -51743.935   0.14121335 
   51500    280.64404   -1.3034709    148472.75   -47836.098    3853.9701   -51690.068   0.14046485 
   51600    281.02639   -14.078057    148491.35   -47756.637    3859.2207   -51615.858   0.14683578 
   51700    291.33394    44.469413    148512.54   -47653.355    4000.7701   -51654.125   0.14098794 
   51800    281.87598    4.1909158    148542.89   -47704.122    3870.8878    -51575.01   0.14400831 
   51900     286.3539   -14.315378    148537.97   -47771.535    3932.3813   -51703.916    0.1400445 
   52000    286.13625   -15.595539    148519.21   -47752.243    3929.3923   -51681.635   0.14440374 
   52100    287.62771    5.8216519    148526.47   -47835.142    3949.8739   -51785.016   0.13844475 
   52200    279.47837   -38.385926    148505.52   -47887.324    3837.9625   -51725.287   0.14188928 
   52300    283.29966    34.685407    148526.42   -47866.573    3890.4386   -51757.012   0.13275544 
   52400    283.06815    4.4397767    148491.71   -47945.823    3887.2595   -51833.083   0.13526522 
   52500    278.79931    40.874442    148499.88   -47794.436    3828.6371   -51623.073   0.14065498 
   52600    283.74722   -37.038717    148535.21   -47765.696    3896.5848    -51662.28   0.14199868 
   52700     281.1662   -24.584912    148541.17   -47702.648    3861.1407   -51563.788   0.14967976 
   52800     287.1784     22.78524    148580.77    -47677.07    3943.7038   -51620.774   0.13459253 
   52900    293.42978   -16.076571    148564.87   -47700.167    4029.5515   -51729.719   0.14520232 
   53000    290.44522   -3.0719215    148574.23   -47649.056    3988.5657   -51637.622    0.1390169 
   53100    284.03651    11.691394    148548.06   -47784.363    3900.5574   -51684.921   0.14115221 
   53200    283.73725    1.3621021    148536.82   -47829.906    3896.4479   -51726.354   0.13776745 
   53300    284.34701     13.28039    148549.45   -47800.436    3904.8214   -51705.258   0.13790727 
   53400      285.171     25.81273    148546.79   -47728.032     3916.137   -51644.169   0.14289671 
   53500    288.18212   -4.4081658    148538.96   -47720.397    3957.4875   -51677.885   0.14278119 
   53600    285.35289    19.182208    148534.06   -47787.134    3918.6348   -51705.769   0.14314591 
   53700    280.57399   -33.316491    148551.52   -47767.725    3853.0081   -51620.733   0.14504175 
   53800    283.22561   -8.2046253    148537.53   -47793.255    3889.4217   -51682.677   0.14617322 
   53900    283.91001    7.6749182    148528.59   -47794.371    3898.8202   -51693.192   0.13792241 
   54000    283.05151   -12.495258    148528.56   -47809.768    3887.0309   -51696.799   0.14167014 
   54100    281.82111     11.54525    148528.44   -47780.162    3870.1343   -51650.296   0.14149681 
   54200     284.1021     3.450195    148524.17   -47726.832    3901.4581   -51628.291     0.143208 
   54300    289.22728    14.160816    148547.17    -47658.82    3971.8403    -51630.66    0.1425446 
   54400    290.02151    29.946342    148556.17   -47574.234    3982.7471   -51556.981   0.14616117 
   54500    287.74023   -1.2346882    148550.41   -47645.273    3951.4191   -51596.693   0.14226322 
   54600    286.80833   -2.4881457    148557.89   -47666.177    3938.6217   -51604.799   0.14688737 
   54700    282.77466    10.317799    148539.77   -47722.439     3883.229   -51605.668   0.14467418 
   54800     288.9008   -16.265072    148548.98   -47655.008    3967.3568   -51622.364   0.14708218 
   54900    286.80017    24.068859    148545.55    -47668.34    3938.5097    -51606.85   0.14856932 
   55000    288.75739    3.0406844    148539.26   -47699.432    3965.3874    -51664.82   0.13948768 
   55100    282.15207   -19.389941    148511.72   -47712.521    3874.6792     -51587.2   0.15198955 
   55200    282.36716    1.6537022    148502.37   -47827.473     3877.633   -51705.106    0.1365863 
   55300    281.94398    8.5082006    148477.36   -47868.131    3871.8216   -51739.953   0.14072846 
   55400     277.2568    3.9603439    148485.58   -47830.216    3807.4545    -51637.67   0.14234973 
   55500    282.39039  -0.67771699    148474.62   -47788.558    3877.9519    -51666.51   0.14387827 
   55600    291.71721    37.078637     148531.5   -47692.698    4006.0334   -51698.732   0.14296705 
   55700    290.24455   -7.7508172    148529.91    -47648.39      3985.81     -51634.2   0.14329787 
   55800    286.98858   -49.799031    148547.01    -47638.05     3941.097   -51579.147   0.15231094 
   55900    288.97246    5.5631717    148533.91   -47651.774    3968.3409   -51620.115   0.14252975 
   56000    281.12308   -17.404477     148516.7    -47662.71    3860.5485   -51523.259   0.15726446 
   56100    291.41385   0.19052003    148521.91   -47645.875    4001.8675   -51647.742   0.14322924 
   56200    293.04346    2.0612422    148542.24   -47687.518    4024.2462   -51711.764   0.14283775 
   56300    286.14452   -6.1769119    148489.79   -47752.248     3929.506   -51681.754   0.14808005 
   56400    281.72633    -23.18877     148496.1   -47803.815    3868.8327   -51672.648   0.14128534 
   56500    278.70084    3.0475187    148474.86   -47849.761     3827.285   -51677.046   0.14479573 
   56600    284.31683   -2.0257601    148468.49    -47906.53    3904.4069   -51810.937    0.1389477 
   56700     279.1621   -32.520833    148481.98   -47886.436    3833.6192   -51720.055    0.1423743 
   56800    283.40568   -20.078036    148491.27   -47773.403    3891.8946   -51665.298   0.14795238 
   56900    282.72401    1.2968904    148480.77   -47866.854    3882.5334   -51749.388   0.14001681 
   57000    282.21486    33.619298    148473.57   -47850.134    3875.5415   -51725.676   0.13733978 
   57100    283.50676    34.416154    148487.71   -47771.348    3893.2826   -51664.631   0.14805559 
   57200    286.63119    23.557566    148506.38   -47724.394    3936.1891   -51660.583    0.1380223 
   57300    285.26234    16.424045    148489.05   -47858.836    3917.3912   -51776.227   0.14436098 
   57400    287.38484    28.811672    148487.28   -47734.645    3946.5388   -51681.183   0.14225341 
   57500    291.24891    58.385333    148527.96   -47710.029    3999.6025   -51709.631   0.14000274 
   57600    285.27034    27.568331    148494.09   -47816.598    3917.5012   -51734.099   0.13955436 
   57700    285.46933    39.526355    148529.17   -47731.677    3920.2338   -51651.911   0.13814434 
   57800     286.9591     21.46093    148531.86   -47684.426    3940.6921   -51625.118   0.14590219 
   57900    286.10274   -7.4528486    148538.64   -47723.525    3928.9322   -51652.457   0.14077738 
   58000    288.09159   -3.7156236    148499.03   -47676.402    3956.2442   -51632.646   0.15081167 
   58100    288.63128    6.6278577    148516.09   -47726.867    3963.6555   -51690.522   0.13929208 
   58200     284.4093   -40.582532    148526.69   -47624.655    3905.6769   -51530.332   0.15578251 
   58300    286.30974    1.2927013    148524.02   -47687.957    3931.7748   -51619.732   0.14076149 
   58400     286.6286   -17.774224    148526.23   -47737.958    3936.1535   -51674.112   0.14122075 
   58500    288.89692   -16.787121    148502.75   -47740.747    3967.3035    -51708.05    0.1424454 
   58600     284.3948   -26.769803    148483.34   -47771.746    3905.4777   -51677.224   0.13955582 
   58700    283.45225    20.586534    148497.94   -47728.922    3892.5341   -51621.456     0.148172 
   58800    285.44167    6.3867399    148512.07   -47768.463     3919.854   -51688.317   0.14272421 
   58900    289.19803   -15.500928    148522.33   -47693.912    3971.4385   -51665.351   0.14247779 
   59000    286.08426   -11.938258    148536.43   -47654.917    3928.6784   -51583.595   0.14682582 
   59100    289.68788    17.630022    148536.16   -47618.459    3978.1654   -51596.625   0.14495542 
   59200    286.94314    7.1341619    148523.16   -47740.594     3940.473   -51681.067   0.14323849 
   59300    288.97541  0.056929614    148504.13   -47718.031    3968.3813   -51686.412   0.14574487 
   59400    282.39958    2.9061802    148513.28     -47701.9    3878.0783   -51579.979     0.139449 
   59500    282.09175   -1.2447725    148497.05   -47811.103    3873.8508   -51684.954   0.14346602 
   59600    280.19029   -18.120352    148493.05   -47784.021    3847.7389    -51631.76   0.14575401 
   59700    285.70373   -2.1306311    148500.88   -47714.045    3923.4527   -51637.498   0.14167435 
   59800     282.2415    8.9953325    148468.85   -47827.975    3875.9073   -51703.882   0.14448104 
   59900    280.70862    34.006448    148499.46   -47821.172     3854.857   -51676.029   0.13626299 
   60000    288.34295   -10.467098    148497.36   -47785.722    3959.6961   -51745.418    0.1445064 
   60100    286.99515   -11.992491    148514.17   -47746.981    3941.1872   -51688.168   0.14073571 
   60200    285.20461    7.7221278    148526.76   -47716.252    3916.5985   -51632.851   0.14442268 
   60300    283.54736   -10.084113    148538.89   -47676.946    3893.8401   -51570.786   0.14451275 
   60400    288.14366   -17.412799     148556.2   -47629.368    3956.9593   -51586.327   0.14842261 
   60500    284.69929    21.134053    148559.78   -47658.852    3909.6591   -51568.511   0.14121735 
   60600    287.94908    16.878715    148556.78   -47722.338    3954.2872   -51676.625   0.14074915 
   60700    293.96187    2.6765027    148575.49   -47548.695    4036.8585   -51585.554   0.14897317 
   60800    290.83976   -8.2345109     148583.5   -47577.483    3993.9837   -51571.467   0.14023045 
   60900    291.48723   -14.262949    148579.69   -47671.237    4002.8752   -51674.113   0.14471079 
   61000    289.59013    18.892635    148590.47   -47713.065    3976.8231   -51689.888   0.13795909 
   61100    285.09323   -24.849178    148582.78   -47693.689    3915.0689   -51608.758   0.14392399 
   61200    292.79507   -7.3286303    148577.47   -47638.387    4020.8352   -51659.222   0.14426983 
   61300    280.98342   -2.8192969    148547.28   -47723.494    3858.6306   -51582.125    0.1402387 
   61400    284.53457   -17.380413    148536.45    -47775.75    3907.3971   -51683.147   0.14141851 
   61500    286.75503  -0.81699656    148549.36   -47714.191    3937.8898   -51652.081   0.14606781 
   61600    285.37186    12.870395    148525.44   -47751.264    3918.8953    -51670.16   0.14017303 
   61700    288.66031   -10.827783    148520.34   -47819.066    3964.0542    -51783.12   0.14342341 
   61800    285.05214    20.386898    148524.57    -47809.05    3914.5047   -51723.554   0.13500851 
   61900    284.73367    23.080331    148538.74   -47703.786    3910.1313   -51613.918   0.13981149 
   62000    282.89288   -4.1195133    148529.58   -47714.366    3884.8525   -51599.219   0.14765824 
   62100    279.78577    11.108952    148522.03   -47786.557    3842.1839   -51628.741   0.14068629 
   62200    289.61056   -20.766652    148534.06   -47680.977    3977.1037   -51658.081   0.14375545 
   62300     281.1004   -5.0526207    148537.84   -47724.135     3860.237   -51584.372   0.14070839 
   62400     279.2779   -20.697879    148512.97   -47774.763    3835.2094   -51609.972   0.14461182 
   62500    286.36291    30.560456     148514.1    -47761.42     3932.505   -51693.925   0.14045176 
   62600    283.73391   -4.4773549    148509.67   -47789.931     3896.402   -51686.332   0.14134161 
   62700     281.3048   -16.781047    148496.24   -47826.734    3863.0441   -51689.778   0.14094965 
   62800    280.18846   -16.958645     148489.9    -47796.25    3847.7137   -51643.964     0.142609 
   62900    285.57088    20.218041    148520.43   -47706.559    3921.6284   -51628.187   0.14394163 
   63000    291.13737    24.410622    148530.56    -47737.29    3998.0707    -51735.36   0.13478027 
   63100    282.63769    5.2984456    148502.52   -47810.214     3881.348   -51691.562   0.14429672 
   63200    289.48334    43.269671    148514.91   -47686.098    3975.3566   -51661.455   0.14348582 
   63300    282.17757   -7.0962478    148517.62   -47788.929    3875.0295   -51663.958    0.1385284 
   63400    277.04858   -33.094846    148494.62   -47870.912    3804.5951   -51675.507   0.14452018 
   63500    280.16733   -22.848304    148507.68   -47848.276    3847.4237     -51695.7   0.14109817 
   63600     279.1578   -35.134096    148498.68   -47896.845    3833.5602   -51730.405   0.14183195 
   63700    279.55837    11.392445    148474.48   -47859.593     3839.061   -51698.654   0.14380493 
   63800    282.97861    12.703142    148473.68   -47930.998    3886.0297   -51817.027   0.13272667 
   63900    284.62208    11.737518    148469.46   -47823.548    3908.5989   -51732.147   0.14397774 
   64000    278.48005   -9.1353578    148497.53   -47733.872    3824.2528   -51558.125   0.14949657 
   64100    286.76072   0.65185033    148508.74   -47689.242     3937.968    -51627.21   0.14468487 
   64200    287.84704   -7.2531005    148535.89   -47683.866    3952.8859   -51636.752   0.14650431 
   64300    283.94843   0.79526747    148528.91   -47723.294    3899.3479   -51622.642   0.13916085 
   64400    281.37968   -4.9973001    148521.16   -47778.992    3864.0723   -51643.064   0.14617041 
   64500    282.51322   -8.0566152    148508.54   -47765.686    3879.6387   -51645.324   0.14295513 
   64600    287.43517   -4.4412817    148513.79   -47802.976      3947.23   -51750.206   0.13989835 
   64700    283.51801    28.453252    148484.81    -47804.25    3893.4371   -51697.687   0.14088972 
   64800    283.23127   -13.637375    148495.41   -47753.295    3889.4995   -51642.794    0.1454221 
   64900    289.74823    38.484028    148507.24   -47659.314    3978.9942   -51638.309   0.14243598 
   65000    286.15347    10.026528    148540.37   -47657.345    3929.6289   -51586.974   0.14624136 
   65100    282.67264   -51.391897     148529.7   -47723.969     3881.828   -51605.797   0.14964459 
   65200    286.24684   -24.671454    148514.78   -47743.132     3930.911   -51674.043   0.14266193 
   65300    288.07356    6.9695877    148526.76   -47677.392    3955.9966   -51633.388   0.14786582 
   65400    286.87442   -12.156188    148509.28   -47715.143    3939.5293   -51654.673   0.14497456 
   65500    288.77362    18.439934    148511.11   -47650.599    3965.6103   -51616.209   0.14788518 
   65600    289.12075   -7.1721908    148538.48   -47669.939    3970.3773   -51640.316   0.14856758 
   65700    286.93713    -13.51796     148531.9   -47629.585    3940.3906   -51569.976   0.14756185 
   65800    290.65896    12.988841    148533.03   -47697.414    3991.5008   -51688.915   0.14038084 
   65900    284.83114 -0.083137319    148545.99   -47713.211    3911.4698   -51624.681   0.14516617 
   66000    284.25806   -12.088715    148515.05   -47713.262    3903.5999   -51616.862    0.1429612 
   66100    284.66209   -18.533215    148521.34   -47685.442    3909.1482    -51594.59   0.14779067 
   66200    281.76698  -0.58569838    148521.04   -47817.689     3869.391    -51687.08   0.14222598 
   66300    282.45687    5.8693108    148528.32   -47747.915     3878.865    -51626.78   0.13721093 
   66400    280.21641   -18.111332    148514.87   -47751.722    3848.0976   -51599.819   0.15028111 
   66500    285.53329   -17.205285     148538.2   -47789.931    3921.1122   -51711.043   0.13846417 
   66600    289.02487   -16.889123    148512.37   -47790.264    3969.0605   -51759.325   0.14300985 
   66700    285.36686   -34.327388    148516.99   -47778.696    3918.8266   -51697.523     0.145188 
   66800    280.94394   -3.8530153    148509.83   -47800.207    3858.0884   -51658.295   0.14279406 
   66900    284.40334     -6.02185    148505.75   -47812.872     3905.595   -51718.467   0.14282753 
   67000    279.39863    34.231747    148497.97   -47914.011    3836.8673   -51750.879   0.13464174 
   67100    283.01423   -11.866889    148487.86   -47747.963    3886.5189   -51634.482   0.14838543 
   67200    279.80135    8.5380767    148499.59   -47857.764    3842.3978   -51700.161   0.14000436 
   67300    283.33591   0.41067556    148530.98   -47780.477    3890.9364   -51671.414   0.14521277 
   67400    286.11097    26.622172    148514.63   -47758.323    3929.0452   -51687.368   0.13817831 
   67500    286.17579   -6.3026775    148535.58   -47748.585    3929.9354    -51678.52   0.14789268 
   67600    287.36127    10.044039    148559.56   -47607.331    3946.2151   -51553.546   0.14405293 
   67700     282.6845    5.3551069    148541.93   -47677.844    3881.9908   -51559.835   0.14588294 
   67800    289.52749   -5.3022269    148534.56   -47718.816    3975.9628   -51694.779   0.14538159 
   67900    282.23165  -0.72424129    148543.13   -47747.842    3875.7721   -51623.614   0.14352558 
   68000    285.35413    19.819093    148549.62   -47783.503    3918.6518   -51702.155   0.14226296 
   68100     282.3881    8.2148205    148544.11   -47784.487    3877.9205   -51662.408   0.14284736 
   68200    287.83686   -7.7489315    148565.35   -47758.145    3952.7461   -51710.891   0.13972638 
   68300    288.49105    21.710088    148585.86   -47709.018    3961.7299   -51670.748   0.14240699 
   68400    285.33101   -14.386508    148560.29    -47671.45    3918.3343   -51589.784   0.14730901 
   68500    281.67151    -8.113725    148562.96   -47665.626    3868.0799   -51533.706   0.14433523 
   68600    283.98783   -28.083981     148546.2   -47760.822    3899.8889   -51660.711   0.15051705 
   68700    292.16556   -9.2387321    148538.31   -47731.807    4012.1905   -51743.997    0.1357865 
   68800     285.5943   -18.906062    148539.91   -47730.566      3921.95   -51652.516   0.14838091 
   68900    289.09808    21.138049    148512.85   -47725.999     3970.066   -51696.065   0.14550804 
   69000    286.93047   -5.5978315    148509.47   -47726.744    3940.2991   -51667.043   0.14376737 
   69100     287.4971   -6.9334107    148500.83   -47792.842    3948.0804   -51740.923   0.14807342 
   69200    282.32258   -36.360671    148504.25   -47798.593    3877.0208   -51675.614   0.14000349 
   69300    283.32038   -13.275551    148494.14   -47832.243    3890.7231   -51722.966   0.14703761 
   69400    286.44503    29.500553    148479.03   -47880.894    3933.6327   -51814.527   0.13686216 
   69500    287.86969    23.021345    148495.36   -47744.034     3953.197   -51697.231   0.14316567 
   69600    289.11102   -15.266283    148531.46   -47641.447    3970.2436   -51611.691   0.15129811 
   69700    284.35289   -10.651072    148517.93   -47739.086    3904.9023   -51643.988   0.14710617 
   69800    287.53015   -28.111616    148502.23   -47734.615    3948.5343   -51683.149   0.14660612 
   69900    280.99274   -16.676535    148490.03   -47831.511    3858.7586    -51690.27   0.14538342 
   70000    281.21404    23.878486    148482.28   -47755.489    3861.7977   -51617.286    0.1492774 
   70100    281.10731   -24.162339    148478.51   -47878.863    3860.3319   -51739.195    0.1439235 
   70200    284.56057    14.992029    148517.68   -47718.211    3907.7542   -51625.966    0.1478474 
   70300    290.29192     12.85961    148519.25   -47728.561    3986.4604   -51715.021   0.14304095 
   70400    285.94527    18.325229    148544.39   -47614.804    3926.7697   -51541.574   0.15083446 
   70500    288.39816   -15.708569    148533.92   -47684.867    3960.4543   -51645.321   0.14865458 
   70600    285.77859   -15.848486    148521.87   -47739.823    3924.4808   -51664.304   0.14942791 
   70700    286.18557   -12.463527     148509.7    -47709.07    3930.0697    -51639.14   0.14414505 
   70800    286.69763    -7.135959    148513.32    -47747.79    3937.1015   -51684.891    0.1517534 
   70900    286.25217    9.2178659    148508.95   -47736.738    3930.9842   -51667.722   0.14194965 
   71000    280.41893    7.0853956    148497.78   -47754.562    3850.8788   -51605.441   0.14525809 
   71100    281.39081   -23.720825    148478.42   -47745.549    3864.2251   -51609.775   0.15216676 
   71200    277.83633   -28.336422    148497.86    -47786.81     3815.413   -51602.223   0.14277256 
   71300    284.98879   -4.7365771    148468.61   -47839.508    3913.6348   -51753.142   0.14913019 
   71400    286.82016    2.8339028    148479.19   -47779.426    3938.7842   -51718.211   0.13855357 
   71500    287.06303    4.0112989    148487.74   -47731.585    3942.1194   -51673.704   0.14786277 
   71600    290.70592    32.563586    148490.26   -47752.239    3992.1457   -51744.385   0.14347269 
   71700    279.29794   -46.108977    148499.57   -47739.815    3835.4846     -51575.3   0.15042417 
   71800    278.33606    -29.64533    148473.32   -47913.088    3822.2756   -51735.363   0.14226649 
   71900    284.32799    14.431682    148454.22   -47852.673    3904.5602   -51757.234    0.1405019 
   72000    283.24917    27.514774    148475.95   -47817.103    3889.7452   -51706.849    0.1417417 
   72100    282.34633    3.5388442    148498.87   -47683.866     3877.347   -51561.213   0.14772262 
   72200    292.76454    3.0631451    148528.99   -47578.723    4020.4159   -51599.139   0.15138193 
   72300    291.85652    37.644308    148560.35   -47557.539    4007.9465   -51565.485   0.14553985 
   72400    285.55006   -25.030909    148528.15   -47678.273    3921.3424   -51599.616   0.14831117 
   72500    284.45724   -34.167433    148523.96   -47673.152    3906.3352   -51579.487   0.14868308 
   72600     288.3519   -23.682375    148527.81   -47611.524     3959.819   -51571.342   0.15077945 
   72700     280.6378   -21.153184    148508.44   -47775.129    3853.8844   -51629.014   0.14662265 
   72800    284.61798    10.063967    148498.35   -47699.571    3908.5426   -51608.114   0.14654522 
   72900    286.31441   -33.588119     148511.4   -47709.738    3931.8389   -51641.577    0.1433219 
   73000    285.87902    25.364839    148505.75   -47719.869      3925.86   -51645.729   0.14341924 
   73100    287.55338    12.690812    148503.91   -47674.359    3948.8533   -51623.213   0.14277509 
   73200    285.81002   -18.696712    148555.68   -47667.333    3924.9124   -51592.245   0.14704305 
   73300    290.37439     24.57382    148544.96   -47640.162     3987.593   -51627.755    0.1462043 
   73400    288.31521   -15.379529    148540.86   -47625.424    3959.3151   -51584.739   0.14380977 
   73500    291.11979   -20.663311    148538.54   -47628.012    3997.8292   -51625.841   0.14636464 
   73600    289.70457    12.268161    148527.81   -47667.771    3978.3947   -51646.165     0.141833 
   73700    282.51876    12.494728    148524.12   -47727.032    3879.7148   -51606.746   0.14670924 
   73800    281.17343  -0.97096361     148517.9   -47815.346    3861.2399   -51676.586   0.14337735 
   73900    286.73362    7.9449724    148535.03    -47799.54    3937.5958   -51737.135   0.13885204 
   74000    283.43606    1.6002411    148516.34   -47719.491    3892.3117   -51611.803   0.14513066 
   74100    291.22707   -8.7331195     148585.8    -47565.25    3999.3025   -51564.552   0.14290224 
   74200    285.17995   -36.408303    148546.11   -47725.034    3916.2599   -51641.293   0.14683467 
   74300     289.3669    -0.959148    148529.44   -47729.617    3973.7575   -51703.375   0.13913758 
   74400     282.8243   -21.554034    148526.87   -47759.712    3883.9107   -51643.623   0.14369162 
   74500     283.8517    27.925317    148507.46   -47772.949    3898.0195   -51670.968   0.13790853 
   74600    282.97667   -30.680721    148511.74   -47778.706    3886.0031    -51664.71   0.14559291 
   74700    285.28424   -5.7256467    148509.03   -47689.935    3917.6921   -51607.627   0.14546191 
   74800    285.15479   -12.989926    148500.57   -47747.957    3915.9143   -51663.871   0.14753775 
   74900    284.43117   -51.231976    148515.06    -47753.59    3905.9772   -51659.568   0.14606489 
   75000    286.74541    17.303821     148512.9   -47733.743    3937.7577     -51671.5   0.14504866 
   75100    290.53809    55.217891    148527.86   -47661.178     3989.841   -51651.019   0.13942808 
   75200    288.04879   -2.4080963    148525.96   -47710.122    3955.6564   -51665.779   0.14578841 
   75300    287.94281    32.945087    148509.25   -47761.993    3954.2011   -51716.194   0.14032284 
   75400    285.38276    -21.95429    148513.63   -47775.797    3919.0449   -51694.842    0.1449302 
   75500    286.32384 -0.040018871    148514.59   -47769.306    3931.9684   -51701.274   0.14296544 
   75600    289.13113    17.505449    148538.77   -47697.446    3970.5198   -51667.966   0.14015446 
   75700    285.77832   -20.845272    148525.53    -47652.05    3924.4771   -51576.527   0.15354403 
   75800    287.21047   -4.7499847    148562.98   -47679.203    3944.1442   -51623.347   0.14233461 
   75900    283.97123   -18.789986    148549.56   -47696.896     3899.661   -51596.557   0.14929716 
   76000    282.88594   -20.151508    148552.73   -47703.263    3884.7572    -51588.02   0.14460283 
   76100    281.45579   -67.716685    148524.03   -47792.877    3865.1176   -51657.994   0.14780239 
   76200    280.10514    2.3925527    148542.38   -47834.922    3846.5696   -51681.491   0.14271279 
   76300    286.55921    8.4247568    148538.21   -47780.081    3935.2007   -51715.282   0.13975751 
   76400    283.48986    15.914433    148528.72   -47772.142    3893.0506   -51665.192   0.14263013 
   76500    281.58271    28.365193    148549.62   -47761.134    3866.8605   -51627.995   0.14073509 
   76600    277.85686   -10.838776    148543.58   -47802.107    3815.6949   -51617.802   0.14315496 
[...]
   81900    282.20859   -17.899083    148515.14   -47800.465    3875.4554   -51675.921   0.14182649 
   82000    287.58078    3.9585139    148526.42   -47708.326    3949.2295   -51657.555   0.14396968 
   82100    284.35604    3.6721869    148553.82   -47662.072    3904.9454   -51567.018   0.14610634 
   82200    286.40736    46.452386    148553.53   -47672.921    3933.1154   -51606.037   0.13827759 
   82300    287.63911   -19.459629     148531.1   -47748.653    3950.0305   -51698.684   0.14374478 
   82400    286.37173    9.2654627    148537.07   -47619.551    3932.6261   -51552.177   0.14641136 
   82500    291.22241   -9.2623993    148569.46   -47528.939    3999.2385   -51528.177   0.15090661 
   82600    292.21646   -14.856998    148573.42   -47634.482    4012.8894   -51647.371   0.14449286 
   82700    287.70649   -32.642741    148546.53   -47717.345    3950.9558   -51668.301   0.14101045 
   82800    285.08291    11.125411     148525.2   -47719.394    3914.9273   -51634.321    0.1442898 
   82900    287.25528   -5.1017109    148535.34   -47671.888    3944.7596   -51616.648    0.1460101 
   83000    287.15903   -2.5409246    148556.61    -47614.61    3943.4378   -51558.048   0.14647914 
   83100    288.57229    24.773713    148542.17   -47653.417    3962.8455   -51616.263   0.14329125 
   83200    291.71215   -20.375316    148534.53   -47686.245     4005.964   -51692.209   0.14136021 
   83300    286.69651    22.270575    148533.55   -47670.648    3937.0861   -51607.734   0.14489497 
   83400    280.13134   -67.083545    148527.41   -47753.619    3846.9293   -51600.549   0.15281229 
   83500    282.22671   -18.554744    148491.67   -47846.523    3875.7043   -51722.228   0.14715536 
   83600    284.81802    16.428516    148495.83    -47793.69    3911.2897    -51704.98     0.144039 
   83700    281.99737   -33.716814    148501.03   -47824.396    3872.5549   -51696.951   0.14348303 
   83800    283.01623    13.399222    148489.25   -47787.406    3886.5464   -51673.952   0.14443183 
   83900      288.491    35.563227    148514.26   -47790.274    3961.7292   -51752.003   0.14038164 
   84000    281.66515   -24.329698    148513.44   -47806.774    3867.9926   -51674.767   0.14582231 
   84100    286.89848   -32.297561    148528.14   -47738.693    3939.8597   -51678.553   0.14363448 
   84200    288.17673    8.0598077    148535.52   -47694.044    3957.4134   -51651.458   0.14301035 
   84300    287.77979    29.961761    148549.24   -47747.216    3951.9624   -51699.179   0.14012242 
   84400    285.78401    21.282023    148555.92    -47743.71    3924.5551   -51668.265   0.14314193 
   84500    280.80219   -25.021458    148543.21   -47801.494    3856.1419   -51657.636    0.1482454 
   84600    284.48081    22.892167    148550.92   -47714.666    3906.6589   -51621.325   0.14266897 
   84700    285.30178   -11.806826    148553.29   -47723.892    3917.9329   -51641.825   0.14241313 
   84800    285.08521    -21.90696    148530.26   -47717.533    3914.9589   -51632.492   0.14685492 
   84900    292.19876   0.89610486    148538.31   -47639.385    4012.6463   -51652.031   0.14671734 
   85000    285.62091    19.492351    148529.93   -47710.219    3922.3154   -51632.534   0.14482298 
   85100    284.84167    4.6733118    148523.62   -47731.968    3911.6145   -51643.583   0.14808851 
   85200    280.36227    35.781043    148520.49   -47763.442    3850.1006   -51613.542   0.13995986 
   85300     280.8674    2.1338168    148510.81   -47772.639    3857.0374   -51629.677   0.14460748 
   85400    282.30996    15.134339    148528.52   -47807.188    3876.8474   -51684.035   0.14189194 
   85500    281.74417   -13.663204    148531.87   -47751.458    3869.0777   -51620.536   0.14894505 
   85600    285.91103   -29.855844    148540.97   -47786.735    3926.2995   -51713.035   0.14551822 
   85700    288.41967    6.9297954    148573.72    -47727.16    3960.7496    -51687.91   0.13906605 
   85800    285.79251    2.2977168    148547.88    -47714.36    3924.6719   -51639.032   0.14588434 
   85900    288.64305   -21.307363    148566.93   -47693.298    3963.8172   -51657.115   0.14408666 
   86000    285.13803   -17.515424    148548.53   -47742.192    3915.6842   -51657.876   0.14604304 
   86100    285.35472   -3.8259107    148548.79   -47718.478    3918.6598   -51637.138   0.14341191 
   86200     286.8503    28.843662    148566.46   -47680.478    3939.1982   -51619.676   0.14350234 
   86300    288.25922    21.304646     148546.7   -47727.943    3958.5463   -51686.489   0.14264163 
   86400    288.79741    30.562631     148517.6   -47782.704     3965.937   -51748.641   0.14207892 
   86500     283.7941   -27.958606    148514.97   -47819.093    3897.2286   -51716.321   0.14734054 
   86600      291.924    21.928164    148537.24   -47658.496    4008.8732   -51667.369   0.14706929 
   86700    288.69558     4.191747    148564.22    -47662.65    3964.5386   -51627.188   0.14731737 
   86800     282.8357   -7.9505933    148528.39   -47780.295    3884.0672   -51664.362   0.14115885 
   86900    284.99545   -11.711674    148521.51   -47765.819    3913.7263   -51679.546   0.14629784 
   87000    283.54904   -3.7217709    148529.15   -47734.249    3893.8632   -51628.112   0.14676647 
   87100    285.07405   -8.6807072    148528.06   -47709.921    3914.8057   -51624.727   0.14763002 
   87200    286.69742   -19.667504    148551.05   -47647.441    3937.0987    -51584.54   0.14798159 
   87300    291.41316   -20.271719    148562.94   -47660.864    4001.8581   -51662.722    0.1449427 
   87400    285.83058   -4.3566078    148523.63   -47713.498    3925.1948   -51638.693   0.14603991 
   87500     290.0261    27.037234    148547.23   -47682.891    3982.8101   -51665.701    0.1477922 
   87600    285.74423   0.32098966    148533.62   -47705.851     3924.009   -51629.859   0.14805988 
   87700    290.16565    2.1581007    148554.47   -47686.592    3984.7264   -51671.318   0.14238622 
   87800    282.89736    7.0845803    148493.83   -47759.225     3884.914   -51644.139   0.14807946 
   87900    280.67631   -6.3774977    148497.62   -47784.956    3854.4132    -51639.37    0.1400397 
   88000    280.93864   -20.670677    148490.26   -47752.026    3858.0157   -51610.041   0.15128044 
   88100    279.57028   -20.235747    148506.05   -47721.859    3839.2246   -51561.084   0.14776521 
   88200    288.78537    -8.001682    148513.15   -47826.573    3965.7716   -51792.345   0.14141821 
   88300    285.28248   -5.4939801    148504.67   -47765.115    3917.6679   -51682.783   0.14403943 
   88400    290.88052    8.7960947    148557.21   -47698.767    3994.5435    -51693.31   0.14199731 
   88500     286.7946   -14.706752    148538.55   -47769.832    3938.4332   -51708.265   0.14360011 
   88600    283.88568    11.989563    148520.07   -47757.392    3898.4861   -51655.878   0.14285824 
   88700    285.73552     24.74385    148538.61   -47725.908    3923.8893   -51649.798   0.14424615 
   88800    283.74874   -32.614693    148535.89   -47794.671    3896.6057   -51691.277   0.14173586 
   88900    288.92313    7.7618594    148513.96   -47729.135    3967.6634   -51696.798   0.14549962 
   89000    284.74321   -43.794103    148526.41    -47700.93    3910.2623   -51611.192   0.14821128 
   89100    283.97745   -12.550856    148538.64   -47752.076    3899.7464   -51651.822    0.1480301 
   89200    288.06967   -15.649546    148544.64   -47704.546    3955.9433    -51660.49    0.1457331 
   89300    282.92295   -1.3434163    148504.98    -47823.51    3885.2655   -51708.776   0.14037348 
   89400    288.88152   -11.030713    148515.53   -47724.724    3967.0921   -51691.816   0.14291845 
   89500    279.23135   -13.262576    148502.12   -47819.565    3834.5702   -51654.136   0.14749848 
   89600    281.19423   -3.4003644    148470.42   -47843.091    3861.5257   -51704.617   0.14657097 
   89700    281.13085    28.017831    148497.19   -47759.186    3860.6552   -51619.841   0.14789178 
   89800     287.0588    21.378482    148520.09   -47694.592    3942.0613   -51636.653   0.14639158 
   89900    287.40655    7.5560683    148555.73   -47683.948    3946.8369   -51630.785   0.14115109 
   90000    287.08684   -4.2942472    148531.49   -47700.568    3942.4464   -51643.014   0.15064712 
   90100    289.38297      25.1851    148544.97   -47686.951    3973.9782   -51660.929   0.14471408 
   90200    285.72481   -6.5385641    148530.63   -47762.074    3923.7422   -51685.816   0.14923004 
   90300    282.32359    13.431416    148526.96   -47737.156    3877.0346   -51614.191   0.14563379 
   90400    284.98083    12.098602    148544.17   -47724.883    3913.5255   -51638.408     0.139227 
   90500    289.54459    34.924852    148555.56   -47738.606    3976.1977   -51714.804   0.14300824 
   90600    286.14943    5.8421171    148547.62   -47760.323    3929.5733   -51689.897   0.14310051 
   90700    281.97814   -18.430212     148508.1   -47785.068    3872.2907   -51657.359   0.14820789 
   90800      284.089    3.3544257    148531.91   -47806.819    3901.2784   -51708.097   0.14347518 
   90900    284.39167    22.299365    148528.61   -47781.654    3905.4347   -51687.089   0.14403117 
   91000    287.14023   -1.8720813    148510.07   -47796.951    3943.1796   -51740.131   0.14221173 
   91100    278.76325    -33.49223    148479.74   -47901.729     3828.142   -51729.871   0.14456893 
   91200    285.17442   -10.169569    148492.71   -47844.933    3916.1839   -51761.116   0.14344756 
   91300     286.8124    44.290152    148517.08   -47780.633    3938.6777   -51719.311   0.14236989 
   91400    281.41847   -34.092533    148527.07   -47752.676     3864.605   -51617.281   0.14993602 
   91500     289.8825   -19.346778    148532.19   -47588.554     3980.838   -51569.392   0.14874607 
   91600    287.34306    34.477969    148517.06   -47655.772     3945.965   -51601.737   0.15204335 
   91700    285.13093   -8.1812861    148493.84   -47732.647    3915.5867   -51648.234   0.14794768 
   91800    291.44081   0.99212896    148531.35    -47707.23    4002.2377   -51709.468   0.14619352 
   91900    286.27578    -21.24864     148534.1   -47697.305    3931.3085   -51628.613    0.1442026 
   92000    286.64134   -10.723724     148519.3   -47740.661    3936.3286    -51676.99   0.14800568 
   92100    282.32362  -0.14317467    148519.57   -47722.111    3877.0351   -51599.147   0.14756264 
   92200    285.26314    40.933437    148512.24   -47753.937    3917.4023   -51671.339    0.1472379 
   92300    292.89626    12.120822    148537.56    -47628.39    4022.2247   -51650.615   0.14744247 
   92400    289.78553    -15.93678    148534.62   -47682.097    3979.5064   -51661.603   0.14771746 
   92500    287.65726   -12.835772    148537.96   -47676.899    3950.2797   -51627.179    0.1516435 
   92600     288.4168    7.0925035    148552.01   -47587.019    3960.7103   -51547.729   0.15089051 
   92700     288.8833   -3.8794722    148531.43    -47708.95    3967.1164   -51676.066   0.14754442 
   92800    289.76198    -28.49039    148529.23   -47724.587     3979.183    -51703.77   0.14660705 
   92900    282.01865   -8.0764915    148503.72   -47755.616     3872.847   -51628.463   0.14734796 
   93000    285.93858  -0.20231951    148498.44   -47761.934    3926.6778   -51688.611   0.14732284 
   93100    287.38906    32.789038    148521.99   -47682.093    3946.5967    -51628.69   0.15020114 
   93200     288.0039   -6.8389877    148540.47   -47742.998    3955.0401   -51698.038   0.14591706 
   93300    285.32134     28.85548    148482.36   -47786.899    3918.2016     -51705.1   0.14708574 
   93400    282.48722    22.519834    148481.46   -47843.235    3879.2817   -51722.517   0.14134725 
   93500    282.76612   -2.2116727    148495.08   -47848.105    3883.1117   -51731.217   0.14651653 
   93600    283.91199    7.3230795    148509.24   -47799.012    3898.8474    -51697.86   0.14628433 
   93700    283.36684   -11.405066    148495.59   -47776.523    3891.3612   -51667.885   0.14904321 
   93800    280.99948    14.978728    148481.85   -47770.511    3858.8511   -51629.362    0.1480077 
   93900    283.66664       17.138    148488.18   -47847.745    3895.4782   -51743.223   0.14414429 
   94000    284.34579    3.9941212    148488.57   -47814.757    3904.8048   -51719.562   0.14208543 
   94100    286.90573    11.822648    148510.03   -47696.894    3939.9593   -51636.853   0.15252906 
   94200    287.18088   -21.559693    148536.64   -47688.464    3943.7378   -51632.202   0.15055816 
   94300    287.41152    9.0676652    148523.03   -47703.376    3946.9052   -51650.281   0.14914807 
   94400    283.01868   -13.819151    148515.19   -47693.518      3886.58   -51580.098   0.15306845 
   94500    287.74377    23.442822    148526.18   -47701.512    3951.4678   -51652.979   0.14392564 
   94600    286.14454    2.8737001    148528.72   -47707.024    3929.5061    -51636.53   0.15097149 
   94700    286.56156    21.881238    148528.98   -47744.897    3935.2329   -51680.129   0.14461287 
   94800    283.99859   -35.036254    148521.13   -47790.627    3900.0368   -51690.664   0.14254799 
   94900    275.60372   -2.6066924    148493.79   -47810.107    3784.7534   -51594.861   0.14836947 
   95000    285.68534   0.16881295    148488.74    -47770.86    3923.2002    -51694.06   0.14779141 
   95100    284.16943    15.532268    148508.73   -47732.265    3902.3828   -51634.647   0.14748181 
   95200    278.04777   -8.0954559    148496.53   -47759.528    3818.3166   -51577.844   0.15042293 
   95300    285.65682    6.5974065    148513.71   -47716.727    3922.8085   -51639.536   0.14767065 
   95400    286.82981    21.216922    148497.74   -47683.229    3938.9167   -51622.145   0.14663854 
   95500    284.79366   -20.458805    148480.95   -47701.293    3910.9551   -51612.248    0.1518824 
   95600    288.11341   -3.8799918    148491.88   -47687.509    3956.5439   -51644.053   0.14753194 
   95700    278.82628   -9.5833284    148505.59   -47731.327    3829.0075   -51560.335   0.15243967 
   95800    289.04558    2.7374043    148505.29    -47671.68     3969.345   -51641.025   0.15096074 
   95900    287.04299    16.531358    148501.62   -47686.379    3941.8443   -51628.223   0.14329673 
   96000     288.8285    28.624022     148499.3   -47651.018     3966.364   -51617.382   0.15280695 
   96100    289.21927    57.391215       148530   -47607.694    3971.7301   -51579.424   0.14950524 
   96200     290.9616   -34.486986    148508.98   -47636.389     3995.657   -51632.046   0.15235686 
   96300    288.84829    1.6434125    148492.72   -47646.665    3966.6356     -51613.3   0.14996457 
   96400    285.99032    15.948752    148476.05   -47701.216    3927.3883   -51628.604   0.14912061 
   96500    285.12759   -6.2929628    148471.76   -47693.684    3915.5408   -51609.225    0.1494696 
   96600    280.83127   -58.344288    148448.53   -47744.294    3856.5412   -51600.835   0.15750367 
   96700     285.8656    15.159304    148471.96   -47711.241    3925.6757   -51636.917   0.14699173 
   96800    283.00081    5.4244461    148482.77   -47736.097    3886.3346   -51622.432   0.14738745 
   96900    283.62491    28.725193    148469.84   -47743.056    3894.9052   -51637.961   0.14806474 
   97000     282.3472    21.016907     148455.4   -47811.863    3877.3588   -51689.221   0.14666583 
   97100    280.58962   -10.549237     148462.2   -47781.534    3853.2227   -51634.757   0.15667188 
   97200    287.95032    -33.18228    148481.28   -47728.864    3954.3042   -51683.168   0.14969309 
   97300    291.12445    9.2075947    148519.26   -47625.594    3997.8933   -51623.487   0.15033568 
   97400    285.33512    -18.99634    148502.62   -47714.969    3918.3908    -51633.36   0.15144958 
   97500     288.0661  -0.36922961    148493.19   -47685.398    3955.8942   -51641.292    0.1496112 
   97600     288.2598     22.55688    148519.47   -47622.488    3958.5542   -51581.042   0.14765238 
   97700    289.75182    35.660305    148530.64   -47587.917    3979.0435   -51566.961   0.15635783 
   97800    291.41341   -7.9555972    148498.62   -47694.655    4001.8614   -51696.516   0.14410705 
   97900    288.13302   -19.724665    148523.01    -47656.68    3956.8132   -51613.493   0.15492888 
   98000    284.63653    48.986153    148485.66   -47740.814    3908.7973   -51649.611   0.14765234 
   98100    287.97172   -5.3108782    148474.21   -47724.274    3954.5982   -51678.872   0.14925035 
   98200    284.87124   -13.826832    148479.66   -47721.187    3912.0205   -51633.207   0.15851548 
   98300    287.76435  0.024290728    148504.35   -47656.252    3951.7503   -51608.002   0.15056653 
   98400     285.6059   -30.719618    148508.64   -47699.332    3922.1092   -51621.441   0.15171292 
   98500    287.43569    2.1114697    148506.44   -47679.745     3947.237   -51626.982   0.15091959 
   98600    286.89205   -4.3138163    148502.33   -47683.937    3939.7715   -51623.708   0.15063996 
   98700     289.3535    6.5054869    148524.92   -47656.117    3973.5736    -51629.69    0.1504663 
   98800    289.63635    19.944531    148529.17   -47664.344    3977.4578   -51641.802   0.14974439 
   98900    286.83415    1.1636151    148542.28   -47731.482    3938.9763   -51670.458   0.14423836 
   99000    283.87662    10.407961    148520.76   -47723.429    3898.3618   -51621.791   0.14672449 
   99100    287.84739     8.802154    148487.37   -47778.674    3952.8907   -51731.565   0.14858524 
   99200    280.02855    -5.668787    148475.46   -47780.292    3845.5178    -51625.81   0.14724704 
   99300    284.72184    30.780936    148519.02   -47710.445    3909.9689   -51620.413   0.15005935 
   99400    284.42123    44.990771    148492.01    -47749.86    3905.8407   -51655.701   0.14500519 
   99500    283.88128     7.770162    148489.49   -47704.594    3898.4258   -51603.019   0.15015908 
   99600    286.16337   -32.952065    148479.26   -47700.336    3929.7648   -51630.101   0.15479482 
   99700    282.50155   -36.817067    148469.12   -47743.001    3879.4785   -51622.479   0.15358445 
   99800    284.89953    -27.59177    148478.73    -47757.36     3912.409   -51669.769   0.14727469 
   99900    286.16037    33.864808    148484.95   -47811.861    3929.7236   -51741.584   0.14213178 
  100000    285.68586    30.413263     148510.8   -47729.696    3923.2073   -51652.903   0.14204972 
Loop time of 59.7174 on 6 procs for 100000 steps with 4608 atoms

Performance: 723.407 ns/day, 0.033 hours/ns, 1674.554 timesteps/s
98.1% CPU use with 6 MPI tasks x no OpenMP threads

MPI task timing breakdown:
Section |  min time  |  avg time  |  max time  |%varavg| %total
---------------------------------------------------------------
Pair    | 39.693     | 40.093     | 40.579     |   5.5 | 67.14
Neigh   | 6.2241     | 6.3055     | 6.4216     |   3.1 | 10.56
Comm    | 9.8212     | 10.279     | 10.711     |   9.4 | 17.21
Output  | 0.18189    | 0.18304    | 0.18789    |   0.5 |  0.31
Modify  | 2.076      | 2.1183     | 2.1389     |   1.6 |  3.55
Other   |            | 0.7389     |            |       |  1.24

Nlocal:        768.000 ave         778 max         757 min
Histogram: 1 0 0 1 0 1 2 0 0 1
Nghost:        1394.50 ave        1407 max        1378 min
Histogram: 1 0 0 0 1 1 0 2 0 1
Neighs:        0.00000 ave           0 max           0 min
Histogram: 6 0 0 0 0 0 0 0 0 0
FullNghs:      21914.0 ave       22164 max       21609 min
Histogram: 1 0 1 0 0 1 1 1 0 1

Total # of neighbors = 131484
Ave neighs/atom = 28.533854
Neighbor list builds = 6134
Dangerous builds = 0

undump              1
unfix               2
unfix               3
unfix               4




################################################
#######         Run Simulation         #########
################################################

reset_timestep      0
log                 log.run_${NAME}
log                 log.run_ice_286K_1atm_ML
