LAMMPS data file via write_data, version 29 Oct 2020, timestep = 200000

800 atoms
1 atom types

-0.03152017202581625 25.485080172024436 xlo xhi
-0.039400215031058394 31.856350215029746 ylo yhi
-0.039400215031058394 31.856350215029746 zlo zhi

Masses

1 18.015

Atoms # atomic

5 1 1.9710720436068945 1.2398378766274991 1.476609965020586 0 0 0
13 1 7.806584255591436 1.7334985777300331 1.9293024001287784 0 0 0
21 1 14.357518893346594 1.7567430606172452 1.832858367982018 0 0 0
29 1 20.718461816253487 1.5013525917431252 1.7993878991568613 0 0 0
482 1 3.327850967712874 15.894215254236594 6.168666257171203 0 0 0
2 1 0.5362231775501796 3.2281551894426466 3.2634583926430234 0 0 0
8 1 4.709295966382704 5.03296554742039 1.427588785408813 0 0 0
16 1 11.134973256756533 4.845625196095145 1.4374354022676892 0 0 0
24 1 17.572167294407713 4.697714746736272 1.868666513388002 0 0 0
57 1 19.37871039240634 6.1259306098406885 0.07308708965753456 0 0 0
607 1 18.98991558301872 15.66718384980204 15.708714433236695 0 0 0
32 1 24.222921047048786 4.738249406742365 1.9095336302890988 0 0 0
37 1 1.4537598732881807 8.194495603601522 1.2931069303022444 0 0 0
229 1 18.919216677516367 9.415200999638179 15.82431243663486 0 0 0
42 1 6.081066307467173 9.42373340893397 2.7244261728031716 0 0 0
43 1 9.628904879427594 6.144570529266774 3.1220992047783933 0 0 0
45 1 8.241585471536139 7.9055275689348425 1.5786341768118894 0 0 0
53 1 14.310119765490944 7.915432674572197 1.899545575316444 0 0 0
59 1 22.354585557596998 6.221620667221089 3.1748568057408058 0 0 0
61 1 20.699947487798234 7.913160609307461 1.8498957380515266 0 0 0
34 1 25.141705250325302 9.730801145228208 2.656538033920266 -1 0 0
40 1 4.525892172207752 11.1767155301203 1.3839995527403908 0 0 0
66 1 3.241924912157952 12.954383506276566 3.0080610989054395 0 0 0
48 1 11.155223641877111 10.97434324236732 1.7681686658558347 0 0 0
50 1 12.716652583910985 9.342350472938008 3.2837897387029447 0 0 0
56 1 17.361229224844152 10.796626656276596 1.685878144272172 0 0 0
58 1 19.025703832638797 9.217522131829988 3.3625556960175906 0 0 0
64 1 23.625406449245766 11.451462515590242 1.276125492179036 0 0 0
67 1 1.7150277810696453 14.579785071076394 1.2551436341787197 0 0 0
71 1 7.988569719354572 14.474480764292958 1.4213040300227227 0 0 0
12 1 9.489259959859591 3.428589022231381 0.1699506287095908 0 0 0
74 1 15.608984843816005 12.50147285782482 3.117372388852115 0 0 0
75 1 14.253346648594027 14.509158492780319 1.7723850828720693 0 0 0
79 1 20.701007353541655 14.425042907830493 1.4048423253538367 0 0 0
19 1 16.311513170697964 0.17624181213780266 2.710983371505228 0 0 0
78 1 22.28465175800192 13.270180235443421 3.1733141635249686 0 0 0
7 1 4.603115696752596 1.7623476863090852 5.115903342293905 0 0 0
217 1 25.259156332163442 9.625672321563293 15.894343320389796 -1 0 0
15 1 11.088395978070846 1.7496002458915778 5.247965052697326 0 0 0
23 1 17.7268132484158 1.4391754776032522 4.891475994797968 0 0 0
31 1 24.229466440607496 1.6126683975978604 4.734805042358684 0 0 0
6 1 1.5746741665635449 5.196336927991102 4.862115322575964 0 0 0
10 1 5.933068445303861 3.2453135574634793 3.06542004043732 0 0 0
92 1 9.235548874179292 3.068871495353414 6.702903235633102 0 0 0
14 1 7.781758342652883 4.575343662018528 4.5661694078336295 0 0 0
18 1 12.807981267231494 3.1832572574074804 3.5441889200146 0 0 0
22 1 14.534716914655503 4.677674665757071 4.818579330818335 0 0 0
26 1 19.385713777830105 3.045074046579939 3.722580805853591 0 0 0
51 1 16.04661411221757 6.278126705955263 3.242175353419542 0 0 0
30 1 20.97172813979404 4.770798116656071 5.29903143240206 0 0 0
108 1 22.314531834406097 2.6032475129606647 6.506152634954999 0 0 0
113 1 25.155802990156566 6.346640106641058 6.530489622087427 -1 0 0
35 1 2.9693014721796414 6.627503039096498 2.958116516571936 0 0 0
39 1 4.642578189258067 8.071694001472837 4.49995668483622 0 0 0
121 1 6.158103471413095 6.3440993544292 6.017402118733637 0 0 0
47 1 11.013388125915768 7.70868710269075 4.815878088248264 0 0 0
137 1 19.094800795397525 6.343531269118249 6.746366032355883 0 0 0
55 1 17.32737357137063 7.825058217244552 5.222939525875729 0 0 0
140 1 22.292131359531645 9.532318156985177 6.096172889246023 0 0 0
63 1 23.942743563945 8.145622552861067 4.48149824200817 0 0 0
38 1 1.5932463631809737 10.909027052560903 4.277924213214053 0 0 0
46 1 7.929757763579304 11.137258742906576 4.622868873818788 0 0 0
124 1 9.285346834691317 9.388704605423698 6.289983857791316 0 0 0
70 1 9.591796655146876 12.763025242965533 3.118995684174563 0 0 0
54 1 14.018937185979468 11.258161825259734 4.920551829703598 0 0 0
157 1 19.184033345218843 12.900582156764944 6.285219753509553 0 0 0
62 1 20.84080869613156 11.2821399851183 4.669688777108449 0 0 0
68 1 5.093315491090764 14.239848837774918 4.597767962940508 0 0 0
20 1 15.746367519469622 3.4549973649893584 0.17045456071794343 0 0 0
72 1 10.972985050749408 14.581823274950892 4.897581501177457 0 0 0
89 1 6.189651356531094 0.18702817695433654 6.582942879724925 0 0 0
76 1 17.48563253577357 14.274021845590351 4.436612115671333 0 0 0
80 1 24.000234860107504 14.514709917462367 4.816265436817129 0 0 0
173 1 19.05367358677251 0.22852998935631785 12.841446804210243 0 0 0
161 1 25.32768268818743 0.13831940469975812 12.597965458846183 -1 0 0
85 1 1.774321054027398 1.7432595947128005 7.979827610298624 0 0 0
90 1 6.1706371130666176 3.547578761025609 9.88482338858426 0 0 0
93 1 7.873109557823683 1.6859790712272866 8.505458303221841 0 0 0
198 1 14.655282938091881 14.346115360067552 13.790929884197823 0 0 0
98 1 12.757128673386523 2.9562656225642177 9.7332800012446 0 0 0
100 1 16.019548603383598 3.0631995155808114 6.478561640848388 0 0 0
101 1 14.410714127593272 1.649258731946223 8.230085028174196 0 0 0
109 1 20.56584894280674 1.401496707787325 8.113075576107919 0 0 0
84 1 3.1083826843753544 3.6061140617632215 6.397958455518216 0 0 0
88 1 4.855048661213896 5.07608599836331 8.020598902718389 0 0 0
96 1 11.059782780926678 4.741679611817989 8.18608801069904 0 0 0
129 1 12.536189528751617 5.96078459265542 6.331967065719775 0 0 0
131 1 15.183182660298318 6.155832592397982 9.587567413851929 0 0 0
104 1 17.46631273949332 5.0638207339150085 8.428220136224382 0 0 0
106 1 19.016524120863572 2.967270045341886 9.631971137681326 0 0 0
139 1 21.90339730032013 6.200130985184479 9.613539138621908 0 0 0
112 1 23.62825088202574 4.53783740574034 8.040812357970538 0 0 0
117 1 1.2729729858729895 8.254380150277624 7.842110068461145 0 0 0
125 1 7.984023744664265 7.7658491614335174 8.330266860327889 0 0 0
133 1 14.163356271918042 7.8516742336129735 7.692242679339753 0 0 0
132 1 15.896369158454638 9.793950855231362 6.524751943297031 0 0 0
141 1 20.710558650028858 8.202983748489665 8.064677962596985 0 0 0
114 1 25.073054246626974 9.757486311907025 9.403542322438115 -1 0 0
116 1 2.9472506829211165 9.691591543913871 6.219612836288573 0 0 0
149 1 6.2197384433026635 12.557879865110872 6.446898504322217 0 0 0
120 1 4.733776343841347 10.958026100943822 8.176707992564273 0 0 0
128 1 10.957595578684773 11.06197564523358 7.6586165045530255 0 0 0
136 1 17.817618006568374 11.259294084311408 7.806246768722396 0 0 0
154 1 15.908144483735162 12.700200397177662 9.213036386466277 0 0 0
138 1 19.13987151397393 9.54681897273289 9.5736894301998 0 0 0
144 1 23.980909916108672 11.281402192304693 7.61884181661529 0 0 0
158 1 22.4852539220633 12.912020184967117 9.269665357761973 0 0 0
563 1 9.029139821214745 15.792186146817983 12.672034706542366 0 0 0
147 1 1.525475551016924 14.337117399051643 7.6845016439723315 0 0 0
145 1 25.472364089183337 12.600364273157517 6.146673407251988 -1 0 0
151 1 7.987236855807227 14.291800975474935 8.094279436416713 0 0 0
561 1 2.842966958370662 15.884080018975904 12.579102470467873 0 0 0
153 1 12.497593875081764 12.995065948936489 6.206868843205805 0 0 0
155 1 14.368816744836815 14.553683910677055 7.800498658408757 0 0 0
200 1 20.675241441470256 14.28194209278638 13.909166294345827 0 0 0
159 1 20.566914642327085 14.314397158462265 7.887652348936074 0 0 0
87 1 4.360001292679437 1.8511668384944295 11.203574818365611 0 0 0
95 1 10.816440932466879 1.3358999191262193 11.410668589546082 0 0 0
195 1 6.097141774546769 12.793461047681381 13.000796066031953 0 0 0
170 1 15.833963611638689 3.147708575845206 12.706777155138711 0 0 0
103 1 17.272514306313383 1.3751915236427934 11.19359338671294 0 0 0
82 1 25.401758058052344 3.4027311289618134 9.295758538282097 -1 0 0
111 1 23.93296237428512 1.7310048958476794 10.953672416223773 0 0 0
86 1 1.6045205432769343 4.749504697461629 10.797076585240218 0 0 0
162 1 3.158657088768775 3.4151314026141795 12.72451882749626 0 0 0
123 1 9.510792473395867 6.021333900703442 9.81250662218741 0 0 0
94 1 7.934516569878092 4.709868910736666 11.444873821794353 0 0 0
102 1 14.075251474652084 4.68055322436974 11.329519144243218 0 0 0
174 1 22.273078418438693 3.484084840481772 13.016997383038815 0 0 0
110 1 20.601628455960885 4.394825740545358 11.324146372538916 0 0 0
177 1 0.46609028650049045 6.210934330984944 12.629473212689572 0 0 0
115 1 2.7515906257900165 6.699293093789076 9.277581376775949 0 0 0
119 1 4.847840757871616 7.729951541002709 11.155530660257286 0 0 0
122 1 6.3241905330491335 9.371658275920673 9.70230607065327 0 0 0
130 1 12.295443869826869 9.29445051110362 9.210096680752306 0 0 0
127 1 11.110472680371993 7.653556069017199 11.296777335273378 0 0 0
186 1 15.93407705158883 9.372375856769146 12.191661910550872 0 0 0
135 1 17.61865363432593 7.534610052459749 10.853793386688237 0 0 0
143 1 23.898968457819052 7.797586543046735 11.152007813870052 0 0 0
146 1 2.955179577888365 12.748148674703518 9.588032649711351 0 0 0
118 1 1.5075234884367865 11.055744875022858 10.782146729675194 0 0 0
126 1 7.79490247416968 10.986021359527363 11.020285675155554 0 0 0
182 1 9.64497083099709 9.435308467045292 12.563541308780346 0 0 0
134 1 14.074128323961792 11.162583981794256 10.592555396666114 0 0 0
199 1 19.11557077104456 12.675750523131226 12.129303817117176 0 0 0
142 1 21.11468176855071 11.388565507614247 11.034729627564099 0 0 0
190 1 22.530520996908415 9.588219147325265 12.78427877154939 0 0 0
17 1 12.621736809665526 0.12587139604334538 0.09276632613013941 0 0 0
148 1 4.65486334733055 14.256225955114655 11.308524124136873 0 0 0
150 1 9.589801088101945 12.476342023959942 9.478739384613567 0 0 0
52 1 15.633331883498695 9.291915079163218 0.09112343671442177 0 0 0
152 1 10.952439072403443 14.424627291421201 10.943153982505576 0 0 0
156 1 17.56854289622617 14.398697358276662 10.727266941845425 0 0 0
160 1 23.92910637543161 14.498840883690084 11.030925711635062 0 0 0
163 1 1.6151863908753674 1.7897133490003578 14.184036962729644 0 0 0
239 1 22.066358177334045 12.53644258630525 15.815081060908724 0 0 0
167 1 7.542317134160396 1.4480058061907135 14.324891963407946 0 0 0
166 1 9.318808047640248 3.0570708583821826 12.869703261485641 0 0 0
171 1 14.11766534314909 1.2974876311302865 14.054302045225237 0 0 0
489 1 12.660218321264908 15.88764347420723 9.539495784126279 0 0 0
27 1 22.52052819190631 -0.004846416306217141 3.2070290352774875 0 0 0
175 1 20.739578643796122 1.780146385725542 14.554034053496853 0 0 0
194 1 1.1805038045692084 14.44085657531074 14.17594885302771 0 0 0
181 1 6.43515106215046 6.390669888640916 12.875464721187932 0 0 0
164 1 4.705646323061351 5.031739088767515 14.514520487456176 0 0 0
168 1 10.859667860423 4.47965688630472 14.51038104636737 0 0 0
185 1 12.589085213490996 6.244605945415922 13.057330084314811 0 0 0
172 1 17.352752620314916 4.917933760165537 14.225150494454432 0 0 0
176 1 23.876715194217844 5.243202301429138 14.537444921941233 0 0 0
188 1 17.71898610951324 10.851263589016366 13.997413778097133 0 0 0
178 1 3.0249912561164005 9.330161989508289 12.559767702972971 0 0 0
179 1 1.425315437210579 8.047067175998443 14.479392761473065 0 0 0
183 1 8.184022631139303 8.196258675975946 14.544393222936776 0 0 0
187 1 14.38582317631752 7.988937725821209 14.195434517851695 0 0 0
189 1 19.10604012603813 6.188858771450681 12.783330092286041 0 0 0
196 1 7.777843619174363 14.22804211425582 14.748727217059898 0 0 0
191 1 20.744624047519657 8.099878822089721 14.241747572451404 0 0 0
9 1 6.571423290740582 0.17591354177666768 0.19551816230859728 0 0 0
193 1 25.408659773673023 12.796912608189206 12.399980053395312 -1 0 0
180 1 4.247405840141613 11.137705558097329 14.140055464840925 0 0 0
184 1 11.0744386113286 11.31919924027645 14.133355755217943 0 0 0
192 1 23.749149240549443 11.391178791387214 14.25342143653084 0 0 0
197 1 12.85597809997757 12.825061349120404 12.62413027375953 0 0 0
605 1 12.839034885631339 15.770708311865132 15.634943438831117 0 0 0
237 1 16.06424318300408 12.725161861749516 15.538426888743492 0 0 0
28 1 22.560077927111926 2.855105023241469 0.7204061781671328 0 0 0
77 1 18.989179188748352 12.718753984655418 0.04775497987476002 0 0 0
165 1 6.180590501869263 0.3141046419931221 12.53727503397055 0 0 0
201 1 25.39261495397907 3.2821447337795355 15.690621348939889 -1 0 0
209 1 12.447213992841837 2.71099472477825 15.871024066359553 0 0 0
49 1 12.72780346472188 6.389025954069541 0.24542685303275164 0 0 0
221 1 5.88658005112321 9.475699851913491 15.479254548117503 0 0 0
204 1 4.3432966870112075 1.5553221761442306 17.926957369906376 0 0 0
244 1 2.7241932267924165 3.2749937004012106 19.263629986289587 0 0 0
208 1 10.902025942438765 1.15848230274088 17.680495082495515 0 0 0
252 1 9.19213003562754 2.8135027972606257 19.141998634343565 0 0 0
260 1 15.646198966413808 3.1804294131756006 19.12981294952423 0 0 0
212 1 17.276289340789276 1.910121548152863 17.55756376722006 0 0 0
216 1 24.103264439567283 2.0117702064130536 17.454759120484848 0 0 0
203 1 1.4250991968212767 4.904415567574255 17.490182167812513 0 0 0
214 1 22.47910208164261 0.18058913430535214 16.233551923733284 0 0 0
207 1 7.617803837384194 4.78839101153261 17.77955381265619 0 0 0
345 1 19.228715692738405 0.03718778831496515 25.199284900524205 0 0 0
211 1 14.0714062303146 4.363792143762392 17.23340622253148 0 0 0
215 1 20.441552431527548 4.801372803722097 17.677591275474793 0 0 0
297 1 18.992041378917584 6.787796672334771 19.221657587879836 0 0 0
276 1 2.9491753639156606 9.579748320437487 19.037460965510466 0 0 0
220 1 4.763036530085517 8.118522262788002 17.518420070171974 0 0 0
205 1 5.946468820373217 3.1175675398450915 16.13730940516015 0 0 0
284 1 9.673446974327714 9.412011325200181 19.072638153098776 0 0 0
224 1 11.204952356764387 7.795467378088769 17.388630913798277 0 0 0
73 1 12.654224529873082 12.76127721523142 31.845194057050794 0 0 -1
292 1 15.455375789298103 9.5364978722448 18.76351164081687 0 0 0
329 1 6.428239859600812 0.02394391020972826 25.28387136611394 0 0 0
228 1 17.198532155004457 7.835127531162525 17.604293177826978 0 0 0
300 1 22.2670002434471 9.925071691555406 19.1208949191198 0 0 0
232 1 23.88465435818039 8.10094134456348 17.416286041966096 0 0 0
219 1 1.0922540808372754 11.239162292677412 17.49885172855841 0 0 0
645 1 6.357618390458929 15.89559679641262 22.254894723986038 0 0 0
223 1 7.770142616152905 10.70753257522255 17.42153207674023 0 0 0
313 1 13.081126681408879 12.256255055600693 18.982458556479628 0 0 0
227 1 14.398670591935597 11.26990853557633 16.869663652703032 0 0 0
317 1 18.986474243424738 12.629318558259317 18.947080349659828 0 0 0
231 1 20.5969025268027 11.043683466419866 17.232079583281593 0 0 0
305 1 0.07656346182898736 13.000865694628343 19.119359200120734 0 0 0
235 1 9.35967124939934 12.568127976895564 15.982122889121928 0 0 0
234 1 4.6175968597178345 14.061776015674697 17.635339428301567 0 0 0
218 1 3.0232073201769105 6.568854287860338 16.124887037781214 0 0 0
236 1 11.575462489948691 14.058564241982292 17.404052001794607 0 0 0
400 1 23.688462403802497 14.314464836275985 30.38987134986667 0 0 0
238 1 17.508656981000563 14.249431343060536 17.21956617993831 0 0 0
646 1 9.56112705560514 15.370842218626688 18.831099282570285 0 0 0
240 1 23.772992277319645 14.323925959503486 17.426855246807524 0 0 0
245 1 1.342245390216939 1.6212951763586219 20.912841924015943 0 0 0
253 1 7.396684251071169 1.5385042613493163 20.851676042231425 0 0 0
261 1 14.192540579845668 1.6316385072009125 20.635169426986145 0 0 0
398 1 22.273251407882434 12.756948645802298 28.322960309440255 0 0 0
650 1 15.87941203029282 15.565060567410297 18.976323753932633 0 0 0
269 1 20.65295555179563 1.6000239501792226 20.452863930446416 0 0 0
281 1 6.0577302190315665 6.360357220264068 19.135031161643358 0 0 0
248 1 4.440506953148315 4.8854339981856905 20.634556370247136 0 0 0
256 1 11.118991472088053 4.2833330777320295 20.818600937255184 0 0 0
289 1 12.549951072977612 5.924578168515376 19.081297483169898 0 0 0
258 1 12.714458895292259 2.8341520767188615 22.57132686992173 0 0 0
264 1 17.108865591094137 4.948057960977575 20.642927893548993 0 0 0
291 1 15.900680661020376 6.708383075445979 22.263819116556114 0 0 0
266 1 19.128791786364026 3.2346225758823746 21.944272619092132 0 0 0
268 1 22.43906945467495 3.4838315614651516 19.1271679575802 0 0 0
272 1 23.903848256627803 5.1472683378299 21.04301576237425 0 0 0
277 1 1.424703017558842 8.209712230630027 20.874000808662707 0 0 0
285 1 8.211718564149136 7.783544617416177 20.593549384890373 0 0 0
282 1 6.7813953298576966 9.402353043126256 22.237606592036226 0 0 0
293 1 13.971679584791273 7.9931014304096735 20.698749043437438 0 0 0
290 1 12.655805198365227 9.652820989462521 22.258213019028982 0 0 0
301 1 20.681707817172125 8.353150431528382 20.816633139074295 0 0 0
273 1 25.40879701529191 6.430999362428584 19.298032681725072 -1 0 0
299 1 22.205382154830318 6.809486180805731 22.468727577162458 0 0 0
274 1 25.446228921484106 9.863942328571188 22.17555051232505 -1 0 0
309 1 6.4811697266244925 12.58828070372572 18.904377960687174 0 0 0
280 1 4.66194286379203 10.959542161449244 20.751207555173984 0 0 0
306 1 3.2103334619145034 12.784505799828676 22.19984487561553 0 0 0
288 1 11.156003560842656 11.10932521294025 20.7242797111876 0 0 0
298 1 18.84351063324859 9.54182457877402 22.393756885553543 0 0 0
296 1 17.45530742581535 10.555380917583305 20.242210839142594 0 0 0
304 1 23.87736155803905 11.619133907023096 20.712089142741384 0 0 0
307 1 1.8310225398116073 14.344224405305207 20.663182224642743 0 0 0
243 1 3.2017816884559926 0.01627636452344388 22.276584679947593 0 0 0
311 1 7.975234139500746 14.293434833503587 20.618918004392057 0 0 0
315 1 14.545440653227057 13.993892178468512 20.437875375535878 0 0 0
642 1 3.143958902063479 15.833042882393755 19.171121387014036 0 0 0
319 1 20.73504106381918 14.082915566832014 20.448557439011008 0 0 0
318 1 22.02658551427399 12.922420214783319 22.541116819081275 0 0 0
241 1 25.171592531806816 0.2832093166201429 19.46254580424727 -1 0 0
394 1 15.821656455419955 12.709911785169256 28.609144529005174 0 0 0
247 1 4.284908842242556 1.6349251768970288 23.967458355791067 0 0 0
332 1 9.896000177576852 3.0893752273152186 25.452459248812154 0 0 0
255 1 11.269939292447148 1.224624634433582 23.951091814176824 0 0 0
396 1 17.497813348653324 14.059721546055277 30.2490296808909 0 0 0
263 1 17.59623722355522 1.8899287159418559 23.802038036849737 0 0 0
374 1 14.400615946319746 11.074037551197199 30.181936305532012 0 0 0
242 1 25.41223590455418 3.271639379189777 22.424987113001453 -1 0 0
271 1 23.54439190623897 1.505610963565425 23.9773666133056 0 0 0
65 1 0.11970343779149265 12.898089400933943 31.649424779608957 0 0 -1
324 1 2.6160881966911824 3.0336245372343704 25.644239640255265 0 0 0
246 1 1.6214739178743192 5.0910495260281845 23.852396046042053 0 0 0
250 1 6.192308138946298 3.457334773588142 22.507267448497448 0 0 0
254 1 8.090737685603214 4.762247383095345 23.96571338777233 0 0 0
283 1 9.695986480000428 6.216135437231037 22.38145585949411 0 0 0
262 1 14.632053317315 4.796618867703874 23.84502559446385 0 0 0
369 1 13.042820521727537 6.415486787544106 25.459682636414335 0 0 0
340 1 16.020252530522164 3.38250651002125 25.67340545778383 0 0 0
377 1 19.315482612272525 6.394900312342277 25.649753951613945 0 0 0
270 1 20.609190588663914 5.003498494668967 23.651847680041154 0 0 0
348 1 22.2785139354557 3.2189728952528607 25.288029531262936 0 0 0
275 1 3.1043345726188174 6.850748779997429 22.318490711433167 0 0 0
279 1 4.903239355375647 8.112526736130231 24.01442819161316 0 0 0
287 1 11.202967710786863 8.030951016761746 23.90821573470939 0 0 0
295 1 17.719149097417592 7.906548325462525 24.077121789709956 0 0 0
303 1 23.625322255389264 8.225471796531785 24.152870459097976 0 0 0
278 1 1.6632361318126654 11.362110984387657 23.656138426925462 0 0 0
356 1 3.1133985767442343 9.586835129978763 25.478289584092526 0 0 0
286 1 8.16848160800718 11.294867611270778 23.93556580202115 0 0 0
310 1 9.780524721621033 12.929806477666382 22.23166199778561 0 0 0
364 1 9.86511356818412 9.802676390429756 25.47964581854297 0 0 0
294 1 14.38155451415641 10.700569864220979 24.106503797077565 0 0 0
302 1 20.80787666933137 10.841261065665398 23.661325229911274 0 0 0
385 1 0.20127195679448845 12.915872462268444 25.154014159374125 0 0 0
233 1 2.8927677475489095 12.821333910617088 15.980149938033822 0 0 0
308 1 4.629523901343904 14.356852761721402 23.95585310992734 0 0 0
347 1 22.24802930198649 0.16019310099728387 28.671118513775365 0 0 0
312 1 11.459487253658745 14.217313256077784 23.824432093208124 0 0 0
393 1 12.858516557828773 12.488637181917685 25.219010054102558 0 0 0
733 1 19.029945069609774 15.843576955955912 28.87561549970725 0 0 0
314 1 15.998698360244278 12.239479825191271 21.99763186533847 0 0 0
316 1 17.561880731779794 13.85629330292402 23.522717828500056 0 0 0
397 1 19.181022185334164 12.443349143795638 25.29388532079963 0 0 0
320 1 23.95141401538121 14.67939133388172 23.843842654695116 0 0 0
325 1 1.1454078097442077 1.1035262283293539 27.35476654079207 0 0 0
4 1 3.1393935874141197 3.1099151525947475 31.703026182959704 0 0 -1
330 1 6.480096624033357 2.7527742475335963 28.128498266968688 0 0 0
333 1 8.467549272782428 1.1868605785331017 26.859988534381703 0 0 0
341 1 14.460189490347894 1.511447699324914 27.326500740635623 0 0 0
653 1 19.03195540801058 15.79552043316348 22.011994845221288 0 0 0
349 1 20.539136203089484 1.953498332674877 27.001537157165195 0 0 0
649 1 12.805549892884668 15.765160892560322 22.20608724586781 0 0 0
328 1 4.563858609270536 4.622611959996968 26.904619077982503 0 0 0
361 1 6.41031452677499 6.484724847171806 25.869045578103364 0 0 0
336 1 11.461805378209315 4.620578916303592 27.066164251615422 0 0 0
363 1 9.753284057167155 6.346680680129844 28.69348640907552 0 0 0
338 1 12.9226173662513 3.1004343108722443 29.016019454183024 0 0 0
344 1 17.722217228240368 4.80948079058137 27.143185746591133 0 0 0
346 1 19.12827992230607 3.039199486676705 29.125750932201562 0 0 0
352 1 23.960134295482504 4.6889591046376875 27.047986183865007 0 0 0
357 1 1.2890698811070718 7.8592546931571485 26.90541742065463 0 0 0
355 1 2.970132883717548 6.516025420092924 28.751215251057147 0 0 0
365 1 8.192819881234934 8.270085051862717 27.19021969577973 0 0 0
370 1 12.72907823865321 9.558218088395789 28.39783331202771 0 0 0
373 1 14.65972073596864 7.823618396884955 27.17996545036895 0 0 0
381 1 20.950096151800892 7.841363997415847 27.40421611104322 0 0 0
379 1 22.713375744260716 6.39786829949009 28.93723337085485 0 0 0
353 1 24.998191735760393 6.355326015705498 25.31499698817497 -1 0 0
354 1 0.17681120036382858 9.877750482988798 28.273266182987754 0 0 0
360 1 4.789851423040571 11.384939692013203 26.780946828839546 0 0 0
362 1 6.198257430758187 9.552030319874873 28.20419181089806 0 0 0
368 1 11.378465151805244 11.244103226339382 27.132655748212123 0 0 0
372 1 16.219943095800083 9.320756958832206 25.845815844163077 0 0 0
376 1 17.67169639642215 11.20731884729089 27.18355989605063 0 0 0
380 1 22.15542275871175 9.579269221896741 25.724602909768773 0 0 0
384 1 24.00703375224922 11.23304068771482 26.68246627726689 0 0 0
387 1 1.3881420648207772 14.372251691723697 27.176387366576453 0 0 0
386 1 3.3345031089998227 12.95884580891028 28.483684250453972 0 0 0
389 1 6.538325114808659 12.819516584369461 25.20351616932908 0 0 0
391 1 7.798221616112397 14.3309397512871 27.034991129797238 0 0 0
395 1 14.488333183685722 14.280366499235436 26.968248647508254 0 0 0
399 1 20.679832296643127 14.296504071937829 26.722137805262943 0 0 0
392 1 10.881412376752069 14.435676347354976 30.401063057321 0 0 0
327 1 4.893050676539716 1.5162166215319575 30.299999510855923 0 0 0
36 1 3.292202312949373 9.476217741640946 31.369611991819205 0 0 -1
335 1 10.941091755547996 1.6461632348709625 30.199909120776244 0 0 0
366 1 7.828402942476656 11.311599028920492 30.238352380173254 0 0 0
343 1 17.299484816976836 1.8702478055845635 30.519799353255863 0 0 0
390 1 9.696215765247063 12.843216177891462 28.73954555826297 0 0 0
351 1 23.816071788821837 1.2834290207747863 30.626589652820595 0 0 0
322 1 25.243619974817975 2.86657838279004 28.932492260297472 -1 0 0
326 1 1.529607130617969 4.829063479858174 30.05879620812069 0 0 0
334 1 8.0191357566518 4.68383125315625 29.75210566287241 0 0 0
382 1 20.44862735318879 11.29627192102325 30.140318037573834 0 0 0
358 1 1.7716888239135133 11.382173695961368 29.930869423881738 0 0 0
371 1 16.044625827369302 6.16893798917469 28.9120478418782 0 0 0
342 1 14.181295893658756 4.800689641604502 30.343714914745657 0 0 0
350 1 21.375157249916555 4.629651421292076 30.71875328715121 0 0 0
359 1 4.8843633727008084 7.801533105877995 29.804890267325884 0 0 0
367 1 11.272630065279495 7.97455529099377 30.421121742057103 0 0 0
388 1 4.53090638776517 14.38036900785871 30.125814767981705 0 0 0
375 1 17.718538818457773 7.578981673113654 30.6310472080335 0 0 0
41 1 6.52068728473983 6.1887322261111155 31.615563050550993 0 0 -1
383 1 24.289669303974065 8.504300814792007 30.29670151822202 0 0 0
378 1 19.045774973984166 9.483800991703005 28.815597000308554 0 0 0
265 1 18.911014989631113 0.10724314488122816 18.850997868959617 0 0 0
251 1 9.482217050632793 0.20378126852976547 22.129612556171733 0 0 0
69 1 6.283360767423173 12.803301280619461 31.813321926038693 0 0 -1
721 1 25.157850541835018 15.874242408218656 28.77120537585872 -1 0 0
654 1 22.189762037195287 15.838955980634625 18.97762767286576 0 0 0
44 1 9.494262632246734 9.60084400602366 31.67531259573078 0 0 -1
230 1 21.995888391324435 6.708994229419914 16.07896485297916 0 0 0
60 1 21.782575898312885 9.547262290356569 31.778549976772606 0 0 -1
410 1 16.022495783081844 15.713664815096791 31.73154878767761 0 0 -1
25 1 19.41121648179115 -0.03566331062220938 31.627109657000403 0 0 -1
730 1 16.0459410217411 15.680182292600648 25.187328945013185 0 0 0
222 1 9.2452606204237 6.270763351411704 15.919108596540468 0 0 0
210 1 15.739548811140791 0.034854097101237894 16.008461364269102 0 0 0
213 1 18.80164526546269 3.4219491218594364 15.990145696387646 0 0 0
603 1 6.102543568842573 15.77484475842332 16.27094264763002 0 0 0
225 1 12.438384853068339 9.680516818194874 15.951114041649024 0 0 0
226 1 15.567491598189456 6.3626422269410465 15.937677922298109 0 0 0
33 1 25.307810893226062 6.292360001433655 31.6258393232675 -1 0 -1
404 1 5.0198007516153815 17.36651681609167 1.51270626870539 0 0 0
408 1 11.11703218968118 17.618525517369807 1.6682899262257407 0 0 0
435 1 15.880672128829186 18.939852354672087 2.6953839916683497 0 0 0
412 1 17.732538271450508 17.62855822083733 1.445367070489586 0 0 0
414 1 22.50329723039983 16.195807596234197 0.09540838553031361 0 0 0
416 1 24.462751915611435 17.831918338371413 1.5057638286293846 0 0 0
457 1 6.400353098735545 25.379043770372697 0.3038666639875182 0 0 0
421 1 2.0309275854267357 20.582349882950965 1.2576129045483875 0 0 0
419 1 3.2914227234512783 19.05326990161745 2.954619006463331 0 0 0
429 1 7.949875702395624 20.564107820810868 1.8499367584326813 0 0 0
565 1 16.246698983981346 16.31357714175139 12.39636874049931 0 0 0
437 1 14.128436114992763 20.67459129918671 1.4350311325620158 0 0 0
445 1 20.51385760597077 20.58377387061612 1.432277901564908 0 0 0
601 1 24.95370799978749 15.94017661063965 15.884507301498742 -1 0 0
443 1 22.31399527127173 19.180569429920176 2.838936213951426 0 0 0
418 1 0.3326052044813331 21.983267084978387 3.2022071007712807 0 0 0
424 1 4.890170461413857 23.517641482118243 1.471453070023709 0 0 0
432 1 11.110470178559423 23.80039334177944 1.5348277314423153 0 0 0
459 1 9.582577952779976 25.122611989243552 3.695121751216377 0 0 0
440 1 17.552432885524652 23.772156702374996 0.9343706821971131 0 0 0
467 1 15.924347412753061 25.28115708768839 2.7161117389282325 0 0 0
97 1 12.928401983609467 31.823570962882187 6.6641226693151365 0 -1 0
448 1 24.032226969450996 23.395885069924056 1.5117002104987218 0 0 0
453 1 1.365782883715727 26.632560922998692 1.4006439254294418 0 0 0
451 1 3.1114384362017717 25.04098362851456 3.0274244294582817 0 0 0
461 1 7.873100570353536 26.822568957866128 1.9282066132983389 0 0 0
107 1 22.599521054842427 31.61234219529672 9.602874784454867 0 -1 0
469 1 14.326666764121669 27.03313334519558 1.5903538055604132 0 0 0
477 1 20.801290734087814 27.212336574253463 1.2016398434920308 0 0 0
475 1 22.346060499618297 25.415691845981353 3.0767420353824324 0 0 0
450 1 0.01616681492186952 28.259144808359864 2.998670699088726 0 0 0
494 1 22.33958824199167 16.018242653507155 6.347086226765153 0 0 0
456 1 4.680986794881772 30.156311850303144 1.847954407995281 0 0 0
464 1 11.041835142050173 29.962565365146773 1.540508730647952 0 0 0
600 1 23.66949851355676 30.75752621812957 14.386772626774684 0 0 0
472 1 17.698253278691567 30.18146610924903 0.9794208146770813 0 0 0
474 1 18.979202321804934 28.863414207377758 2.8919174062993025 0 0 0
480 1 24.25439910630996 30.320189826189647 1.594804831722702 0 0 0
403 1 1.756835218402866 17.52829036489234 4.650555609424264 0 0 0
427 1 9.517420775600028 18.978985014682515 3.331845375892532 0 0 0
407 1 7.591860320665016 17.56904145024297 5.1491800150991685 0 0 0
411 1 14.855336852563475 17.728486408993955 4.688304218138853 0 0 0
415 1 20.82205222410068 17.596097666037195 4.638009106525922 0 0 0
423 1 4.357722447883357 20.663547588393314 4.809611261548697 0 0 0
431 1 11.309358930326965 20.702775660273357 5.051660113533911 0 0 0