LAMMPS data file via write_data, version 29 Oct 2020, timestep = 200000

800 atoms
1 atom types

-0.0321403316410116 25.485700331639293 xlo xhi
-0.040175414551566035 31.857125414552875 ylo yhi
-0.040175414551566035 31.857125414552875 zlo zhi

Masses

1 18.015

Atoms # atomic

5 1 1.328358022073124 1.9339281147347291 1.3996492884282041 0 0 0
73 1 12.859472534195028 12.365113333414886 0.09394757015524641 0 0 0
97 1 12.035671841945861 0.04421444483841565 6.583748542695667 0 0 0
13 1 7.496231183686705 1.5600210870945295 1.6909742440983535 0 0 0
21 1 14.225110842825218 1.5172214400280508 1.852060044666744 0 0 0
12 1 9.059531641031409 3.1091493213145305 -0.03730034277825363 0 0 0
29 1 20.59696380843242 1.3116680973391306 1.5761061211002272 0 0 0
26 1 18.877469633684456 3.177356891662252 3.2575566502989077 0 0 0
8 1 4.459011180609165 4.973802603540803 1.4699041444388077 0 0 0
43 1 9.631191212516594 6.475410410929173 3.1488093731726803 0 0 0
16 1 10.904353134582419 4.639423450644296 1.4767372982096796 0 0 0
413 1 19.225125564584694 15.69523172546241 3.1343462110324394 0 0 0
24 1 17.57249802011672 5.029101409459072 1.7749684463697695 0 0 0
51 1 15.845412696424276 6.177532903528827 3.2913705736079097 0 0 0
205 1 6.236225081802215 3.106487284688232 15.823703916723716 0 0 0
32 1 23.710249846496353 4.852571655185666 1.4593575337977924 0 0 0
37 1 1.4676306118007154 7.9304976183824785 1.8366807620395367 0 0 0
45 1 7.817393176867615 8.156644979939516 1.622234175826385 0 0 0
42 1 6.273972218211133 9.773597723405357 3.3515314465753847 0 0 0
50 1 12.774508456969135 9.312092691119787 3.5926568724949948 0 0 0
53 1 14.235507722354974 7.986098227501836 1.6326519258049166 0 0 0
61 1 20.680067938943587 8.02969448417379 1.9968119807970508 0 0 0
58 1 19.137297708179524 9.682719827619708 3.4374945164881634 0 0 0
66 1 3.250348033808238 12.80048353740521 3.0444895158850955 0 0 0
107 1 22.087953388563868 0.3117046286779861 9.456953725693113 0 0 0
40 1 4.6077668203722375 10.781982647240849 1.598819916624141 0 0 0
83 1 3.1707141165395485 0.08629454341644999 9.233716155606585 0 0 0
48 1 11.301171645163626 10.903538302139276 1.8223026412396803 0 0 0
201 1 0.10042020130547835 3.1690944361431357 15.807600447531124 0 0 0
56 1 17.597672562608388 11.29422699878542 1.8072189152756797 0 0 0
74 1 15.906128757479177 12.715090101243847 3.3219241388984964 0 0 0
489 1 12.772297003827543 15.752174777611875 9.690018679232935 0 0 0
64 1 23.846126787383426 11.18238634199456 1.6620256001941822 0 0 0
67 1 1.3863030593471608 14.051431713505346 1.868516323980998 0 0 0
494 1 21.944249905709135 15.67492691943916 6.442355299679964 0 0 0
71 1 7.856899398555353 14.154071769325697 1.8594955281145658 0 0 0
11 1 9.551692426915153 0.01962676843336212 2.957282408153103 0 0 0
75 1 14.261016442394244 14.384931961158482 1.5849832052405413 0 0 0
79 1 20.842461367753252 14.31392025293561 1.6727782286078907 0 0 0
78 1 22.184993259860533 12.96155549893393 3.4208903092231413 0 0 0
2 1 25.096691988081716 3.328481855951815 3.352043031981061 -1 0 0
405 1 6.3467152008622065 15.796022490478256 3.3485571789293735 0 0 0
10 1 5.983493636999099 3.4258241393092996 3.179388098333707 0 0 0
7 1 4.69289363231317 1.6461088839630929 4.683214417388195 0 0 0
92 1 9.29305866763101 3.5094034437180626 6.055577344072515 0 0 0
15 1 10.859409242621146 1.654066149186602 4.815115693004451 0 0 0
18 1 12.566936230472123 3.1764499023176813 3.1987127896222596 0 0 0
23 1 17.04061163709946 1.868057635513586 4.8928421880283715 0 0 0
100 1 15.517648312392511 3.269716664674439 6.862938648658298 0 0 0
31 1 23.56613451030548 1.5280973119034738 4.716502328391492 0 0 0
6 1 1.3115780738648817 4.853338568186198 4.7888445118958956 0 0 0
113 1 0.0803283746145927 6.755274648933375 6.2601367550859175 0 0 0
35 1 3.135803774505058 6.539039700400546 3.380607982992123 0 0 0
14 1 7.6269258392318 5.2866159403017985 4.5439597200830315 0 0 0
129 1 12.534443509030142 6.324625705241083 6.5098635105704075 0 0 0
22 1 13.904820230098773 4.536529732564554 4.942779500143845 0 0 0
59 1 22.43051882389581 6.193063409144074 3.3740269076323233 0 0 0
30 1 20.72136594378717 4.705432903994071 4.805168757250314 0 0 0
39 1 4.810765706358283 8.375041795764794 5.084062102837167 0 0 0
47 1 10.962107912995153 7.987771655827412 5.055058418643968 0 0 0
55 1 17.23104608944918 7.91963717152241 4.990085280631723 0 0 0
63 1 23.9296251412393 8.085844711476138 4.91022466458208 0 0 0
38 1 1.9106417471444774 11.2937801614429 4.802292169378713 0 0 0
149 1 6.25673880400246 12.761348142013068 6.571769480965993 0 0 0
70 1 9.543407474040357 12.702801613577344 3.2728711203157568 0 0 0
46 1 7.663918491907909 11.475760144180859 4.894054758451638 0 0 0
153 1 12.826536957237995 12.729244382020473 6.192069264695036 0 0 0
54 1 14.330368700601191 11.17910956224423 4.901140268712092 0 0 0
132 1 15.494828619678069 9.689762212481652 6.386209358322503 0 0 0
62 1 20.563551807133024 11.262833593233474 4.8079204160665485 0 0 0
34 1 0.07838684772705307 9.696905732322938 3.396330743106603 0 0 0
145 1 0.23989353042874095 13.105365082500795 6.29752325230059 0 0 0
68 1 4.751834514266982 14.546661991741203 4.825079591600804 0 0 0
72 1 11.119173071797736 14.477601831507043 4.804310485253948 0 0 0
173 1 19.19707188022008 0.06857464823157752 12.340126686383524 0 0 0
76 1 17.27680125407217 14.405014188907803 4.9271931540439695 0 0 0
200 1 20.80758968414598 14.350557888514016 14.313978347323268 0 0 0
157 1 18.814530597653054 12.465707018085233 6.337526853810558 0 0 0
80 1 23.771869460861694 14.254995483768536 5.074491291583454 0 0 0
402 1 3.1723926020887814 15.579495686468796 0.2375427135568759 0 0 0
85 1 1.3897319393010188 1.8159093223940197 7.995882251715486 0 0 0
93 1 8.112356164086387 1.8929739969627728 8.032835041960507 0 0 0
198 1 14.56475330942438 14.298876127979895 14.073073295462478 0 0 0
101 1 13.97668293457869 1.5224042566899125 8.085666273332532 0 0 0
196 1 7.791627855581904 14.164501798816248 14.604818984985876 0 0 0
108 1 22.253771369620317 3.1795158276612194 6.297623918097911 0 0 0
109 1 20.643532949899857 1.7470432864427827 8.049614383245464 0 0 0
84 1 3.1388426026579275 3.2955519887426212 6.330766000814668 0 0 0
88 1 4.553675235833906 4.823831712210423 7.855546471026666 0 0 0
96 1 10.8349948624742 4.568967087341675 7.937116421417979 0 0 0
131 1 15.692468861568067 6.422151271012806 9.590295512092437 0 0 0
104 1 17.566615578667317 5.036729167542962 7.953326173221055 0 0 0
112 1 23.779005620523776 4.964098709330528 7.539868358618767 0 0 0
82 1 25.34343812665471 3.7720882626447834 9.450328162103663 -1 0 0
117 1 1.639657238232422 8.175983929288215 8.146839664352363 0 0 0
121 1 5.948311674852168 6.560497952357964 6.408108042291963 0 0 0
115 1 3.1794746563039884 6.512697476687868 9.741751335708416 0 0 0
125 1 8.130647437396586 7.800903356810577 7.709356050112745 0 0 0
123 1 9.4720771649443 6.229396271061626 9.562246039546277 0 0 0
133 1 13.878563892626222 7.868271544328537 7.850228912909215 0 0 0
137 1 19.220687174953383 6.704102589686695 6.425789563910666 0 0 0
138 1 19.171977030523024 9.5540727211535 9.686941343074931 0 0 0
140 1 22.511216884323836 9.8045663902243 6.355926388835816 0 0 0
141 1 20.940829879742303 8.3068769883246 7.89156713994999 0 0 0
114 1 25.43725797337203 9.688604558257955 9.714418448615607 -1 0 0
116 1 3.483817027551696 9.832391098963608 6.743163166891874 0 0 0
122 1 6.701634877622106 9.642556036073083 9.287273041242603 0 0 0
120 1 4.9015904767054055 11.491207016478523 8.553143731630271 0 0 0
150 1 9.808912556454723 13.278492816214015 9.517777608009274 0 0 0
124 1 9.650709646919527 9.912971567539842 6.481089488416699 0 0 0
128 1 11.456231194857208 11.33843790117264 8.09196051184818 0 0 0
136 1 17.47317078439695 10.72393552149991 7.835104539934447 0 0 0
144 1 24.2710132314105 11.365478657967634 7.856869075667505 0 0 0
147 1 1.5883751062416014 14.539983976339535 8.182900361085036 0 0 0
146 1 2.975523897617231 12.88842501742599 9.557723990435132 0 0 0
194 1 1.3989251588135194 14.314795735247186 14.319662308092225 0 0 0
192 1 23.78353198679256 11.24262505956031 14.590939328499376 0 0 0
151 1 7.70017187085129 14.493263272371639 8.12768275111596 0 0 0
155 1 14.415054404645497 13.850930005741805 7.856502233118602 0 0 0
154 1 16.450108042289585 12.860593691408804 9.480679996485296 0 0 0
159 1 20.433058941432193 14.05282011809512 8.000772555463719 0 0 0
158 1 22.424466405251387 12.614897701904132 9.38631658003676 0 0 0
490 1 15.542629943832706 15.843355469661958 6.340746629750282 0 0 0
162 1 3.538667605733732 3.2382630138249997 12.528552917823683 0 0 0
87 1 4.981528920465382 1.3045082406349684 10.683529483291222 0 0 0
90 1 6.4833667422657415 3.296988268190777 9.481823757904639 0 0 0
166 1 9.312086228032257 2.7178297535073015 12.331349923649867 0 0 0
98 1 12.659567275276519 3.0708407737315606 9.662228012144089 0 0 0
95 1 11.231879349514879 1.172577850275842 11.246558522771629 0 0 0
191 1 20.773949633968734 8.23125262105804 14.037106699420528 0 0 0
103 1 17.612798537752546 2.209568002775889 11.004547455116253 0 0 0
170 1 15.903557775557791 3.126088161195248 12.868945161933258 0 0 0
237 1 16.13596821450399 12.543660396075282 15.584523767855083 0 0 0
111 1 23.74740987030703 2.0531110456431865 11.034291338709538 0 0 0
86 1 1.7210498132021947 4.885003133059518 11.097996427356176 0 0 0
94 1 8.136843980361716 4.511903420734915 11.05827443237001 0 0 0
181 1 6.7262746744380415 6.288418103511931 12.406442632397628 0 0 0
102 1 14.273611204531775 4.659575049781103 11.300066255228936 0 0 0
106 1 19.164338548411756 3.6807361219865777 9.359480042879344 0 0 0
110 1 20.89276228725626 4.911244965029609 11.221755770614394 0 0 0
139 1 22.160520602351227 6.533468101070171 9.50416346157693 0 0 0
178 1 3.38087623657787 9.676497670789189 12.685278566810581 0 0 0
119 1 5.119841699702783 7.912419253758675 10.922850531712522 0 0 0
127 1 11.20535257757332 7.719616285268521 11.108123592102135 0 0 0
186 1 15.54517082907423 9.265082244897323 12.811277856821318 0 0 0
135 1 17.581010337563306 7.70286457797128 11.07256708226688 0 0 0
189 1 19.137274073398842 6.397059327403344 12.900462029732157 0 0 0
143 1 23.726832832563417 7.885680352737713 11.140547948600801 0 0 0
190 1 22.449675065433475 9.729029710642903 12.662680689672495 0 0 0
177 1 25.407111371120944 6.3866889816905505 12.763203475700548 -1 0 0
118 1 1.6331287215148202 11.043235542447258 11.088021457219096 0 0 0
195 1 6.287885150447115 12.780618127451223 12.456184494439254 0 0 0
126 1 8.243292175544525 11.363347209448367 10.86216521396737 0 0 0
182 1 9.584946377961023 9.574933899358328 12.570741795091756 0 0 0
130 1 12.824516755120074 9.548821242426285 9.938797513942284 0 0 0
134 1 14.562083211538374 11.150524657809683 10.86380864983589 0 0 0
142 1 20.73450415582822 11.253772445968764 11.183433500965862 0 0 0
199 1 19.192090182728258 12.781075480652065 12.874914392579804 0 0 0
148 1 4.547559740548365 14.422307177209865 11.006460328519086 0 0 0
218 1 3.197405041326615 6.204531119398319 15.673570004565132 0 0 0
152 1 11.365717798874403 14.597255156689052 11.52277626550286 0 0 0
156 1 18.10056576170132 14.447752706882085 11.10532874099382 0 0 0
193 1 0.05456606320853716 12.472381764984931 12.8206809959275 0 0 0
160 1 23.925104540164796 14.33793428420487 11.375441406096432 0 0 0
163 1 1.7033214919951079 1.698095031004028 14.06848420557156 0 0 0
167 1 8.060666975572246 1.1060110068012134 14.282556484381779 0 0 0
171 1 14.37213800942705 1.5877332248859835 14.446455081308041 0 0 0
184 1 11.091176391890611 11.160934240315015 14.183408680052315 0 0 0
175 1 20.657409228951686 1.5584563732120893 14.048194309258218 0 0 0
174 1 22.29011973897037 3.3833556310274537 12.716969040375568 0 0 0
164 1 5.132862205011462 4.792642914640633 13.97175943481291 0 0 0
168 1 10.433569892110315 3.9977185506407134 14.35668829315818 0 0 0
187 1 14.386947173200506 7.468466015366168 14.471659151468279 0 0 0
172 1 17.638744438595843 4.737609677476171 14.61379235260688 0 0 0
197 1 12.907233694744876 12.665212352728608 12.757370797856451 0 0 0
185 1 12.381132952814117 6.0883871886974275 13.215381208773719 0 0 0
176 1 23.87473779215439 4.542574458550739 14.274227536173534 0 0 0
180 1 4.8734906997589675 11.239252184473822 14.25209601097578 0 0 0
179 1 1.706246484167551 7.9111654806892275 14.369733585967042 0 0 0
183 1 8.120117960156726 7.829962209839304 14.13901146588636 0 0 0
188 1 17.539361543996883 10.861847841105703 13.979889015731029 0 0 0
19 1 15.662615648221747 -0.0008168428573136766 3.6083169760362215 0 0 0
99 1 15.78191583905 0.2884576835709491 9.935599471879621 0 0 0
493 1 19.272513162075192 15.881493914146118 9.355839198926704 0 0 0
3 1 2.811509383464346 0.2893460232414849 3.0949978618060356 0 0 0
89 1 6.228300121977881 0.2057572098886336 6.377442744563238 0 0 0
230 1 22.091920103259653 6.345645590255465 15.709062134973953 0 0 0
20 1 15.779853747286923 3.287172316284676 0.3358791064734555 0 0 0
214 1 22.05772827994644 -0.02492079139288145 15.705178454955488 0 0 0
77 1 19.06912150616249 12.778143504863452 0.24135051126814344 0 0 0
105 1 19.11169201081961 0.26381714580261273 6.2416786088808465 0 0 0
28 1 22.11430470431933 3.150865571931098 0.16360750890411901 0 0 0
217 1 25.40849427994694 9.507609194237913 15.811842596969669 -1 0 0
561 1 3.171332474636101 15.877123514772084 12.886855371119891 0 0 0
235 1 9.386550188037797 12.532957318922126 15.851885104463856 0 0 0
57 1 19.143664974000373 6.73722952994322 0.3134636253540724 0 0 0
605 1 12.525327441816145 15.693254757539721 15.688580640891585 0 0 0
81 1 25.281440505832265 0.0829655007438899 6.01977957024172 -1 0 0
17 1 12.283588397393961 0.22810422231083854 0.07240001313730654 0 0 0
60 1 22.256613453744215 9.208280476870716 0.28662222081291056 0 0 0
9 1 5.963446317068894 -0.009843735325020475 0.2371979645976135 0 0 0
210 1 16.30298779077024 0.1919336509485313 15.819506806182382 0 0 0
221 1 6.332283153863118 9.442785346006401 15.768235187273476 0 0 0
52 1 15.975121406095306 9.725821646167072 0.4054376208938887 0 0 0
225 1 12.843305682111108 9.575960050441017 15.799695851664527 0 0 0
209 1 12.800233292495097 3.2631587278247136 15.780668525965607 0 0 0
49 1 12.812656449046045 6.369318835254974 0.06527633964720103 0 0 0
69 1 6.1655479025616815 12.230434764107173 0.15407701552853936 0 0 0
213 1 19.39180055718468 3.129327197438276 15.825707939524866 0 0 0
233 1 3.399698827551789 13.183725309477131 15.552304881635555 0 0 0
33 1 0.060883165571944176 6.427089363405476 0.10151400742757488 0 0 0
44 1 9.778401537614984 9.5532026541782 0.26061676374717635 0 0 0
229 1 19.301928802577386 9.520272052138179 15.924440569302732 0 0 0
204 1 4.400649345463879 1.3270375033065218 17.303127699413704 0 0 0
331 1 9.25192419601837 0.10260368663500685 28.412715011439165 0 0 0
208 1 11.413023173315345 1.6706460077893381 17.501406987284774 0 0 0
41 1 6.224396631797664 6.6491534772185865 31.697601645848707 0 0 -1
212 1 18.09869948287377 1.7762117890021654 17.638484515974625 0 0 0
337 1 12.541578477663688 0.10498584691893242 25.085822650880313 0 0 0
216 1 24.002987780650102 1.1921781032856846 17.273390555846063 0 0 0
203 1 1.4796157466564874 4.6580888447942055 17.57835553177956 0 0 0
244 1 2.8785540537862513 2.9442978281457006 18.973940472143337 0 0 0
207 1 8.139873792817303 4.513737421878612 17.41978282152204 0 0 0
259 1 15.891118518050986 0.23687836175185611 22.18048953595606 0 0 0
211 1 14.670464078739935 4.4614932299804435 17.526507301027422 0 0 0
260 1 16.353607077977195 3.1796433047357393 19.103151331012178 0 0 0
215 1 21.011165884083944 4.458521252518611 17.48671803495917 0 0 0
268 1 22.511233683362278 2.962791213802139 18.954791983801496 0 0 0
734 1 22.249905873596113 15.736514178982647 25.381032008695314 0 0 0
220 1 4.817235500716819 7.9045144789888555 17.413369047323016 0 0 0
725 1 6.31443288085414 15.480269938948565 28.899139654174395 0 0 0
224 1 11.304457238022113 7.944861969389164 17.34527592988639 0 0 0
228 1 17.705531428569564 7.596961317974596 17.50135681513106 0 0 0
726 1 9.549995377396906 15.823933007364635 25.418443188260003 0 0 0
232 1 23.881807089165314 8.058911499995459 17.370598492364913 0 0 0
300 1 22.350111595876413 9.63014669558679 19.130493787389728 0 0 0
273 1 25.21123154200454 6.3570400079652645 18.912994152315164 -1 0 0
219 1 1.8782631069201283 11.364592333329346 17.39833994803542 0 0 0
223 1 7.845760171033556 10.816402506815802 17.514716541994453 0 0 0
284 1 9.423418966009434 9.328733797047693 19.07840618919667 0 0 0
227 1 14.614154223956337 10.92096158009734 17.201943740526733 0 0 0
265 1 19.323178731510332 0.06854719135665335 19.182441522307602 0 0 0
317 1 19.154352505502985 12.865962122154167 18.87309786835209 0 0 0
231 1 20.766798766648726 11.168926310191226 17.76117826632632 0 0 0
305 1 0.034606136440660545 12.66564887523304 19.29365324781821 0 0 0
234 1 4.711742586185508 14.575521919261167 17.466659305239244 0 0 0
236 1 10.841825025245646 13.971680320164495 17.466437603517765 0 0 0
313 1 12.855213515024765 12.65102612078719 18.90680928316538 0 0 0
238 1 17.535270440893285 14.31156791579434 17.145583126713966 0 0 0
240 1 23.88647811450099 14.47422814986975 17.67111872934532 0 0 0
245 1 1.6108742614777114 1.4252783235571553 20.677433109315263 0 0 0
645 1 6.364611459129052 15.441205494961224 22.197982916572744 0 0 0
323 1 3.0146095623445714 0.24248750613465964 29.059718080128818 0 0 0
253 1 7.719627021692146 1.242606413878385 20.22747979258983 0 0 0
252 1 9.77138351186098 3.0327006059424955 19.24444805909761 0 0 0
261 1 14.4526197868276 1.852303760013455 20.492935741432625 0 0 0
269 1 20.925634332940255 1.5816867882658996 20.72015442919599 0 0 0
414 1 22.324965342788595 15.660509664041582 31.729067722641762 0 0 -1
242 1 25.39314449844861 2.9898864717585427 22.104916271274845 -1 0 0
250 1 6.184323558455141 2.761556337427114 22.1956384834887 0 0 0
248 1 4.373187297981111 4.6763777577961765 20.886352598497634 0 0 0
256 1 11.467501259667868 4.624566487852966 20.965493470130212 0 0 0
264 1 17.794443268027223 4.748074655724624 20.7408536917729 0 0 0
297 1 19.634404885910605 6.43879773254466 18.861678625089628 0 0 0
272 1 23.755381825237876 4.493446455351296 20.716657496790468 0 0 0
299 1 22.30073009826895 6.348594136942007 22.228180198500674 0 0 0
277 1 1.5488493747199266 7.895251921119509 20.714098456951767 0 0 0
276 1 3.228696700814766 9.440938696574378 18.993473644125725 0 0 0
281 1 6.3161733518357845 6.187350786414347 18.908905352532475 0 0 0
285 1 7.9799376857728355 7.8373898299263525 20.750608648541444 0 0 0
289 1 13.076176756868664 6.241844049445692 19.02540579808023 0 0 0
293 1 14.819197215135961 7.974055119361486 20.59375513623682 0 0 0
292 1 16.286444589574998 9.315806145809184 18.839137257982937 0 0 0
301 1 20.94729095097268 7.96211012082175 20.720815991427735 0 0 0
298 1 19.183098301463104 9.117591564995749 22.138961867930643 0 0 0
280 1 4.925973088427643 11.178217776474003 20.815299325050844 0 0 0
306 1 3.1782545667568636 12.788706017791727 22.201047861283044 0 0 0
288 1 11.326950538502476 11.015011671050269 20.402633883800295 0 0 0
296 1 17.57422115917329 11.228282139446678 20.66093714802476 0 0 0
318 1 22.17845168346154 12.988254462253957 22.433549795853537 0 0 0
304 1 23.71973578403633 11.113915823440719 21.118975242248144 0 0 0
307 1 1.6096527637364857 14.187706375506199 20.772599301270553 0 0 0
650 1 15.862148915314265 15.770064054608728 18.85224895226683 0 0 0
309 1 6.221023497207994 12.600159882057499 18.9572034888231 0 0 0
311 1 8.047388602286901 14.054233575350393 20.630419088975696 0 0 0
390 1 9.760137829538744 12.82074764494295 28.697588939496935 0 0 0
315 1 14.14663675270489 14.32202604146179 20.714266985917355 0 0 0
319 1 20.580561649514017 14.277188675308418 20.690742783643838 0 0 0
4 1 3.1587984937440274 3.2707605547878527 31.827720896282532 0 0 -1
247 1 4.604997340625366 1.4395800640094831 23.93278146930562 0 0 0
347 1 22.36615452840789 0.04971374720282429 28.691834124615564 0 0 0
255 1 10.47910217464096 1.5715477881551332 23.769423853362277 0 0 0
332 1 9.210240131864524 3.3752540824613484 25.755360651980624 0 0 0
258 1 12.804752917483746 2.7634096867656015 22.450515480112333 0 0 0
263 1 17.468001517839625 1.4312843739355234 24.00223130347581 0 0 0
340 1 15.863189800430659 2.7742074851601144 25.605212984612546 0 0 0
271 1 24.178960759371854 1.096035920928813 23.71785947640014 0 0 0
246 1 1.5041271308704471 4.868189868661777 23.789951133461166 0 0 0
254 1 7.7646320585133735 4.372738977980712 23.582611969661702 0 0 0
283 1 9.402724610659105 6.152216373899797 22.147634203026776 0 0 0
262 1 14.454100424579776 4.510711617332516 23.982416449638645 0 0 0
266 1 19.150828151307934 3.0989987410694386 22.565458894769034 0 0 0
270 1 20.890778496581063 4.890268684574612 23.988667330816778 0 0 0
275 1 3.1666954465266337 6.534884079790224 22.49893796050006 0 0 0
279 1 5.28314149394538 7.63606986443876 23.961097570168818 0 0 0
287 1 10.87603567646875 7.809291064531396 23.888064583891538 0 0 0
291 1 15.918000708995928 6.139899594609869 22.447505386143035 0 0 0
295 1 17.68436856219717 7.664852893366635 23.812879904015826 0 0 0
372 1 16.024559348570307 9.110363515103417 25.85284202393683 0 0 0
377 1 19.052804796571778 6.1716818200315835 25.45251368329559 0 0 0
303 1 23.50825069649874 8.069746326279802 24.117104447363662 0 0 0
278 1 1.6332458471580893 11.133561099933186 23.88671375664376 0 0 0
282 1 6.2954769402674335 9.504558253610451 22.249953870350314 0 0 0
310 1 9.773234750548992 12.576104749778917 22.14319270492003 0 0 0
286 1 8.022278572647563 11.135687256614833 23.682111201189183 0 0 0
290 1 12.67386685430259 9.212046313713257 22.09515702476911 0 0 0
294 1 14.223758210494172 10.909980573485933 23.719919401973677 0 0 0
302 1 20.546788625891125 11.295376449091567 23.674979908885994 0 0 0
274 1 25.458505429334387 9.339660455536992 22.606209301709395 -1 0 0
308 1 4.66113919095296 14.294555930153097 23.66572330841396 0 0 0
389 1 6.301971718189126 12.65659205472571 25.06450699789194 0 0 0
400 1 23.892802855874876 14.134185621969971 29.980100645592735 0 0 0
354 1 25.3632679715493 9.562554285531093 28.61455134362708 -1 0 0
312 1 11.123125250816155 14.062190353489386 23.884119822034958 0 0 0
314 1 15.844781407485808 12.641037646216082 22.255872698314775 0 0 0
316 1 17.46838158159212 14.450512383856015 23.672033944901564 0 0 0
320 1 24.198131045452982 14.387027039928306 23.706047811439294 0 0 0
325 1 1.4003614670690958 1.5205983696674357 27.15206050713499 0 0 0
324 1 2.9897070346864405 3.3163096911177465 25.421529727828226 0 0 0
333 1 7.679852612048142 1.6218626179505293 26.945379437232845 0 0 0
341 1 14.052351283141755 1.158519332651881 27.137044358015164 0 0 0
349 1 20.623811662506107 1.2197865001046186 27.08212299714972 0 0 0
322 1 25.215457467083276 3.273411586375085 28.964690524227276 -1 0 0
328 1 4.874040414894365 4.877254556349944 27.01435234510657 0 0 0
336 1 11.348721327241236 4.440050155364937 27.010184794120548 0 0 0
369 1 12.687122239936892 5.975285414140176 25.246875462001075 0 0 0
338 1 12.709954069321228 3.0043872597014216 28.756702090000736 0 0 0
344 1 17.44829765406339 4.70052991214738 26.921449753527835 0 0 0
371 1 16.061571266445085 6.384658622954583 28.84359878194433 0 0 0
348 1 22.538932412445504 2.881744635808696 25.387533925211912 0 0 0
352 1 23.739080099760955 4.928852065046195 27.174098493478823 0 0 0
357 1 1.418089273510314 7.940395101100496 27.015487454456522 0 0 0
356 1 3.2491406451206397 9.281003235665374 25.398719185955866 0 0 0
361 1 6.719485445160505 6.147968081227788 25.553596191080192 0 0 0
365 1 8.15229448990388 7.570298444533836 27.162634175564918 0 0 0
364 1 9.414654731960281 9.503312550812444 25.68866316125927 0 0 0
373 1 14.227528965924735 7.678159475221513 26.91562634266562 0 0 0
381 1 20.3383920511125 7.784944240811651 27.305842294607675 0 0 0
353 1 25.387291031336417 6.300357524566741 25.6101849002348 -1 0 0
360 1 5.007537853632722 10.73173132831221 26.724261971214318 0 0 0
393 1 12.644660293063561 12.240497176392697 25.43887765054757 0 0 0
368 1 11.224242586707238 10.672670022219144 27.422922722700076 0 0 0
376 1 17.80216417552866 10.989830636236327 27.296465815249597 0 0 0
380 1 21.967693691167774 9.557936354200583 25.625282990933552 0 0 0
384 1 23.81275111928104 11.001494951608395 27.103031815134567 0 0 0
387 1 1.7136555498300734 14.169884087363718 26.99226484333535 0 0 0
386 1 3.4800305728480083 12.858951885770011 28.592170421089875 0 0 0
646 1 9.604851110243432 15.764768753932929 18.698018048172237 0 0 0
391 1 7.8794167739304415 14.011571852804556 27.02835694917599 0 0 0
398 1 21.896851575526156 12.716501440860958 28.73412317305132 0 0 0
394 1 16.082908753432882 12.547964071998392 28.634799851290246 0 0 0
395 1 14.377222302635836 14.071693006300933 26.959898530061224 0 0 0
382 1 20.81847790401381 10.925098201206701 30.556345068105987 0 0 0
397 1 18.946050805166337 12.896158210184344 25.360790319005513 0 0 0
721 1 0.2711337939124972 15.79853278295096 28.643861318987515 0 0 0
399 1 20.399410248093574 14.704457249495134 27.113200138570395 0 0 0
396 1 17.409932190206582 14.354564609135537 30.5208970495412 0 0 0
385 1 0.00479730024900249 12.578790657752217 25.71862967872948 0 0 0
327 1 4.68532422691347 1.786972719686969 30.22347255253995 0 0 0
392 1 11.281402592019985 14.395249803414194 30.508561271000907 0 0 0
226 1 16.156019639477606 6.112906644696368 16.12284425861264 0 0 0
335 1 10.749540417509893 1.7350350200266331 30.00338530645892 0 0 0
362 1 6.332953475625888 9.526480012555938 28.663196832537572 0 0 0
343 1 17.394854808422977 1.8795867748769526 30.524896723220976 0 0 0
351 1 23.62225631982185 1.6811230635182648 30.637104835618274 0 0 0
326 1 1.7740569586440473 4.940455465374457 30.077178833201327 0 0 0
330 1 6.0561394920396685 3.2140635133361375 28.5758879719421 0 0 0
366 1 8.2019427402016 11.024994210571117 30.267672761349786 0 0 0
334 1 7.777263150395374 4.714322891500552 30.189814213326617 0 0 0
342 1 14.216225548806815 4.666851148908851 30.439746487405905 0 0 0
346 1 19.173365833005057 3.26764713223759 28.69806192639776 0 0 0
350 1 20.596138768035097 4.640302449732563 30.600799939625873 0 0 0
642 1 3.011358675099229 15.89692058641998 19.243156093647922 0 0 0
355 1 3.175612836206437 6.550176681735882 28.405665685474784 0 0 0
359 1 4.410496571117227 8.145159774217795 30.16916210953128 0 0 0
363 1 9.810479056540077 6.19852802993182 29.019664316637595 0 0 0
367 1 11.27270296097522 8.02365122334473 30.36851008986853 0 0 0
374 1 14.309754658744138 10.882219709969364 30.363026352756954 0 0 0
370 1 12.957646574171065 9.19549964730339 28.92330373214699 0 0 0
378 1 19.163646371631444 9.244321432621769 29.21194237298606 0 0 0
375 1 17.367783485763546 8.090162153000882 30.594518793505117 0 0 0
379 1 22.195633871366326 6.322701126906897 29.17268721723316 0 0 0
383 1 23.945336569329186 7.856222511811296 30.39115089510481 0 0 0
388 1 4.731647813994547 14.123838050574674 30.596162361452564 0 0 0
358 1 1.353651051858389 11.339322763538455 30.055108583353167 0 0 0
722 1 3.069398518536656 15.554924581635227 25.486105030960708 0 0 0
239 1 22.316336841525377 12.917059271780932 16.121848320347215 0 0 0
730 1 15.79750867216954 15.782654789043216 25.316364273683877 0 0 0
222 1 9.438994338536366 6.293118158279855 16.017308461309558 0 0 0
36 1 2.9188057654384476 9.55884801220274 31.83026240485876 0 0 -1
65 1 25.336426345394933 12.669901408205401 31.613706677602092 -1 0 -1
25 1 18.94950342991551 0.04584564640612143 31.808191417718042 0 0 -1
404 1 4.837485033338176 17.120052075592056 1.4969863459830492 0 0 0
408 1 11.47770484855494 17.553739198229284 1.2462840308591934 0 0 0
427 1 9.815818996909421 19.175888726015266 3.1041991560816062 0 0 0
435 1 15.725320529668815 18.95914094131748 3.2921527838707254 0 0 0
412 1 17.6858867571449 17.299920455268627 1.6204828417608665 0 0 0
626 1 3.2358812262137175 25.775530404830413 15.868728480993601 0 0 0
27 1 22.055091442397426 31.737291599060256 3.181132827011305 0 -1 0
416 1 23.666374608769978 17.368367827223405 1.6844836113550405 0 0 0
421 1 1.6577521393538648 20.674558585050214 1.8716822210218067 0 0 0
429 1 7.943351935553947 20.413265559779425 1.463999872655475 0 0 0
437 1 14.46722327660617 20.76230662444027 1.391439825863532 0 0 0
567 1 21.939634566479107 16.280813920469335 12.730415938628237 0 0 0
445 1 20.40183409035749 20.68717031364116 1.52202272202507 0 0 0
625 1 25.41534960035453 29.183137825534477 15.398741622327003 -1 0 0
451 1 3.2530686700728553 25.53083102242312 3.039169043643957 0 0 0
634 1 16.025269982943406 25.753015292625477 15.454805551600078 0 0 0
424 1 5.0974219392086795 23.926549149740346 1.5765993398039433 0 0 0
434 1 13.117481649276904 22.20431309118894 3.2809696611776733 0 0 0
432 1 11.39077181790634 23.99252463427531 1.6847491183716645 0 0 0
467 1 16.02053902644449 25.499738776828536 3.1341502781441135 0 0 0
442 1 19.074669212652722 22.21221477928414 3.044596746541883 0 0 0
440 1 17.380135535885984 23.74564167851594 1.5041128042377094 0 0 0
448 1 23.920983473733187 23.480945614259692 1.4875450604066713 0 0 0
418 1 25.463259174459807 22.30182585633411 3.3343399819626502 -1 0 0
453 1 1.6201232869388407 26.75311968596453 1.1532802117641445 0 0 0
461 1 7.947262188470228 27.548838675320095 1.8102726838769716 0 0 0
459 1 9.537707427533709 25.48918801253203 3.3400830620833117 0 0 0
469 1 14.531267322679188 27.24014408859067 1.8320101965292377 0 0 0
477 1 20.578761792555284 27.027985276436297 1.2746383267342705 0 0 0
600 1 23.295123480632945 30.537926211555405 13.643773560799813 0 0 0
456 1 4.530615008147208 30.475002328977038 1.8672192630533773 0 0 0
409 1 12.654801805975676 16.125189431356134 3.116639910692538 0 0 0
464 1 10.975941676747635 30.197166272050723 1.5556014513354413 0 0 0
466 1 12.789722317176448 28.792191946721125 3.048507896340325 0 0 0
472 1 16.906284945630198 30.534635729080442 1.605720343929832 0 0 0
169 1 12.884660611800127 31.57153502219982 12.92222770572951 0 -1 0
474 1 18.690209861308453 28.496199869498646 2.9387992207951097 0 0 0
202 1 3.133725821333989 31.60162562831646 15.232988578086252 0 -1 0