LAMMPS data file via write_data, version 29 Oct 2020, timestep = 50000

1582 atoms
1 atom types

-0.03542135717992423 50.88757245819969 xlo xhi
-0.02221824763108593 31.91951907673537 ylo yhi
-0.02221824763108593 31.91951907673537 zlo zhi

Masses

1 18.015

Atoms # atomic

737 1 6.110277146436229 1.4175681565156297 1.2511162721987588 0 1 1
712 1 7.535215826035543 3.171420339179308 2.662304803648346 0 1 1
740 1 12.666965036683523 1.458734877835367 0.9967193774193357 0 1 1
753 1 15.712370729162847 4.190960645413948 1.2327415108578625 0 0 1
633 1 20.755951056334244 2.957667248301411 2.5497412773451247 0 1 1
597 1 19.25106888718035 1.1484223143341779 0.9338314574820659 0 1 1
97 1 25.37089283711219 8.265110931622344 13.740169886787285 -1 0 0
445 1 3.0109577258867217 4.730593047855176 1.4351405462241262 0 0 1
356 1 17.419226682007196 31.707992955524226 15.676766985966472 0 0 0
560 1 4.68399988219765 6.277229901456051 2.600516258324862 0 0 1
407 1 9.25696163404359 4.590514354603507 0.7872361301461548 0 0 1
563 1 10.756664201852512 6.225219846791156 2.3801224061798183 0 0 1
528 1 12.719808928384642 7.496340435615504 1.1317024210482896 0 0 1
483 1 22.389461550971443 4.537550733591385 1.0667440873570373 0 0 1
567 1 1.7686768941398234 9.435105800089266 2.4540187355297984 0 0 1
357 1 23.733841860569722 31.728018290675834 15.052326323860374 0 0 0
568 1 6.056724845776378 7.706308791641639 0.9506364087697379 0 0 1
570 1 7.780246221221225 9.20865819833563 2.5668110292937913 0 0 1
577 1 9.816294623741554 10.694930999951072 1.395030983376164 0 0 1
572 1 19.19222494505379 7.7599670584964775 1.0729805651614421 0 0 1
524 1 25.242733886217394 7.7657395431611524 1.3399806063454993 -1 0 1
140 1 14.285644412266402 9.153834086770427 15.592484871244082 0 0 0
575 1 3.172185295254184 11.047069537521361 0.7801769836849085 0 0 1
576 1 4.4087893608452795 12.644274619224305 2.5461301548160247 0 0 1
131 1 11.239675085750727 5.661979111512626 15.538902596551624 0 0 0
580 1 12.96784649650168 13.696077732821854 1.2985361578514363 0 0 1
530 1 16.076095301828445 10.881320893635607 1.2187201697694428 0 0 1
583 1 22.218703339648357 10.819277083890539 1.5482670619279477 0 0 1
581 1 19.182491943387653 13.744967532328706 1.5875769044882078 0 0 1
345 1 8.035335092214035 28.84467321937732 15.59586588452205 0 0 0
586 1 1.3476853150684451 15.84288743360372 2.4319177393635636 0 0 1
564 1 6.333924462095036 14.027519190613397 1.0380669003390302 0 0 1
569 1 8.205517437030181 15.528120985927796 2.6447780429521406 0 0 1
308 1 6.462423187560007 27.136307317641382 13.557673281447714 0 0 0
552 1 16.097462514313765 17.05321251411918 1.0096303589321276 0 0 1
343 1 -0.004088932074120012 26.917815270963388 14.045489524245982 0 0 0
614 1 25.419850341692708 29.649937059040596 3.9306383671061447 -1 0 0
548 1 3.477027119732684 17.364633568577247 0.9669415411843172 0 0 1
423 1 6.315378066070384 19.98960340997055 1.2743384166246703 0 0 1
478 1 9.765883265799864 17.32637610498454 1.0725069193375465 0 0 1
551 1 21.919504806768533 17.22198467432152 1.1090920491512968 0 0 1
513 1 23.918236669715746 18.64164384750658 2.356805307185874 0 0 1
556 1 0.2636599899271182 20.308309629587846 1.0187044502644478 0 0 1
715 1 3.303206969473157 23.32184879591569 1.2245450536977636 0 0 1
346 1 14.174030807786554 28.42906135920601 15.214455145774936 0 0 0
756 1 7.988565386789466 21.845387948046067 2.4502733539629666 0 0 1
718 1 9.605033099495456 23.257008552395554 0.9441497279903446 0 0 1
760 1 12.816605808673259 20.501550698903714 1.0726403182648914 0 0 1
757 1 14.503905485107895 22.213269664746008 2.3053400792087393 0 0 1
616 1 18.909426863353644 20.708068684394227 1.2078361825919885 0 0 1
766 1 16.2237007425807 23.31906809603877 0.7297341332327942 0 0 1
758 1 20.813374568598284 21.922399745639403 2.612732989631085 0 0 1
729 1 0.12106704110512609 26.489173808612463 1.0123524963325838 0 0 1
762 1 4.872475728114006 25.016450215634492 2.609334054482963 0 0 1
726 1 6.596315991792927 26.54216321418039 1.1948220177592679 0 0 1
344 1 1.4790004752104156 28.522870768543022 15.85882780762138 0 0 0
764 1 11.093966815253564 24.802208864505438 2.516035047635595 0 0 1
765 1 12.962116605090891 26.409365601882058 1.365285390205684 0 0 1
165 1 23.9505833538517 18.845676354337087 15.667965028097933 0 0 0
768 1 17.47637798721516 25.00934976814964 2.571553425389375 0 0 1
767 1 19.207324717948673 26.61132435377548 1.0939936602501132 0 0 1
759 1 22.289270970407074 23.701215199642192 0.9633694305199246 0 0 1
771 1 1.6674844545324063 28.102662707726516 2.633222303873145 0 0 1
514 1 25.39075030719122 14.063643719071719 0.9893536428412364 -1 0 1
770 1 3.2685099308423657 29.881413565963676 1.2325153761790555 0 0 1
772 1 8.45333972913069 28.376966892616437 2.395762787697683 0 0 1
305 1 22.45465792992165 23.983355173765695 13.654114119395976 0 0 0
746 1 14.177971379698194 28.576773977149607 2.6187003406751046 0 0 1
761 1 20.78638242528195 28.340338435455315 2.478725509343281 0 0 1
774 1 22.441218912652513 29.68832759632697 0.8991966651082469 0 0 1
142 1 20.914016710206585 9.4058546062615 15.514065291396108 0 0 0
592 1 25.363871287659254 17.175319722626142 3.9926871344760855 -1 0 0
732 1 9.659569184050474 29.910053875480124 0.8946525488810693 0 0 1
751 1 11.18793632168944 31.844797212593242 2.5021672019521337 0 0 1
741 1 15.961624925760526 30.118762971408977 1.0254616296696222 0 0 1
722 1 17.53845968218401 31.783980172572413 2.507630728430085 0 0 1
773 1 23.71477929774143 31.41808638937389 2.5616919083349416 0 0 1
745 1 1.3994248429058636 2.804595796051735 3.0546355626634 0 1 1
375 1 3.2589391747229355 1.3238925133644195 4.5080337444558864 0 1 0
785 1 9.462270478116732 1.1563148143894801 4.150603433004464 0 1 0
243 1 10.983380863279125 2.785264695612702 5.834444941781602 0 1 0
706 1 13.791459584187933 2.8929175620667773 3.0207734250929517 0 1 1
371 1 15.668819241811049 1.2858800457711685 4.357799573517614 0 1 0
245 1 16.92198576131846 3.1232042852091015 5.884633655579499 0 1 0
249 1 24.02288716326521 2.9979241392295717 5.892676712124581 0 1 0
402 1 22.228499104586703 1.373294921850819 4.065026272733328 0 1 0
4 1 1.3223570492735797 6.424390021748678 5.678275520129523 0 0 0
201 1 5.963902538881699 4.477910280852098 4.514204772040227 0 0 0
199 1 12.292849281554888 4.7161897265144095 4.349177238665407 0 0 0
565 1 17.41123625638537 6.369972978347548 2.90236034647169 0 0 1
593 1 18.968050676685845 4.5336772440985955 4.187442813511715 0 0 0
10 1 20.617806151132513 5.801263126792194 5.854978176836686 0 0 0
566 1 23.64731323218277 6.171232784918537 3.014724777276155 0 0 1
481 1 3.155347528538604 7.763084818391477 4.206999498816854 0 0 0
12 1 4.45737155659565 9.468499394535872 5.748628248984785 0 0 0
9 1 9.064301054783872 7.601248442457039 4.239324057927147 0 0 0
14 1 10.911692590295283 9.133654414210081 5.75547092210065 0 0 0
571 1 14.228178811927119 9.161120322315323 2.8170914868877044 0 0 1
189 1 15.793985318766282 7.779519443301147 4.613023387745488 0 0 0
573 1 20.616979961362098 9.134534637842105 2.978369304517138 0 0 1
193 1 22.137260872006678 7.643022808460236 4.440511796639746 0 0 0
19 1 23.735429343647866 9.347099557957495 5.738066945739541 0 0 0
320 1 22.21483563174613 30.14770743212806 13.597442199635816 0 0 0
211 1 0.05311645902718676 10.923810744837214 4.378331791994748 0 0 0
409 1 6.225216386483734 11.14618421871178 4.076698977764238 0 0 0
578 1 11.280555569051808 12.52259679339678 2.7457558491089618 0 0 1
207 1 12.822654383971546 10.865959735902118 4.342043641104191 0 0 0
582 1 17.384127220356138 12.589200380191233 2.9720794080600217 0 0 1
196 1 19.162482709442504 11.23438297119449 4.590576679362499 0 0 0
584 1 23.970843568487467 12.354934835006874 2.768428195510325 0 0 1
200 1 22.279767873381093 13.70887636750918 4.563697881753042 0 0 0
591 1 2.915020463613396 14.059932282491495 4.209544547997654 0 0 0
208 1 6.166285674408781 16.73524085251075 4.430968026224642 0 0 0
29 1 4.606334429544818 15.284770880404034 5.877723615209585 0 0 0
212 1 9.784172417257434 14.054279059853954 4.537656196187314 0 0 0
579 1 14.321838218339296 15.385147584533499 2.7402644725397596 0 0 1
5 1 12.869535689145346 16.87010704407647 4.370754813831962 0 0 0
204 1 15.989525007187716 14.227138529338479 4.682678804929484 0 0 0
554 1 20.839628840538 15.428085810288215 2.9338525024063817 0 0 1
310 1 12.269547049468214 27.18261532637898 13.77922566153137 0 0 0
585 1 4.730388003198655 18.63128186079151 2.9737252656805166 0 0 1
83 1 3.1689605749914844 20.08896739001645 4.5145500012732125 0 0 0
561 1 11.28926731965242 18.90307172045393 2.8860021371464386 0 0 1
41 1 14.273032104221551 18.89273950429333 5.863867627744743 0 0 0
558 1 17.426334642643113 18.86232984716478 2.8983551008010857 0 0 1
191 1 19.08783539424527 17.283712612589703 4.518363103671197 0 0 0
450 1 22.34821498422553 20.170094229089912 4.108208890309425 0 0 0
330 1 7.74690634999844 22.11150760186151 15.525830647098573 0 0 0
754 1 1.7631714484285699 21.758039960090777 2.852335626353191 0 0 1
360 1 0.226258366388858 23.32022504421257 4.477600129394807 0 0 0
213 1 4.83637266558528 21.63166994589686 5.775748179054127 0 0 0
782 1 6.352572663997074 23.273163745587674 4.185363001746049 0 0 0
286 1 9.496036579281732 20.56297769944728 4.279480032451374 0 0 0
214 1 11.485843047110004 22.06596124303465 5.524696607662722 0 0 0
400 1 15.781548001796578 20.667432485336477 4.445179903567593 0 0 0
3 1 18.932194860386115 23.461552730458507 4.39358000962285 0 0 0
222 1 7.946566386569656 24.92947124352233 5.742715751893024 0 0 0
780 1 13.14116544808011 23.58489145687782 3.964378055478695 0 0 0
223 1 14.479526207537393 25.27899856128991 5.6700546208682265 0 0 0
404 1 22.06873247040361 26.631989294256044 4.1066756566809905 0 0 0
225 1 20.422404595611283 25.203757577234498 5.800819433558769 0 0 0
769 1 23.866031397916977 25.062792474316545 2.9037945989192835 0 0 1
317 1 14.362010204836437 31.656614897240317 12.545289790272374 0 0 0
296 1 3.452903276785273 26.754332271957153 4.357168581889016 0 0 0
228 1 5.096671692537611 28.4476492291073 5.855472082649001 0 0 0
776 1 9.663302599289322 26.702456998048703 4.154259880812369 0 0 0
775 1 15.96533471506179 26.729085988155553 4.042203025413209 0 0 0
1 1 18.997088673468483 29.75221355295112 4.248608432455201 0 0 0
233 1 17.396496478261582 28.266489733612097 5.782884565259723 0 0 0
234 1 23.946456546315623 28.001424918235948 5.766293740714848 0 0 0
235 1 1.614528775672835 31.278157493132177 5.431563223881739 0 0 0
342 1 23.7935449758442 25.42290048922799 15.517326789563365 0 0 0
755 1 4.7656770602986045 31.64026737486561 3.013032892044815 0 0 1
403 1 6.680699525646346 30.164330088050413 4.2068055345485105 0 0 0
399 1 12.595348943189911 30.205876965936824 4.25647661341653 0 0 0
239 1 20.599578777818515 31.55340600200676 5.553090404232184 0 0 0
284 1 1.3989047114906752 3.0168730378783195 8.792399272899514 0 1 0
241 1 4.5290751362460675 3.063487809134313 6.146496871843506 0 1 0
285 1 6.057925938880055 1.3597824493874369 7.691923427157248 0 1 0
287 1 7.8779487085281135 3.0697729198151116 9.051456862779347 0 1 0
244 1 12.799688302300199 1.378333084452102 7.329431171860656 0 1 0
219 1 22.07796511941125 4.327535588861562 7.46224086384224 0 0 0
289 1 20.170217464261494 2.87698471458284 8.945125356366164 0 1 0
347 1 16.286401929529116 29.98148601879666 13.970538025307519 0 0 0
186 1 2.8075746058202107 4.777516844099241 7.375985903029868 0 0 0
47 1 4.6915798326229625 6.136169826708532 8.96641502129324 0 0 0
7 1 7.498822745659673 6.0499620999436985 5.970006323933243 0 0 0
40 1 9.55714747549752 4.507421840307487 7.238078596400687 0 0 0
8 1 14.237076484150176 6.007102828198315 6.131316534976084 0 0 0
183 1 15.676583893962766 4.486949748787958 7.8900201279996685 0 0 0
53 1 23.59111323873033 6.0179938513752855 8.999749306067109 0 0 0
54 1 1.3055537247272437 9.347867539353027 9.072192270296124 0 0 0
46 1 5.983977786962978 7.91836442376915 7.460493704563 0 0 0
57 1 7.629699473426723 9.781748515140487 8.826966326674027 0 0 0
50 1 12.576591849745906 7.66864278067073 7.479845317300411 0 0 0
16 1 17.589126944873033 9.523875237854114 6.054117539490103 0 0 0
11 1 18.895916529347556 7.66955103355244 7.538771154033323 0 0 0
17 1 15.859635598827023 10.673906624997008 7.5726321839065776 0 0 0
61 1 20.742381592527018 9.199755826085687 9.088539257143509 0 0 0
44 1 25.123802953666406 7.820886531761326 7.633389165776839 -1 0 0
60 1 22.453915513097137 10.689458766337463 7.655403667417 0 0 0
20 1 1.461823661241679 12.429313415080097 6.1159158272940255 0 0 0
56 1 3.1323207750928335 11.035917041129412 7.661993910948478 0 0 0
21 1 7.820432153293042 12.655775825117884 5.901170493084469 0 0 0
13 1 9.636757011768252 10.972199108965938 7.42987237982965 0 0 0
24 1 14.247487847692536 12.484991482045107 5.911602756149749 0 0 0
23 1 12.784453247489802 13.812833203743672 7.874338208188832 0 0 0
25 1 20.701026054959993 12.528648473161958 6.276270126687065 0 0 0
74 1 0.07064452576243313 14.19818233240331 7.677738574620181 0 0 0
66 1 1.9054519604741074 15.79728138558756 9.08565866186436 0 0 0
22 1 6.274861037214528 14.274981163977323 7.632876867675705 0 0 0
31 1 11.309063913290323 15.40649587587846 6.1015176761694345 0 0 0
33 1 17.61433655830859 15.797728845424244 6.086412936893883 0 0 0
26 1 19.156106573310275 14.183976665154251 7.718959693726074 0 0 0
73 1 20.584347603191183 15.766291705359263 9.091294749327073 0 0 0
36 1 23.87149557625843 15.685732382133105 5.941017351341408 0 0 0
348 1 20.510906140969066 28.581211828211863 15.048273497638347 0 0 0
37 1 1.3803828104429783 18.558774653624262 6.147795739721703 0 0 0
351 1 9.62995137469766 30.290472955422388 13.94857260299527 0 0 0
27 1 3.2470246073160776 17.306083767286367 7.325407193353682 0 0 0
39 1 7.859993411550879 18.66155769848224 6.138762376881185 0 0 0
68 1 9.548850980759758 17.20826576165117 7.5541069588144065 0 0 0
77 1 11.126811795626741 18.98553847410023 9.08767978947882 0 0 0
34 1 15.920436244122545 17.220571368551084 7.603228313719076 0 0 0
42 1 20.86364571591604 18.821628868846304 5.95178495936502 0 0 0
43 1 22.208047904585076 17.46738012001039 7.702332354949492 0 0 0
15 1 19.244056783709244 20.204864662212266 7.415389068892483 0 0 0
45 1 6.347705358948475 20.30579583999784 7.629898456543103 0 0 0
252 1 8.176014908262466 21.78429020258519 8.84714656835888 0 0 0
242 1 12.664579831789458 20.63542134711237 7.397658101702789 0 0 0
216 1 15.739376130298467 23.473320867393277 7.573415483875324 0 0 0
217 1 17.702673645049494 21.81178890227487 5.89941671921534 0 0 0
255 1 20.536799090523385 22.04540590493847 9.063954112418873 0 0 0
220 1 23.691492982825228 21.880331629047653 5.963506649014853 0 0 0
221 1 1.6522100492732976 25.191128279100624 6.150966047209856 0 0 0
258 1 3.4808798103668575 23.643593400729472 7.587513795793163 0 0 0
215 1 9.82164200324273 23.69037060591326 7.385200015733829 0 0 0
256 1 22.368171194130685 23.767643539324922 7.308822141852255 0 0 0
267 1 23.77996568463293 25.45073869749477 9.073162940759728 0 0 0
269 1 1.8445036884106505 28.501784855212172 8.972642953763376 0 0 0
262 1 6.699650392568736 26.88224471431635 7.493954049160599 0 0 0
270 1 8.171608945980529 28.45650454919739 8.926972193851862 0 0 0
230 1 11.398788909060372 28.513716624846325 5.963772525912598 0 0 0
229 1 13.127904239681476 26.72301390377021 7.5622167818462644 0 0 0
273 1 14.41743045630523 28.479996574253242 8.883879459406009 0 0 0
232 1 19.09339082930817 26.730926599797634 7.325514573394499 0 0 0
274 1 20.83918802439662 28.309074471211794 8.824278063579143 0 0 0
275 1 0.12960758814102233 1.1243062333755511 6.9863930248731645 0 1 0
226 1 3.2497490337302115 30.054166045249033 7.320079309101647 0 0 0
276 1 4.623485429864673 31.42606679275397 9.045755661140577 0 0 0
236 1 7.950482086904001 0.13324768336304982 6.089470959734946 0 1 0
237 1 9.543142993453413 30.01246502200391 7.621412534308071 0 0 0
238 1 14.543659474104587 31.765860375033526 6.11123875516533 0 0 0
231 1 16.035005899344206 30.023030484690338 7.415192863047451 0 0 0
247 1 18.70839588323683 1.0819286572762619 7.219569659902394 0 1 0
281 1 22.508512287745994 29.8939543997585 7.032372659255015 0 0 0
282 1 24.152014893958004 31.65127551036906 8.877496782488775 0 0 0
277 1 3.009598540642426 1.3645784564078391 10.0297629520783 0 1 0
349 1 4.620120440441444 31.525714106621685 15.127282046042824 0 0 0
322 1 4.6971040455395565 2.9327535967767746 11.886314078809038 0 1 0
323 1 9.33236839331642 1.3992768438540897 10.668833140798712 0 1 0
288 1 13.822900037002697 3.0028326704870842 9.20992276953716 0 1 0
316 1 15.85717983698358 1.7132152099178735 11.129688104949826 0 1 0
326 1 22.081269801726418 1.1918331152662711 10.363343575050413 0 1 0
327 1 23.8461131620089 2.9293558976552077 11.602326253849682 0 1 0
84 1 1.3838164672087652 6.306206816075914 12.283697771136742 0 0 0
187 1 6.229125314660979 4.693811582213053 10.663003597363062 0 0 0
49 1 10.866686086483163 6.144138177289489 9.098500050087791 0 0 0
6 1 12.044587350712739 4.532043770085286 10.869596802467077 0 0 0
51 1 17.056499584840843 6.358427777608063 9.176334826782435 0 0 0
192 1 19.130465204360224 4.751952402088725 10.52705032710791 0 0 0
198 1 25.30880884669359 4.570848810531213 10.304842158375559 -1 0 0
91 1 3.1353638366720125 7.787910789576807 10.616261827707975 0 0 0
92 1 4.552167489400194 9.31831957703829 12.143166487064004 0 0 0
48 1 9.298153410559877 8.00206016346455 10.340689802495675 0 0 0
93 1 10.842237694383563 9.063099897340491 12.224850073487778 0 0 0
59 1 13.916339670901321 9.03061735371292 9.226341707139994 0 0 0
52 1 15.531414602476742 7.7620394740226475 11.149175851365232 0 0 0
95 1 17.583236308527393 9.53151362225526 12.241082407281674 0 0 0
89 1 22.27692182991751 7.671712977189956 10.58307357437635 0 0 0
96 1 23.804280902131495 9.458781981719246 11.827048599860648 0 0 0
55 1 0.07258875741334968 11.252453229046727 10.545534187567652 0 0 0
62 1 4.809616115604911 12.874476892049438 9.36782113224574 0 0 0
99 1 5.948746812421336 11.057405186823416 10.693711615269772 0 0 0
101 1 8.13412281192192 12.29953861425762 11.996772406599552 0 0 0
63 1 10.969527827551799 12.486667241642907 9.338777042687823 0 0 0
58 1 12.544053862321178 10.821204343376545 10.795608840256891 0 0 0
103 1 13.890046755424578 12.36700065316941 12.137841520995659 0 0 0
64 1 17.247199333608542 12.418437838407165 9.273713389852492 0 0 0
104 1 19.239612210906557 11.201209881418176 10.711417769218675 0 0 0
107 1 20.962151266205908 12.806217123435 12.179237336793955 0 0 0
65 1 23.95511025262786 12.584876923989182 9.19374151906351 0 0 0
108 1 3.480818849389831 14.333856445260977 11.029233509002777 0 0 0
69 1 7.666743660991382 15.979514886724472 9.177549086451846 0 0 0
112 1 9.656302637525695 14.414549171411215 10.766794732683195 0 0 0
71 1 14.342480977854125 15.682451037463032 9.184644467617785 0 0 0
72 1 15.508563119386725 14.191028860842763 10.671782423992417 0 0 0
81 1 18.832889812224046 16.970840866961915 10.62303209932575 0 0 0
114 1 17.489661335242957 15.226642888547437 12.122696078083356 0 0 0
106 1 22.534725994916766 14.305992973600963 10.641457266954054 0 0 0
115 1 24.29697393445857 15.869079766109177 12.14449093424031 0 0 0
75 1 0.23237620527435748 17.61139004635632 10.582972768340206 0 0 0
76 1 4.750602825794695 19.054694842834657 9.108477829505475 0 0 0
67 1 6.257603614939229 17.266893851926532 10.857601052569311 0 0 0
70 1 12.836554229258384 17.234745367818107 10.47737187157654 0 0 0
121 1 14.427284658523261 18.357993624634382 12.144123580638967 0 0 0
79 1 17.293018240275305 18.912849708824112 9.210733647522632 0 0 0
38 1 21.966969168108502 20.184531569331412 10.728006582904243 0 0 0
82 1 23.797134801004397 18.762622010908096 9.358236987785197 0 0 0
250 1 1.8300535989680224 21.989070884700105 9.42840701166424 0 0 0
395 1 3.318907631344573 20.495166817681465 10.83074405300173 0 0 0
292 1 4.708844062760342 22.060300683198193 12.275700319734137 0 0 0
367 1 9.231841869771335 20.587677106796434 10.768550215677768 0 0 0
254 1 14.318133849686758 22.191829150796472 9.138457971910926 0 0 0
125 1 15.556431036113521 20.35319475929719 10.626256360772462 0 0 0
295 1 17.383765404446965 21.86241463234493 12.160815932611738 0 0 0
297 1 23.675334376545685 21.839010878396394 12.21937906577305 0 0 0
306 1 2.763461474845243 30.058697850236776 13.632067248709985 0 0 0
259 1 0.1117017759799458 23.628647153983472 10.769184618483266 0 0 0
261 1 4.980466347570877 25.446539038286843 9.132618259155585 0 0 0
260 1 6.522341890943593 23.674518737240483 10.373235385103849 0 0 0
300 1 7.828774029312808 25.211177158616287 12.24612599530197 0 0 0
263 1 11.309789642269129 25.219113677598052 9.127570582303115 0 0 0
253 1 12.54597816067436 23.54622471759776 10.696267758369702 0 0 0
302 1 14.104808375308693 25.405059721480647 12.268418020544141 0 0 0
266 1 17.25059400202699 25.216912233554652 9.13190301010824 0 0 0
265 1 18.73816060098602 23.699588031750302 10.471876220502931 0 0 0
304 1 20.774870446926187 25.26987322217233 12.122271817124032 0 0 0
268 1 3.0516699673419603 26.75694816747943 10.583231319510912 0 0 0
307 1 4.791812274683236 28.505518366693423 11.870312407895515 0 0 0
272 1 9.419921717668183 26.976635087123356 10.698798239661881 0 0 0
309 1 10.926560890845984 28.545428710708755 12.206076688267824 0 0 0
264 1 15.78538951868227 26.79160749370606 10.900184447207444 0 0 0
311 1 17.384692029874245 28.595370412549265 11.904534423596932 0 0 0
318 1 19.037438592555237 29.859996748282313 10.328240302419342 0 0 0
312 1 22.40683589187533 26.98373869755958 10.493148176579561 0 0 0
313 1 23.901085294765068 28.499861769795316 12.274383578737943 0 0 0
283 1 0.09617198936618954 29.93936254386584 10.612173034995932 0 0 0
314 1 1.3995123352606682 0.29181119907762515 11.940170639482613 0 1 0
271 1 6.515691408583557 29.885743684215328 10.562298663103672 0 0 0
315 1 7.799038405771024 31.624926473790374 12.089942510865797 0 0 0
278 1 11.160036538128386 31.72605063282638 9.1326150599068 0 0 0
279 1 12.665735067383357 30.00477662924328 10.622958139608375 0 0 0
280 1 17.14170686884797 31.741636391137753 9.174119582430762 0 0 0
319 1 20.526347756705494 31.69869029726761 12.017648893257952 0 0 0
358 1 1.7396395867655605 2.7662888038635476 15.08941487481557 0 1 0
350 1 6.256827031179127 1.6455667992553715 13.797178174367886 0 1 0
359 1 8.230940308214821 2.7712638708655084 15.334046530135671 0 1 0
324 1 11.148041300487877 2.61231512779675 12.538100476917053 0 1 0
364 1 14.372221345966016 2.7247906558733295 15.404262782089493 0 1 0
363 1 12.674919582473152 1.2047987167664644 14.1547639109562 0 1 0
355 1 18.873715368042802 1.354220257556399 13.638897977027694 0 1 0
325 1 17.5940558965115 3.3431377636031083 12.35661010958116 0 1 0
366 1 20.61520068043633 2.929159400484494 15.069005465704766 0 1 0
30 1 3.167279751124756 4.574182490931152 13.523256115622145 0 0 0
127 1 4.9806172219021425 5.794093295609688 14.975089194865864 0 0 0
85 1 8.115806056829367 6.383378850326105 12.320702040737611 0 0 0
390 1 9.709310151454726 4.371813953650164 13.689434285428229 0 0 0
87 1 13.988302488138611 6.012292865101416 12.373606871902952 0 0 0
184 1 15.79605028325359 4.776627266872874 14.226117233585182 0 0 0
133 1 17.629483605621722 6.700413906876118 15.296554380504977 0 0 0
90 1 20.664440168604465 6.237244842060872 12.337504757514694 0 0 0
28 1 22.11087284593138 4.799906597565472 13.746804680525273 0 0 0
136 1 23.772641135513723 6.543738987763704 15.326339700643542 0 0 0
137 1 1.715595903836311 9.379576216494726 15.390133537579226 0 0 0
128 1 6.484547271180009 7.789349069922382 13.771709359463763 0 0 0
138 1 8.14032798736206 9.005956734685958 15.350356205426907 0 0 0
130 1 12.669351939920116 7.562886526797501 13.952364936936817 0 0 0
141 1 19.183185084447 8.173631527250256 13.649195206007825 0 0 0
303 1 19.185125404572993 26.96039208784741 13.584803566617003 0 0 0
98 1 1.6340899399376894 12.675141715778418 12.434865484274894 0 0 0
100 1 3.176052495297574 11.009538119763109 14.031999045354805 0 0 0
145 1 5.119122686257032 12.411209865279595 15.214743644180931 0 0 0
102 1 9.477421300593052 10.725842243981113 13.852243678307648 0 0 0
146 1 11.213111359059235 12.218138300764869 15.400274810593414 0 0 0
94 1 15.706478696162431 10.918865773131275 13.880332226895394 0 0 0
148 1 17.59765112092669 12.201363256472174 15.364668766577626 0 0 0
143 1 22.18354115393607 11.030337679940295 13.794080184833476 0 0 0
150 1 23.752035431662595 12.384433713988969 15.432744337835292 0 0 0
152 1 1.6275523282687208 15.5463877300125 15.380144671197108 0 0 0
110 1 4.9005674149802525 15.994983278236747 12.84173557840402 0 0 0
109 1 6.703119478376502 14.143756920969217 13.57688761196948 0 0 0
154 1 8.246924476745365 15.866945348244462 15.153973785024572 0 0 0
113 1 11.46433947821915 15.842001338526117 12.379909878994265 0 0 0
156 1 12.834531212773854 14.04989154430734 14.229319730876915 0 0 0
157 1 14.57451829293167 15.653826311070581 15.155619510382246 0 0 0
105 1 19.190834207815367 14.055150338929629 13.977112696292593 0 0 0
158 1 20.755538107561854 15.757217934906604 15.475689634554856 0 0 0
116 1 1.5827363662212695 19.048007524213745 12.470976417577182 0 0 0
117 1 2.97181761047194 17.394147759590837 13.847715329478001 0 0 0
160 1 4.5460434745481555 18.930166788186796 15.298469918753783 0 0 0
120 1 7.703047544932159 19.001221733097154 12.415681883323026 0 0 0
111 1 9.814725941347078 17.784758966298767 13.807713297289107 0 0 0
35 1 12.782238713547331 20.261887042380714 13.98019431952264 0 0 0
122 1 16.465173352707424 17.36627766143439 13.770564004657242 0 0 0
163 1 18.11793034367875 18.955647766317995 15.397476065946543 0 0 0
123 1 20.453672946383755 18.560164992416126 12.28859488762311 0 0 0
124 1 22.447854662758168 17.120239390031685 13.676069129452374 0 0 0
353 1 11.098779739629926 31.67636302063297 15.559123491904192 0 0 0
392 1 6.134405380870743 20.614582251250503 13.992503724266191 0 0 0
293 1 10.91948587767813 21.96550628127995 12.52567317135648 0 0 0
331 1 14.255376637633006 21.95069484686273 15.19569199967383 0 0 0
185 1 19.2915103974041 20.391386334885425 13.645549289953518 0 0 0
334 1 20.54724250744327 22.175102189791303 15.165806127413218 0 0 0
298 1 1.6547711260513012 25.460632771013984 12.394624831856579 0 0 0
299 1 2.972961411770005 23.70853845324317 13.871101210782399 0 0 0
335 1 4.741393088728867 25.367489223376538 15.269350139749179 0 0 0
337 1 9.315906201987984 23.748928951614467 13.808323330025823 0 0 0
338 1 10.769181679217875 25.190063856325054 15.366206462586774 0 0 0
301 1 15.937561942007369 23.667283699992446 13.586730978606555 0 0 0
340 1 17.6720193323108 25.137914431693623 15.227982745133636 0 0 0
329 1 1.6295704244777962 22.34776696896885 15.804924080544406 0 0 0
162 1 11.373699986987685 19.105358489700492 15.815505141385431 0 0 0
1511 1 0.7017967866137227 3.6319285774731243 11.189385480682212 0 1 0
989 1 24.89222001505826 0.16466070357526977 6.091374130566964 0 3 -3
897 1 0.09650503683199024 7.917281436254147 1.1844653040662314 1 3 2
1219 1 0.31204859173679395 13.873654442634386 1.0928389656708017 -1 1 0
1567 1 25.24768436196315 26.84151311796041 13.853338344481863 0 -1 2
910 1 -0.016251088177853035 17.43785626521538 4.390655694742123 0 1 -1
1357 1 0.13259551462425634 20.19695040280706 7.5289817914769 1 -1 -2
1109 1 -0.03137698509146958 14.046842536498124 14.317595793438457 1 0 1
1473 1 25.37335669018848 29.40533421263985 9.70950852540586 0 -4 1
332 1 4.837054599546932 2.5820819786891915 18.34242637735072 0 1 0
391 1 6.550769781544122 4.043793925373593 16.87916238928686 0 0 0
294 1 9.726233950442369 1.391499227421482 17.077431700819098 0 1 0
246 1 12.894758856549686 4.161548094614881 17.216906173448095 0 0 0
291 1 17.74465830185344 2.9427071048193008 18.319668218889163 0 1 0
354 1 15.920553125870928 1.2697694220063314 17.28408394801697 0 1 0
240 1 23.31972466048728 3.1264993516930524 17.939457222316655 0 1 0
544 1 17.81911305083748 15.492908424814702 31.61116919877751 0 0 0
166 1 1.697842885101841 6.188228396246568 18.364759536353027 0 0 0
451 1 25.42066845542167 7.481819446458878 26.41238724764829 -1 0 0
129 1 9.317207478473657 7.209383722876127 16.625205232759555 0 0 0
167 1 8.064044859514231 5.595319533004898 18.579130041707984 0 0 0
727 1 14.563636109889316 25.175513641378785 31.52751591855217 0 0 0
78 1 19.21596401743464 4.55643790995845 16.633994222502714 0 0 0
170 1 20.678335778859484 6.048395206240192 18.34444137395333 0 0 0
126 1 3.535745840540752 7.730542004731883 16.82268295268414 0 0 0
172 1 5.13216133058092 9.287087329997155 18.267900017208177 0 0 0
173 1 10.440253494293858 8.491055547757572 18.65336512435632 0 0 0
177 1 12.390529727412849 10.58463672024894 17.510468071996506 0 0 0
393 1 -0.0011665496430574504 4.432896822719271 16.678608077068937 0 0 0
134 1 15.917861680536062 7.61821088002964 17.16354940112935 0 0 0
691 1 7.82729132166848 27.708495371576717 28.501845523356195 0 0 0
171 1 22.31332083659742 7.8758367521218 17.011361559895278 0 0 0
178 1 23.900146439347846 9.036670500676017 18.570789490346833 0 0 0
180 1 1.7007719521142974 12.409954345564437 18.66642859071282 0 0 0
139 1 6.7277936011758905 10.784946300422666 16.700402554020535 0 0 0
181 1 8.123578665946383 12.328637949507481 18.435385049003365 0 0 0
147 1 15.558975461091936 13.76575726672987 17.105801759034193 0 0 0
149 1 19.15608290560403 10.893738873647914 17.195110175437954 0 0 0
132 1 20.795038537650495 12.730487402995987 18.33333831783912 0 0 0
164 1 0.04679055623582551 16.97752491252787 17.115217997760375 0 0 0
144 1 3.3777346504205474 14.177745840165729 16.979626937968582 0 0 0
179 1 4.872428491912601 15.742677445068736 18.54862713346764 0 0 0
155 1 9.590447753003879 14.07604057908091 16.864930603760982 0 0 0
169 1 11.09877611322421 15.664250395284824 18.4798441134366 0 0 0
182 1 17.555944305948643 15.364747335385802 18.27604092353853 0 0 0
151 1 22.473098441413523 14.230351063005942 16.95699757946884 0 0 0
118 1 1.3930224939007234 18.822505570802278 18.616287557966864 0 0 0
153 1 6.28879335171604 17.28619068260255 16.750213712020262 0 0 0