
# Define the lattice
#
variable	    lattice_constant equal 6.36339
lattice		    diamond ${lattice_constant}
lattice		    diamond 6.36339
Lattice spacing in x,y,z = 6.3633900 6.3633900 6.3633900

# Define region
# multiples of lattice spacing
#
region 		    simbox block 0 4 0 5 0 5

# Create Atoms
#
create_box          1 simbox
Created orthogonal box = (0.0000000 0.0000000 0.0000000) to (25.453560 31.816950 31.816950)
  1 by 2 by 2 MPI processor grid
create_atoms        1 box
Created 800 atoms
  create_atoms CPU = 0.000 seconds
mass                1 18.015

# Define potential
#
pair_style          sw
pair_coeff          * * ML.sw mW
Reading sw potential file ML.sw with DATE: 2019-02-27

# Add velocity/set timestep
#
velocity            all create ${TEMP} 120598 rot yes dist gaussian
velocity            all create 289 120598 rot yes dist gaussian
timestep            5.0

# Define output
#
compute	            1 all msd
thermo              100
thermo_style        custom step temp press vol etotal ke pe c_1[4]

# Neighbor lists
#
neigh_modify        delay 0 every 1 check yes

# Set fixes
#
fix                 1 all momentum 10 linear 1 1 1 rescale
fix                 2 all nve
fix                 3 all temp/csvr ${TEMP} ${TEMP} 500.0 928347
fix                 3 all temp/csvr 289 ${TEMP} 500.0 928347
fix                 3 all temp/csvr 289 289 500.0 928347
fix                 4 all press/berendsen iso ${PRES} ${PRES} 1000.0 modulus 20000
fix                 4 all press/berendsen iso -500 ${PRES} 1000.0 modulus 20000
fix                 4 all press/berendsen iso -500 -500 1000.0 modulus 20000

# Run 0.5 ns equilibration
#
dump		    1 all custom 1000 eq.${NAME}.dump id type x y z vx vy vz
dump		    1 all custom 1000 eq.ice_289K_500atm_ML.dump id type x y z vx vy vz
run                 100000
Neighbor list info ...
  update every 1 steps, delay 0 steps, check yes
  max neighbors/atom: 2000, page size: 100000
  master list distance cutoff = 6.0032907
  ghost atom cutoff = 6.0032907
  binsize = 3.0016454, bins = 9 11 11
  1 neighbor lists, perpetual/occasional/extra = 1 0 0
  (1) pair sw, perpetual
      attributes: full, newton on
      pair build: full/bin/atomonly
      stencil: full/bin/3d
      bin: standard
Per MPI rank memory allocation (min/avg/max) = 4.718 | 4.718 | 4.718 Mbytes
Step Temp Press Volume TotEng KinEng PotEng c_1[4] 
       0          289    -641.2066    25767.105   -9016.0704    688.30183   -9704.3722            0 
     100     196.1001    -369.6067     25735.99   -8742.7891    467.04517   -9209.8343  0.094096891 
     200    208.00895   -473.76017    25780.264   -8611.3672     495.4081   -9106.7753   0.12121992 
     300    241.78056   -529.88943    25821.731   -8465.8512    575.84085   -9041.6921   0.12110867 
     400     261.1917   -618.88009    25847.233   -8412.2246    622.07172   -9034.2964    0.1499805 
     500    250.80635   -680.78105    25871.882   -8370.6405    597.33727   -8967.9778   0.16112499 
     600    291.74812   -357.80552    25888.397   -8280.3294    694.84693   -8975.1763    0.1256728 
     700    289.02888   -322.51892    25896.304   -8260.2549    688.37061   -8948.6256   0.15168225 
     800    299.68868   -465.02969    25918.375   -8238.4121    713.75872   -8952.1708   0.14663435 
     900    272.73746   -646.32618    25904.991   -8240.4333    649.56988   -8890.0032   0.15047833 
    1000    280.36142   -510.40585    25896.582   -8281.1966     667.7276   -8948.9242   0.15899675 
    1100    307.48932    -388.1925    25901.796   -8264.2143    732.33723   -8996.5515   0.13919933 
    1200    308.29307   -423.46288     25900.99   -8256.9332    734.25151   -8991.1847   0.13188064 
    1300    291.07291   -465.86987    25903.435   -8224.4082    693.23881    -8917.647   0.17436851 
    1400    297.93031   -517.01143    25907.019   -8240.8333    709.57086   -8950.4042   0.14289064 
    1500     301.0638   -431.71478    25906.465   -8268.1878     717.0338   -8985.2216   0.12968197 
    1600    294.23305   -509.88387    25920.548    -8255.248    700.76522   -8956.0132   0.15791985 
    1700    312.52721   -475.18624    25918.731     -8261.89    744.33581   -9006.2259   0.12984385 
    1800    298.86234   -428.17377    25910.891   -8233.4649    711.79064   -8945.2556   0.14505808 
    1900    290.09955   -670.36045     25914.78   -8220.5562    690.92059   -8911.4767   0.18360239 
    2000    296.38523   -505.62341     25929.74   -8207.1959      705.891   -8913.0869   0.14354727 
    2100    300.03939   -452.53459    25921.052   -8263.7353    714.59398   -8978.3293   0.13321974 
    2200    292.60866   -505.03995    25916.563   -8249.9673    696.89645   -8946.8638   0.15651756 
    2300    314.07294    -385.4768    25915.607   -8224.5328    748.01724     -8972.55   0.12384454 
    2400    284.50371   -512.36338     25902.31   -8229.1077    677.59316   -8906.7009   0.17072835 
    2500    290.66549   -511.92829    25912.183   -8253.2956    692.26847   -8945.5641   0.16051464 
    2600    289.98677   -475.87393    25916.189   -8238.6249    690.65199   -8929.2769   0.13702502 
    2700    284.26658    -556.1221    25899.977   -8266.6642     677.0284   -8943.6926   0.15809975 
    2800    290.16222   -465.71098    25908.252    -8226.665    691.06984   -8917.7348   0.14984726 
    2900      298.495   -489.18111    25909.278   -8225.5127    710.91577   -8936.4285   0.13482681 
    3000    294.52532   -492.23041    25906.761   -8238.6342    701.46129   -8940.0955    0.1639264 
    3100    288.48504   -498.90504     25920.37   -8232.7029    687.07536   -8919.7783   0.15317773 
    3200    288.26627   -504.96439    25920.489   -8283.1129    686.55433   -8969.6673   0.13146888 
    3300    273.48104   -462.33329    25900.248   -8306.1111    651.34084   -8957.4519   0.15211069 
    3400    279.59141   -565.49832    25919.944   -8271.7637    665.89371   -8937.6574   0.14856238 
    3500    289.39891   -471.86825    25904.464   -8296.3338    689.25191   -8985.5857   0.13341217 
    3600     288.9556   -508.84946    25906.632   -8269.6883    688.19608   -8957.8844   0.16858157 
    3700    293.32976   -495.96989    25911.431   -8261.8441    698.61388    -8960.458   0.14488007 
    3800    298.17367   -479.09806    25899.513   -8223.0474    710.15046   -8933.1978   0.15217949 
    3900    282.02939   -587.68706    25911.095   -8217.7443    671.70014   -8889.4445   0.19620814 
    4000    285.06055   -565.33009    25907.739   -8262.1621    678.91938   -8941.0814   0.15561564 
    4100     294.2797   -416.87906    25897.771   -8268.8635    700.87631   -8969.7398   0.14506946 
    4200    298.66458   -545.27596    25898.339   -8234.2337    711.31965   -8945.5534   0.17154655 
    4300    293.69335   -519.83873    25896.945   -8285.0145    699.47982   -8984.4943   0.13270675 
    4400    302.07443   -505.47018    25880.864   -8243.3736    719.44077   -8962.8143   0.16046162 
    4500    291.17736   -516.74171    25880.955   -8267.1866    693.48757   -8960.6742    0.1690955 
    4600     286.2944   -483.57322    25888.455   -8303.2894    681.85798   -8985.1473   0.13232316 
    4700    295.37691   -438.70694    25893.229   -8253.0752    703.48951   -8956.5647   0.15815705 
    4800    287.81015   -534.31155    25903.516   -8233.8562    685.46799   -8919.3242   0.16421751 
    4900    297.74634   -433.20926    25903.122   -8215.4366    709.13271   -8924.5693   0.13680275 
    5000    287.27987   -470.13989    25895.505   -8243.5904    684.20506   -8927.7954   0.16164719 
    5100    298.26143   -449.33045    25904.688   -8224.4681    710.35948   -8934.8276   0.16494025 
    5200    305.37867   -504.58328    25906.479   -8235.4517    727.31037   -8962.7621   0.14192801 
    5300    289.55767   -495.66833    25881.171   -8276.1455       689.63   -8965.7755   0.16537786 
    5400    291.92085   -495.96798    25887.487   -8288.6789    695.25832   -8983.9372   0.13941433 
    5500    291.76478   -457.87583      25879.2   -8278.7389    694.88661   -8973.6255   0.14090519 
    5600    269.32631   -578.73879    25873.852   -8299.4872    641.44566   -8940.9329    0.1671457 
    5700    293.40726   -401.63645    25883.691   -8277.3866    698.79846   -8976.1851   0.13312914 
    5800    297.11729   -438.66084    25879.669   -8269.9464    707.63451    -8977.581   0.14034203 
    5900     280.4994   -500.46749    25878.733   -8309.5036    668.05623   -8977.5598   0.16647248 
    6000    274.22572   -467.49348    25878.821   -8327.9555    653.11442   -8981.0699   0.13811041 
    6100    288.16814   -403.91279    25881.815   -8297.2522    686.32061   -8983.5728   0.14010861 
    6200    279.61181    -435.2252      25889.2   -8305.3058    665.94228   -8971.2481   0.15073837 
    6300       295.12   -469.33201    25897.127   -8264.5857    702.87763   -8967.4633   0.13033062 
    6400    298.12407   -416.59986    25892.952   -8255.5753    710.03233   -8965.6077   0.14148532 
    6500    282.74963   -500.43348    25881.139   -8291.6757    673.41552   -8965.0912   0.15303817 
    6600    281.94066   -416.44087    25887.995   -8305.9782    671.48882    -8977.467   0.12889508 
    6700    280.70066   -439.20927    25877.606   -8298.4227    668.53557   -8966.9582   0.15785934 
    6800    274.93826    -626.7607    25885.402   -8316.9334    654.81145   -8971.7448   0.15670259 
    6900    279.17736   -542.47696     25896.97   -8286.9147    664.90758   -8951.8223   0.13599447 
    7000    287.05158   -520.03035    25895.442   -8272.4101    683.66135   -8956.0715   0.15234206 
    7100    287.96079   -573.17095    25890.846   -8267.1081    685.82678   -8952.9349   0.15732308 
    7200    291.97982   -573.65423    25889.423   -8282.4698    695.39876   -8977.8686    0.1443617 
    7300    280.95458   -530.58525    25870.985   -8325.8402     669.1403   -8994.9805   0.14866286 
    7400    280.29707   -470.58896    25877.784   -8306.9229    667.57435   -8974.4973   0.14477799 
    7500    282.65138   -487.60469    25888.287   -8281.9852    673.18152   -8955.1667   0.13870112 
    7600    282.59466   -478.46824    25894.581   -8285.8082    673.04644   -8958.8546   0.15375764 
    7700    280.65572   -492.41301    25901.523   -8253.2443    668.42852   -8921.6729   0.14183561 
    7800    282.62452   -421.81305    25886.064   -8284.2365    673.11756   -8957.3541   0.13432909 
    7900    275.83725   -549.13685    25886.044   -8317.1921    656.95254   -8974.1446    0.1545787 
    8000    283.06566    -554.2305    25897.192   -8266.6913     674.1682   -8940.8594   0.14742575 
    8100    305.82243    -524.7701    25899.512   -8256.4992    728.36727   -8984.8665   0.14085239 
    8200    294.28974   -515.77689    25896.267   -8234.6817    700.90023   -8935.5819   0.16194383 
    8300    308.38272   -429.06373    25907.576   -8229.7764    734.46501   -8964.2414   0.13706223 
    8400    306.06272   -498.98686    25900.864   -8195.1743    728.93954   -8924.1138   0.15400408 
    8500    288.18933   -573.00804    25902.112   -8229.5853    686.37108   -8915.9564   0.15913502 
    8600     306.1054   -412.52363    25897.478   -8249.7958    729.04119    -8978.837   0.13057215 
    8700    295.33215   -477.33544    25897.055   -8239.1762    703.38291   -8942.5591   0.15375977 
    8800    279.47464   -579.45935    25902.239   -8278.8822    665.61559   -8944.4978   0.15424866 
    8900    292.95928   -485.26437    25893.992   -8286.7279    697.73152   -8984.4594   0.12530278 
    9000    288.60464   -531.12595    25893.262   -8302.2889    687.36022   -8989.6491   0.13181424 
    9100    293.15447   -519.60249    25900.079    -8278.711    698.19639   -8976.9074   0.14516487 
    9200    292.95806   -467.93778    25899.264   -8252.0999     697.7286   -8949.8285   0.13914554 
    9300    287.18652   -548.46889      25896.7   -8264.7181    683.98272   -8948.7008   0.15583694 
    9400    274.61052   -556.89985    25890.099   -8302.6272    654.03088   -8956.6581    0.1520758 
    9500    291.51307   -553.74763    25891.604   -8291.6329    694.28713     -8985.92    0.1357992 
    9600    277.02603    -491.9004    25886.422   -8301.1902    659.78381    -8960.974   0.14635677 
    9700    277.49401    -528.4472    25894.905    -8277.733    660.89839   -8938.6313   0.14768094 
    9800    293.73241   -430.57714    25906.169   -8255.4983    699.57286   -8955.0711   0.12930828 
    9900    291.15679   -543.97647    25891.499   -8250.0932    693.43858   -8943.5317   0.16153085 
   10000    289.58899   -500.82463    25898.936   -8244.0394    689.70461    -8933.744   0.15600404 
   10100    292.30492   -416.79265    25901.172   -8247.4049    696.17304   -8943.5779   0.13767701 
   10200    285.60179   -423.39817    25896.828   -8221.8804    680.20843   -8902.0888   0.16535018 
   10300    301.89125   -526.47983    25916.365   -8205.5662    719.00449   -8924.5707   0.15501458 
   10400    299.66537   -531.76606    25905.832   -8211.8568     713.7032     -8925.56   0.15368674 
   10500    288.96478   -520.50572     25903.45   -8239.5664    688.21796   -8927.7843   0.16282072 
   10600    286.42805   -541.08689    25899.498   -8285.4181    682.17629   -8967.5944   0.13897198 
   10700    280.82553   -448.30806    25888.669   -8289.9206    668.83296   -8958.7535    0.1450762 
   10800    266.58712   -580.26196    25891.675   -8296.4908     634.9218   -8931.4126   0.16640356 
   10900    269.11179   -532.23973    25887.851   -8332.8216    640.93472   -8973.7563   0.13216946 
   11000    279.76789   -430.10139    25880.119   -8354.8433    666.31402   -9021.1573   0.12372816 
   11100    289.05645   -417.41659    25895.666   -8281.7318    688.43626   -8970.1681   0.13995252 
   11200    289.84235   -445.94529    25895.514   -8277.7603    690.30802   -8968.0683   0.12661354 
   11300    277.07564   -527.22532    25884.742   -8301.5838    659.90197   -8961.4858   0.14148154 
   11400    291.96829   -499.98661    25897.601   -8307.4464    695.37131   -9002.8177   0.13814327 
   11500    295.18723   -416.06036    25899.205   -8274.6246    703.03774   -8977.6623   0.13019953 
   11600    300.49515   -455.60127    25904.244   -8218.9876    715.67944   -8934.6671   0.15632624 
   11700    292.82024   -537.78972    25914.195   -8211.3218    697.40037   -8908.7222   0.15263886 
   11800    301.44069   -497.71857    25919.713   -8189.3322    717.93141   -8907.2636   0.14262659 
   11900    288.08279   -491.04197    25919.493   -8225.2968    686.11733   -8911.4141   0.15169092 
   12000    294.46413   -539.86001     25922.62   -8238.3013    701.31556   -8939.6169   0.14196264 
   12100    301.71447   -587.04209    25913.559   -8220.6116    718.58347    -8939.195   0.14597546 
   12200    296.06665   -463.44668    25904.094   -8242.3271    705.13223   -8947.4593   0.14712727 
   12300    286.58218   -527.15471    25906.849   -8256.7104    682.54339   -8939.2538   0.14322477 
   12400    302.29609   -393.03612    25903.435   -8272.3915    719.96869   -8992.3602   0.13001102 
   12500    290.53344   -497.67385    25898.136   -8255.2764    691.95398   -8947.2304   0.15043682 
   12600    298.50909   -439.12994    25906.602   -8246.9131    710.94932   -8957.8624   0.13223821 
   12700    294.99997   -552.57406    25899.211   -8239.3722    702.59176   -8941.9639   0.15032734 
   12800    285.45965   -554.38087     25903.53   -8270.8552    679.86989   -8950.7251    0.1531041 
   12900    282.67921   -526.88553    25894.922   -8272.3721    673.24782     -8945.62   0.14604915 
   13000    297.92958   -492.31719    25894.524   -8233.1244    709.56912   -8942.6936   0.15030217 
   13100    281.72143   -554.98416     25894.64   -8262.8747     670.9667   -8933.8414   0.15487254 
   13200    284.22892   -548.56204    25891.417   -8295.4446    676.93869   -8972.3833   0.13891225 
   13300    282.87304   -471.83344    25889.951   -8295.8514    673.70945   -8969.5608   0.13589961 
   13400    285.21314   -509.60625    25887.682   -8303.6764    679.28279   -8982.9592   0.14069009 
   13500    277.82908   -455.59053    25891.782   -8286.6627    661.69642   -8948.3591   0.13800008 
   13600    283.17659   -573.43666    25899.042   -8280.4084     674.4324   -8954.8408   0.15231789 
   13700     269.1518   -439.85654    25899.164   -8286.7773    641.03002   -8927.8073   0.14710161 
   13800    276.04532   -513.70838    25901.739   -8274.0354    657.44808   -8931.4834   0.13697908 
   13900    302.01742   -454.12998    25890.397    -8275.213      719.305    -8994.518   0.14208167 
   14000    285.28428   -467.00219    25892.772   -8240.4228    679.45221    -8919.875    0.1533911 
   14100     291.6669   -469.15775    25908.968   -8220.2829    694.65349   -8914.9364   0.14737933 
   14200    297.62045   -609.75923     25893.64   -8260.9453    708.83286   -8969.7782   0.15701417 
   14300    294.83452   -525.18184    25891.283   -8271.2523     702.1977     -8973.45   0.14727562 
   14400    289.92058   -503.11242    25881.364    -8307.092    690.49434   -8997.5863   0.13314512 
   14500    276.48387   -572.78017    25880.535    -8289.347    658.49257   -8947.8396   0.15497765 
   14600    290.03116   -473.52958    25882.623   -8292.9175     690.7577   -8983.6752   0.12984301 
   14700    296.31077   -508.90896     25887.17   -8260.8492    705.71365   -8966.5628    0.1385126 
   14800    297.44613   -454.21062    25895.448   -8228.5477     708.4177   -8936.9654   0.15969066 
   14900     292.2846   -484.60288    25897.297   -8253.8516    696.12465   -8949.9763   0.14041317 
   15000    295.66447   -524.58863    25886.725   -8255.7312    704.17439   -8959.9056   0.14808237 
   15100    288.85896   -517.84609    25899.311   -8276.9631    687.96592    -8964.929   0.14911836 
   15200    277.39963   -505.67702    25885.354   -8280.9181    660.67361   -8941.5917    0.1392483 
   15300    288.83705   -503.56907    25885.912   -8255.9007    687.91374   -8943.8145   0.15578495 
   15400    295.06272   -481.10629     25885.56   -8281.4085     702.7412   -8984.1497   0.14142267 
   15500     283.8409   -484.69509    25882.618   -8290.0104    676.01456    -8966.025   0.13650052 
   15600    289.36839   -466.40605    25886.995   -8228.5988     689.1792    -8917.778   0.16534376 
   15700    289.29605   -446.31804    25888.124   -8219.3779    689.00693   -8908.3848   0.15798373 
   15800    310.27907   -436.65591     25902.52   -8208.1201    738.98149   -8947.1016   0.14463654 
   15900    297.34773   -477.79689    25899.144      -8220.8    708.18335   -8928.9833   0.15914035 
   16000     294.5884    -476.4967    25905.179   -8236.4826    701.61155   -8938.0941   0.14552666 
   16100    286.94367   -498.10917    25891.573   -8263.6287    683.40435    -8947.033   0.14346789 
   16200    288.22971   -480.51125    25902.665   -8223.5809    686.46724   -8910.0481   0.16179054 
   16300    293.34132   -524.30705    25906.772   -8232.2902     698.6414   -8930.9316   0.15325186 
   16400     291.1655   -475.88258    25895.128   -8252.9719    693.45933   -8946.4312   0.14965724 
   16500    286.14169   -517.08232    25893.583   -8266.1267    681.49428   -8947.6209   0.15670894 
   16600    285.24156   -567.85772    25902.401   -8227.9992    679.35047   -8907.3497   0.14846933 
   16700    290.19887   -521.10227    25910.791   -8220.2937    691.15715   -8911.4508   0.15577195 
   16800    290.36676   -501.33395    25904.768   -8242.9837    691.55701   -8934.5408   0.15608689 
   16900    302.90692   -429.59912    25907.052   -8238.3376    721.42349   -8959.7611   0.14199774 
   17000    287.79705   -551.49281     25898.01    -8278.937    685.43681   -8964.3738   0.14579455 
   17100    287.23114   -538.18915    25893.616    -8279.875    684.08899    -8963.964   0.14789586 
   17200    279.48573   -575.68862    25884.251   -8301.1998    665.64201   -8966.8419   0.14451247 
   17300    279.93262    -519.5114    25883.209    -8314.643    666.70635   -8981.3493    0.1402911 
   17400    276.67635   -516.11518    25877.099   -8324.6003    658.95099   -8983.5513   0.14132658 
   17500    274.35201   -440.75373    25874.637    -8300.946    653.41519   -8954.3612   0.13884273 
   17600    275.92647   -437.80038    25876.881   -8270.6141    657.16502   -8927.7791   0.14929994 
   17700    288.49415   -493.41666     25883.19    -8286.257    687.09706   -8973.3541   0.14529329 
   17800    277.59934   -515.86471     25881.63   -8302.3066    661.14925   -8963.4558   0.13530701 
   17900     291.7966   -494.85044    25889.241   -8258.5635    694.96239   -8953.5259    0.1510727 
   18000    296.23114   -518.71135    25894.775   -8267.7754      705.524   -8973.2994    0.1439082 
   18100    298.25255   -455.42363    25892.148   -8243.7396    710.33834   -8954.0779   0.13513914 
   18200    288.37192   -478.28763    25878.326   -8249.7547    686.80594   -8936.5607   0.14921398 
   18300    289.29722   -501.34749    25894.493   -8252.1378    689.00971   -8941.1475   0.14882088 
   18400    290.66633   -463.61332    25901.891   -8247.3684    692.27047   -8939.6389   0.13919956 
   18500    288.53327   -401.38364    25889.722   -8269.2346    687.19023   -8956.4248   0.14644162 
   18600    299.56392   -472.15605    25895.893    -8236.823    713.46158   -8950.2845   0.14690018 
   18700    294.01596    -499.0618    25904.495   -8246.5711    700.24817   -8946.8192    0.1388089 
   18800    280.91102   -546.63711    25903.065   -8271.6858    669.03657   -8940.7224   0.15083344 
   18900    298.50497   -447.32701    25908.863   -8240.4755     710.9395    -8951.415   0.14124413 
   19000    297.01025   -505.78843    25905.279   -8244.9448    707.37957   -8952.3244    0.1426427 
   19100    284.94915   -513.72693    25900.703    -8256.822    678.65406   -8935.4761   0.15213726 
   19200    296.25266   -499.48783    25908.807   -8242.8928    705.57526    -8948.468   0.13995038 
   19300    304.19277   -495.87744     25899.92   -8235.7299    724.48595   -8960.2159   0.14700718 
   19400    305.37047    -483.7985    25907.446   -8210.1273    727.29084   -8937.4181    0.1554212 
   19500    291.78051   -435.46996     25905.08   -8237.5052    694.92409   -8932.4293   0.14454006 
   19600    302.19386   -518.92716    25906.105    -8218.589     719.7252   -8938.3142   0.15532311 
   19700    293.03565   -592.52315    25901.396   -8232.1678     697.9134   -8930.0811   0.15812143 
   19800     300.2466    -455.7501    25904.036   -8235.5176    715.08749   -8950.6051   0.13662182 
   19900    309.38626   -423.17486     25908.85   -8207.7647    736.85512   -8944.6198   0.15093226 
   20000     287.5923   -596.08177    25905.179   -8246.8501    684.94917   -8931.7992   0.15433757 
   20100    291.92319     -456.244    25899.235   -8248.1312     695.2639   -8943.3951   0.14014563 
   20200     298.3834   -459.16788    25901.512    -8248.155    710.64996    -8958.805   0.14073772 
   20300    284.08217   -528.76884    25900.847   -8260.5592     676.5892   -8937.1484   0.14730336 
   20400    294.20874   -494.46193    25904.027   -8227.0656    700.70731   -8927.7729   0.14257063 
   20500    284.21471   -544.00376    25903.493   -8247.3416    676.90485   -8924.2465   0.14998747 
   20600    284.04493   -507.82549    25899.324   -8297.8598    676.50049   -8974.3603   0.13353764 
   20700    278.03641   -513.64063    25892.285   -8318.6072    662.19022   -8980.7974   0.13014937 
   20800    284.97003   -536.63436    25898.682   -8294.5947    678.70378   -8973.2985   0.13959766 
   20900    300.30189   -446.29697    25902.197   -8239.4968    715.21918   -8954.7159   0.13249011 
   21000    289.66144    -522.2958    25908.116   -8266.2144    689.87716   -8956.0916   0.13276784 
   21100    285.28793   -487.28509    25904.966    -8255.619     679.4609     -8935.08   0.14417831 
   21200    283.15165    -514.4345    25918.391   -8257.9574      674.373   -8932.3304   0.13948573 
   21300    304.85382   -496.66342    25914.291   -8229.2637    726.06035    -8955.324   0.13189651 
   21400    301.02203    -491.6944    25914.211    -8248.171     716.9343   -8965.1053    0.1348802 
   21500    300.89799   -508.47155    25914.618   -8226.0125    716.63889   -8942.6514   0.13933142 
   21600    291.94226   -446.50478    25925.505   -8229.7438    695.30931   -8925.0531   0.14041602 
   21700    307.59238   -540.81575    25930.083   -8236.2436    732.58269   -8968.8263   0.13780356 
   21800     293.8949   -452.45307    25920.847    -8282.325    699.95984   -8982.2849   0.12430783 
   21900    289.99943   -540.35228     25920.73   -8276.5659    690.68213    -8967.248   0.13428916 
   22000    280.66569   -564.48282    25914.347   -8277.1265    668.45227   -8945.5787    0.1396446 
   22100     293.0702   -525.58516    25905.144   -8283.4472     697.9957   -8981.4429   0.12681254 
   22200    282.98331   -505.02649    25899.416   -8323.7476    673.97207   -8997.7196   0.12431394 
   22300    277.95052   -488.41963    25890.481   -8336.6158    661.98566   -8998.6015   0.13387607 
   22400    282.08219   -518.08584     25905.25   -8269.8292    671.82592   -8941.6552   0.13433363 
   22500    296.38813     -472.889    25917.185   -8264.1268    705.89789   -8970.0246      0.12472 
   22600    290.38545   -533.64203    25909.129   -8274.1556    691.60152   -8965.7571   0.13681291 
   22700    283.13129   -520.22787    25903.116   -8275.3436    674.32452   -8949.6681   0.13258023 
   22800     290.3902   -507.01686    25905.326   -8282.8013    691.61283   -8974.4142   0.13290785 
   22900    288.44177   -472.58398     25906.71    -8266.942    686.97232   -8953.9143   0.13593557 
   23000    284.98247    -458.3234     25899.66   -8282.2933     678.7334   -8961.0267   0.12586985 
   23100    284.80822   -475.92726    25896.055   -8288.4909    678.31841   -8966.8093   0.13973763 
   23200    288.89333   -533.85188    25908.999   -8277.2532    688.04778    -8965.301    0.1386214 
   23300    297.60007   -511.46768    25913.175   -8249.1829    708.78434   -8957.9672   0.12851427 
   23400    302.13792     -507.165     25909.04   -8229.2048    719.59198   -8948.7967   0.14223072 
   23500    285.44187   -459.65355    25907.318   -8235.4054    679.82754   -8915.2329   0.14440297 
   23600    304.00108   -456.58938    25922.735   -8201.6287     724.0294   -8925.6581   0.13857616 
   23700    292.36478   -509.80864    25927.922   -8225.1581    696.31561   -8921.4737   0.14958382 
   23800    291.48367   -576.57874    25932.792   -8224.9743    694.21709   -8919.1914   0.15088512 
   23900    287.78122   -508.05443     25918.86   -8266.1014    685.39911   -8951.5005   0.14020584 
   24000    283.61462   -471.34121     25913.65   -8252.5333    675.47565    -8928.009   0.14805655 
   24100    286.07486   -476.53113    25926.656   -8229.7251    681.33512   -8911.0603    0.1354686 
   24200    301.34333   -491.67816    25925.794   -8211.8432    717.69954   -8929.5427    0.1433407 
   24300    285.88295   -545.67231    25919.363   -8276.3899    680.87805    -8957.268   0.14165202 
   24400    291.96955   -460.22546     25917.37    -8278.611    695.37431   -8973.9853   0.12643617 
   24500    290.12592    -551.8489    25910.895   -8266.1597    690.98339   -8957.1431   0.13604002 
   24600    280.52875   -473.41804    25900.373   -8302.0096    668.12612   -8970.1358    0.1347112 
   24700    275.07376   -564.28251    25897.071   -8317.4843    655.13416   -8972.6185   0.13130192 
   24800    280.72746   -485.90547    25901.903   -8295.0105    668.59939   -8963.6099   0.13146367 
   24900    288.86071   -530.48309    25900.272   -8287.1504    687.97009   -8975.1205   0.13582768 
   25000    289.02406   -493.25966    25894.219   -8316.2141    688.35914   -9004.5732   0.12409353 
   25100    273.56436   -495.02245    25876.121   -8315.2108    651.53926   -8966.7501   0.13973341 
   25200    280.92808    -511.4097    25885.205    -8333.418     669.0772   -9002.4952   0.13697674 
   25300    274.53469   -498.80012    25878.754    -8339.978    653.85028   -8993.8283   0.12857217 
   25400     283.0655   -585.88636    25884.891   -8289.9994    674.16783   -8964.1673   0.14226256 
   25500    280.66206   -479.18841    25897.313   -8285.1261    668.44364   -8953.5697   0.13958837 
   25600    275.10509   -467.64633    25904.376   -8288.2906    655.20878   -8943.4994   0.12980711 
   25700    298.36226   -494.79346     25913.99   -8254.0779    710.59962   -8964.6775   0.13979044 
   25800    290.97388   -499.13927    25904.221   -8278.8963    693.00297   -8971.8993   0.13267048 
   25900    297.49547   -490.38188     25922.43    -8218.591    708.53522   -8927.1262   0.13636357 
   26000    298.76541    -510.9624    25927.743   -8245.1695    711.55977   -8956.7292   0.13904486 
   26100    291.21483    -518.0836    25909.791   -8255.4798    693.57683   -8949.0567   0.13821375 
   26200    290.43242   -502.33736    25913.477   -8256.5088    691.71337   -8948.2222   0.12803625 
   26300    288.88952   -503.90694    25903.474     -8284.73    688.03869   -8972.7686   0.13600705 
   26400    297.24234   -431.03736    25899.656   -8296.7224    707.93233   -9004.6547    0.1260569 
   26500    296.22834   -448.87091     25896.56   -8271.3134    705.51732   -8976.8307   0.13187028 
   26600    294.35716    -506.6133    25905.349   -8264.7508     701.0608   -8965.8116   0.14401823 
   26700    271.84477   -536.24449    25933.318   -8250.9123    647.44379   -8898.3561   0.14827076 
   26800    296.89042   -573.73083    25912.232   -8242.9157    707.09417   -8950.0099   0.14368747 
   26900    284.34643   -577.60826     25903.91   -8256.6573    677.21858   -8933.8759   0.15295413 
   27000    311.26804   -496.95505    25916.767   -8219.5607    741.33688   -8960.8976   0.13614766 
   27100     298.0651   -538.23124    25910.982   -8237.9801    709.89188   -8947.8719   0.13957673 
   27200    293.49455    -503.7997    25910.133   -8234.1918    699.00634   -8933.1981   0.15248921 
   27300    293.67272    -525.8003    25904.143   -8232.5662     699.4307   -8931.9969   0.14472181 
   27400    306.93252    -453.9185    25918.575    -8215.401    731.01112   -8946.4121   0.14054306 
   27500    290.88159   -540.23228    25920.112   -8246.0122    692.78315   -8938.7953   0.14590621 
   27600    286.01734   -526.53672    25908.934   -8286.2423    681.19813   -8967.4404   0.12766263 
   27700    293.01126   -430.56223    25901.212    -8274.799    697.85533   -8972.6543   0.12939697 
   27800    289.55086   -410.48992    25920.781   -8235.3233     689.6138    -8924.937   0.13701307 
   27900    290.50158   -434.09297    25915.184   -8268.8047     691.8781   -8960.6828   0.12585054 
   28000    293.29225   -428.07289    25895.181   -8268.4803    698.52455   -8967.0049   0.14230261 
   28100     284.3954    -509.6001    25904.557    -8292.785    677.33521   -8970.1202   0.13912926 
   28200    291.47113   -557.07778    25905.564   -8269.2717    694.18724    -8963.459   0.13621363 
   28300    288.60804   -594.40386    25895.125   -8276.9834    687.36832   -8964.3517   0.14832401 
   28400    293.57376   -454.72378    25899.676   -8270.8109    699.19501   -8970.0059   0.13540367 
   28500    284.15179   -554.23682    25896.364   -8274.2872    676.75501   -8951.0422   0.14375672 
   28600    281.72228   -557.92408    25893.666   -8288.6236    670.96873   -8959.5923   0.14792224 
   28700    286.51058   -466.46445     25887.67   -8286.1777    682.37287   -8968.5506   0.13955717 
   28800    278.92435   -486.38567    25889.409   -8292.7413    664.30499   -8957.0463   0.14304451 
   28900     278.0395   -542.70206    25892.435   -8297.5469    662.19757   -8959.7445   0.14564507 
   29000    288.58981   -496.53622    25884.588   -8282.7832     687.3249   -8970.1081    0.1369723 
   29100    285.29437   -553.24545    25884.872   -8262.1416    679.47626   -8941.6178   0.14984683 
   29200      310.859   -460.93299    25898.182   -8250.0337    740.36269   -8990.3964    0.1406292 
   29300    292.45713   -475.44851    25904.373   -8253.3126    696.53556   -8949.8481   0.13825212 
   29400     301.0406   -471.28919    25888.158   -8251.7203    716.97853   -8968.6989   0.14339834 
   29500    297.39078   -576.94579    25902.532   -8238.9017    708.28587   -8947.1876   0.14967539 
   29600    285.96139   -538.72921    25899.605   -8276.7576    681.06488   -8957.8225   0.13630344 
   29700    302.60071   -466.51871    25910.883   -8232.7035     720.6942   -8953.3977    0.1403975 
   29800    281.15545   -457.61932    25905.595   -8279.7708    669.61873   -8949.3895   0.13050076 
   29900    279.89922   -478.29203    25899.799   -8288.3302     666.6268    -8954.957   0.13094722 
   30000    268.17291   -584.61902    25896.151    -8299.835    638.69864   -8938.5336   0.14311084 
   30100    267.00834   -541.36845    25882.044   -8328.1811    635.92502   -8964.1061   0.14214014 
   30200    275.72882   -570.91753    25886.482   -8314.3869     656.6943   -8971.0812   0.14075858 
   30300     287.2714    -515.2346    25879.853   -8294.4718    684.18488   -8978.6566   0.15142193 
   30400     286.2741    -433.8852    25889.062   -8268.3148    681.80964   -8950.1244   0.13793592 
   30500    267.41942    -538.7863     25879.53   -8344.2811    636.90406   -8981.1852   0.13495354 
   30600    286.24449   -360.39023    25876.594   -8337.7979    681.73912    -9019.537   0.12529713 
   30700    287.60597   -524.74916    25881.708   -8296.2798    684.98172   -8981.2615   0.13604946 
   30800    282.63383   -476.09693    25876.547   -8301.8782    673.13973   -8975.0179   0.13749093 
   30900    274.05288   -506.84749    25889.323   -8277.0244    652.70276   -8929.7272   0.15532669 
   31000    299.95176   -514.70688    25903.923   -8257.4105    714.38527   -8971.7958   0.14219569 
   31100    300.60208   -419.34682    25904.972    -8243.706    715.93413   -8959.6402   0.14119767 
   31200      298.718   -373.78217    25906.496   -8244.0602    711.44687   -8955.5071   0.13900548 
   31300    301.54236    -510.4997    25910.163   -8230.9448    718.17355   -8949.1183   0.14269782 
   31400    302.33216   -482.14391    25898.849   -8218.6663    720.05459   -8938.7208   0.15357269 
   31500    287.42655   -534.58188    25900.053   -8255.9505     684.5544   -8940.5049   0.15588868 
   31600    292.59456   -421.53016    25902.108   -8233.4871    696.86287     -8930.35   0.14984413 
   31700    298.37626   -565.09158    25897.748   -8251.5517    710.63295   -8962.1847   0.15293918 
   31800    295.06857   -449.59978    25898.407   -8232.8748    702.75515   -8935.6299   0.15662572 
   31900    294.25265   -518.83608    25898.756   -8251.3975    700.81189   -8952.2094   0.14047629 
   32000     286.2767   -505.30355    25887.547   -8265.3786    681.81583   -8947.1945   0.14650967 
   32100    288.77428   -536.81497    25896.541   -8271.5316    687.76424   -8959.2959   0.14637127 
   32200    294.46555   -499.55417    25883.289   -8284.8096    701.31895   -8986.1285   0.14194038 
   32300    275.18526   -541.56057    25870.761   -8305.8341    655.39972   -8961.2338   0.14788043 
   32400    293.81019   -511.16112    25879.087   -8273.7881     699.7581   -8973.5462   0.15073326 
   32500    279.14716   -484.04092    25882.527   -8316.4227    664.83563   -8981.2583   0.13186684 
   32600    286.50166   -474.74929    25893.855   -8265.1009    682.35162   -8947.4526   0.14692945 
   32700    297.13706   -462.33378    25898.817   -8253.6615     707.6816   -8961.3431   0.13289619 
   32800    283.39523   -560.08498    25896.938   -8275.6567    674.95313   -8950.6099   0.14123493 
   32900    290.86918   -521.95002    25900.701   -8245.9936     692.7536   -8938.7472   0.15000369 
   33000    289.35563   -470.22876    25908.589   -8268.4952    689.14882   -8957.6441   0.14065796 
   33100     288.5315   -566.55418    25906.018   -8286.0403    687.18602   -8973.2263   0.13337364 
   33200    287.86197   -532.45233    25900.519   -8277.0343    685.59142   -8962.6257   0.14296711 
   33300    284.14843   -551.59508     25891.75   -8291.2024    676.74701   -8967.9494   0.13851083 
   33400    288.47051   -540.04696    25893.136   -8270.8666    687.04076   -8957.9074   0.13872492 
   33500    278.12399   -495.55265    25890.409   -8298.7538     662.3988   -8961.1526   0.14468039 
   33600    284.45797   -504.42037    25893.171   -8274.7855    677.48423   -8952.2697   0.14487246 
   33700    276.47753   -552.09926    25890.934   -8282.5095    658.47747    -8940.987   0.14862972 
   33800    287.26213   -421.19376    25896.872    -8273.768    684.16279   -8957.9308   0.13986116 
   33900    292.25558   -499.21696    25915.763   -8243.2428    696.05553   -8939.2983   0.14139764 
   34000    292.04643   -393.72479    25918.376   -8253.7132    695.55741   -8949.2706   0.13111157 
   34100    274.05016    -514.7921    25907.315   -8287.7683    652.69628   -8940.4645   0.13813179 
   34200    283.79892   -517.67047    25912.834   -8282.4942    675.91459   -8958.4088   0.12991256 
   34300    281.73273   -546.00469     25917.26   -8270.8543    670.99362   -8941.8479   0.14252751 
   34400    282.31951   -427.54577    25914.514   -8301.8622    672.39112   -8974.2533   0.12952194 
   34500    282.03762   -511.88869    25920.245   -8290.1155    671.71975   -8961.8352   0.12776474 
   34600    305.14938   -439.78929    25929.131   -8216.3104    726.76428   -8943.0747   0.13627485 
   34700    293.33912   -470.91164    25929.645   -8252.4037    698.63617   -8951.0398   0.13181746 
   34800    295.35668   -410.72319    25916.919   -8276.3209    703.44133   -8979.7622   0.12203177 
   34900    304.14807   -466.12885    25920.061    -8265.009    724.37949   -8989.3885   0.13488169 
   35000    289.14304   -465.86728    25919.687   -8259.7287    688.64251   -8948.3712   0.14467445 
   35100    285.24762   -564.26666    25916.227   -8247.6986     679.3649   -8927.0635   0.14760812 
   35200    288.22367   -572.71162    25910.482   -8271.1446    686.45287   -8957.5975   0.14264418 
   35300    284.25951   -457.66267    25910.101   -8271.4263    677.01157   -8948.4378    0.1376073 
   35400    285.91328   -498.64221    25903.022   -8270.4016    680.95029   -8951.3518   0.13890369 
   35500    303.00082   -435.08455    25900.093   -8269.3596    721.64712   -8991.0068   0.13596907 
   35600    294.44766   -469.33434    25915.115   -8260.0903    701.27635   -8961.3667   0.13725057 
   35700     294.3943   -438.33794    25918.683   -8254.5156    701.14925   -8955.6649   0.13525499 
   35800     299.7415   -492.32577    25919.475   -8222.2245     713.8845    -8936.109    0.1538349 
   35900     302.9283   -574.68333    25926.841    -8206.996     721.4744   -8928.4704   0.14430228 
   36000    289.59913   -442.61399    25912.742   -8256.9233    689.72875    -8946.652    0.1348185 
   36100    284.57271   -443.58415    25918.021   -8253.0245     677.7575    -8930.782   0.14674413 
   36200    296.38557   -490.00861     25918.24   -8250.8347    705.89179   -8956.7265   0.13449276 
   36300    275.55473   -515.74289    25913.409    -8308.185    656.27966   -8964.4646    0.1334144 
   36400    292.59002   -482.11534    25911.263   -8293.2052    696.85207   -8990.0573   0.13783732 
   36500    294.92542   -497.57728    25910.204   -8263.0107     702.4142   -8965.4249    0.1367374 
   36600    292.47943   -482.85462     25909.18   -8259.2746    696.58868   -8955.8632   0.14153124 
   36700    292.64382   -525.39716    25909.702   -8244.6913     696.9802   -8941.6715   0.14331304 
   36800    282.50032    -570.6655    25899.405   -8289.4541    672.82175   -8962.2759   0.12968002 
   36900    277.56881   -503.33981    25889.262   -8292.3139    661.07654   -8953.3905    0.1428448 
   37000    286.14531   -442.16213     25891.46   -8294.9858    681.50291   -8976.4887   0.13431285 
   37100    278.29419   -455.96381    25897.799    -8285.456    662.80415   -8948.2601   0.13598956 
   37200    283.19192   -560.44125    25899.363   -8269.9225    674.46892   -8944.3914   0.14842257 
   37300     285.2315   -510.93005    25899.005    -8297.863    679.32651   -8977.1895   0.13938499 
   37400    292.58479   -449.27579    25901.882    -8281.279    696.83961   -8978.1186   0.12849304 
   37500    281.19461   -496.91575     25901.61   -8275.7099    669.71199   -8945.4218   0.14019994 
   37600     268.8846   -606.20932    25904.215   -8293.8202    640.39363   -8934.2138   0.14348279 
   37700    282.14501   -545.27983    25890.556   -8297.4635    671.97553    -8969.439    0.1391073 
   37800    268.32936   -466.93937     25883.04   -8329.3428    639.07125    -8968.414   0.13881711 
   37900    276.16285   -559.14194     25888.96   -8326.0013      657.728   -8983.7293   0.13829119 
   38000    290.87456   -452.92962    25892.228   -8262.4401    692.76642   -8955.2065   0.13760923 
   38100    287.60299   -432.19919    25900.146   -8266.4714    684.97463    -8951.446   0.14152029 
   38200    298.03191   -449.27447    25907.371   -8246.4078    709.81284   -8956.2206   0.14143357 
   38300    292.81243   -455.04648    25901.327    -8231.274    697.38178   -8928.6557   0.14094419 
   38400    284.69215   -516.04982    25897.231   -8255.0135    678.04197   -8933.0554   0.15332573 
   38500     293.5567   -570.19343    25900.374   -8252.8905    699.15437   -8952.0449    0.1482536 
   38600    281.56839   -464.29043    25907.073   -8258.0833    670.60221   -8928.6855   0.14056227 
   38700    294.08192   -499.53737    25908.869    -8237.015    700.40528   -8937.4203   0.14641884 
   38800    295.16726   -458.68568     25916.65   -8249.3612    702.99018   -8952.3514   0.13419673 
   38900    291.70227   -484.62328    25907.511   -8254.1528    694.73773   -8948.8906   0.13215465 
   39000    288.80005    -528.7741    25910.299   -8245.4261     687.8256   -8933.2518   0.14620702 
   39100    293.25518   -529.07156    25908.592   -8268.8077    698.43626    -8967.244   0.13327681 
   39200    288.24132   -475.04396    25902.786   -8266.3661     686.4949    -8952.861   0.13328122 
   39300    281.01853   -554.21456    25887.419   -8338.8726    669.29262   -9008.1653   0.13465452 
   39400    270.53576    -486.7449    25891.989   -8312.0521    644.32616   -8956.3782   0.13184852 
   39500    278.44717   -430.57363    25903.944   -8292.7091     663.1685   -8955.8776   0.13350559 
   39600     287.5796   -476.03966    25913.661   -8267.7547     684.9189   -8952.6736   0.13953583 
   39700    299.78227   -596.12359    25923.238   -8256.3455    713.98161   -8970.3271   0.13003888 
   39800     285.7873   -552.28247    25919.967   -8267.7341    680.65024   -8948.3843   0.13350789 
   39900    295.83235   -503.90129    25917.249    -8283.237     704.5742   -8987.8112   0.13026716 
   40000     289.2571   -551.52295    25921.727   -8259.0312    688.91417   -8947.9454   0.13788977 
   40100    284.17054   -523.37719    25916.005   -8276.4457    676.79966   -8953.2454   0.14103164 
   40200    293.58539   -519.11017    25920.876   -8277.5533     699.2227    -8976.776   0.13458175 
   40300    276.73023   -495.35383     25915.93   -8278.4583    659.07932   -8937.5376   0.13209724 
   40400    266.76775   -451.24509    25910.317   -8288.6645    635.35201   -8924.0165   0.13933301 
   40500     274.6686   -574.06656    25914.023   -8288.8382    654.16921   -8943.0074   0.13893717 
   40600     292.7935    -436.6778    25920.472   -8231.0751    697.33667   -8928.4118   0.13901206 
   40700    286.46765   -561.59681    25912.371   -8294.3664     682.2706    -8976.637   0.13135853 
   40800     283.1276   -469.59212    25909.418   -8294.7574    674.31572   -8969.0731   0.13022973 
   40900    299.10584   -552.59088    25917.695   -8261.6074    712.37058    -8973.978   0.13450555 
   41000    279.70245   -527.93211    25916.942    -8248.853    666.15817   -8915.0112   0.14293575 
   41100    269.37414   -493.73097    25908.127   -8322.9533    641.55956   -8964.5129   0.12604685 
   41200    291.19179   -394.07439    25905.632   -8278.8734    693.52195   -8972.3954   0.12351652 
   41300     292.7158   -538.21786    25915.246   -8251.8474    697.15162    -8948.999   0.13663657 
   41400    281.08413   -568.69958    25901.777   -8269.2824    669.44886   -8938.7312   0.14017038 
   41500    277.30401   -497.30748    25903.278   -8282.9602    660.44588   -8943.4061   0.13659702 
   41600    290.36492   -379.32169    25895.301   -8254.2427    691.55262   -8945.7953   0.13737867 
   41700    281.22299   -540.47278    25900.808    -8281.343    669.77958   -8951.1225   0.14027802 
   41800    289.65584    -431.7415    25900.591   -8290.0195    689.86382   -8979.8833   0.12695635 
   41900    280.09531   -525.28292    25900.811   -8280.5846    667.09383   -8947.6785   0.13178255 
   42000    282.07857    -464.8898    25892.917   -8295.6037     671.8173    -8967.421   0.12942499 
   42100    286.74369   -522.69942    25894.162   -8303.8191    682.92804   -8986.7472   0.13695484 
   42200    286.40016   -430.71685    25884.787   -8318.7839    682.10987   -9000.8937   0.13300997 
   42300    284.89352   -456.89945    25903.517   -8299.1198    678.52156   -8977.6413   0.12907102 
   42400    293.15011   -515.26378    25911.422   -8277.6072      698.186   -8975.7932   0.12663417 
   42500    291.54257    -469.5552    25907.706   -8280.5599    694.35739   -8974.9173   0.12601187 
   42600    280.88292    -459.2438    25899.914   -8285.0989    668.96965   -8954.0685   0.12846528 
   42700    288.57101    -471.9675    25897.756   -8274.4188    687.28013   -8961.6989   0.13211937 
   42800    277.04642   -537.76429    25891.423   -8319.2678    659.83237   -8979.1001   0.13821097 
   42900    281.18001   -463.18351    25892.695   -8286.1361     669.6772   -8955.8133    0.1437649 
   43000    275.93206   -612.31891    25899.613    -8303.668    657.17835   -8960.8463   0.14010354 
   43100    283.11252   -569.56055    25904.887   -8292.1483    674.27982   -8966.4281   0.13302606 
   43200    285.67151   -438.84341     25910.02   -8280.5783    680.37448   -8960.9528   0.12915491 
   43300    279.20821   -569.29726     25914.08   -8287.0178    664.98104   -8951.9988   0.13684517 
   43400    288.18694   -441.31165    25913.316   -8257.9976    686.36539    -8944.363    0.1390158 
   43500    303.26311    -413.2984    25923.133   -8236.6504    722.27181   -8958.9222   0.13136103 
   43600    282.62374   -598.91644    25928.581   -8262.9286     673.1157   -8936.0443   0.13822684 
   43700    273.60944   -583.38818     25918.38    -8284.706    651.64665   -8936.3527   0.13938254 
   43800     284.7498   -593.35187    25922.828   -8285.0144    678.17926   -8963.1936   0.13240458 
   43900    287.95057   -471.32504    25922.106    -8315.664    685.80244   -9001.4664   0.11886285 
   44000    276.68422    -442.5941    25916.618   -8315.9157    658.96974   -8974.8854    0.1241163 
   44100    278.30657   -499.65999    25905.837   -8342.4403    662.83365    -9005.274   0.12442542 
   44200    274.08506   -553.13626    25911.462   -8296.4929    652.77941   -8949.2723   0.13509505 
   44300     267.7116   -539.79995    25909.651   -8305.8678    637.59995   -8943.4677   0.13775195 
   44400    285.12878   -551.34763    25915.946   -8305.9072    679.08186   -8984.9891   0.13085191 
   44500    283.74894   -505.84362    25901.504   -8298.5308    675.79555   -8974.3263   0.12957043 
   44600    282.86533   -429.77099    25902.581   -8313.3111    673.69109   -8987.0022    0.1215879 
   44700    287.92293   -473.63049    25898.789   -8305.2898     685.7366   -8991.0264   0.12361587 
   44800    280.71271   -405.86541    25892.562   -8287.1582    668.56426   -8955.7225   0.13182822 
   44900    292.63317   -519.56979    25906.633   -8259.6323    696.95482   -8956.5871   0.14252213 
   45000    288.71004   -530.00374    25912.826   -8275.2409    687.61124   -8962.8521    0.1417595 
   45100    289.41335   -478.19127     25909.29   -8264.0129     689.2863   -8953.2992   0.13813653 
   45200     290.4797   -548.47531    25915.072   -8246.9545    691.82597   -8938.7804   0.14003131 
   45300    300.05039   -477.66944    25915.505   -8240.0135    714.62018   -8954.6337   0.13891303 
   45400    280.48485   -528.15401    25909.256   -8275.7407    668.02158   -8943.7623   0.14108203 
   45500    297.30217   -512.10482    25914.145   -8230.1164    708.07484   -8938.1913   0.14809364 
   45600    300.48494   -420.24076    25913.181   -8234.0844    715.65513   -8949.7395   0.13749645 
   45700    294.32461   -517.52642    25918.802   -8253.8558    700.98328   -8954.8391   0.13850525 
   45800    281.62689    -497.8548    25909.781   -8258.5924    670.74153    -8929.334   0.14347192 
   45900    295.10066   -429.66926    25915.741    -8230.077    702.83158   -8932.9086   0.13425403 
   46000    308.49461   -424.60017    25917.375   -8202.8113    734.73151   -8937.5429   0.13862778 
   46100    314.33738   -467.84434    25912.645   -8210.5559    748.64704    -8959.203   0.13882183 
   46200    307.43396   -461.75626    25912.083   -8219.4729     732.2054   -8951.6783   0.13625601 
   46300    292.16832   -548.40907    25909.504   -8227.3254    695.84771   -8923.1731   0.15251499 
   46400    294.09195   -502.69938    25909.529   -8249.9573    700.42916   -8950.3864    0.1428307 
   46500    295.10271   -483.77195     25912.57   -8243.7487    702.83646   -8946.5852   0.14126353 
   46600    294.19629   -525.46636    25916.522   -8257.9349    700.67767   -8958.6126   0.14556052 
   46700    298.84624    -567.5622    25913.532   -8240.2812     711.7523   -8952.0335   0.13905101 
   46800    298.01603   -484.79602    25910.848    -8228.592    709.77502    -8938.367    0.1402661 
   46900    281.29709   -455.92442    25903.424   -8266.6273    669.95605   -8936.5834   0.14095633 
   47000    309.82265   -529.10209    25914.253   -8233.9124    737.89446   -8971.8068   0.13641267 
   47100    302.50623   -513.28924    25898.386   -8257.1111    720.46917   -8977.5803   0.13515321 
   47200    272.99837   -613.07432    25901.195   -8285.1318    650.19126   -8935.3231   0.14381511 
   47300    284.77541   -461.70245    25906.377   -8259.7979    678.24026   -8938.0382   0.13587588 
   47400    287.14653   -421.80868     25901.31   -8281.8288    683.88749   -8965.7163    0.1271936 
   47500    289.46961   -497.35343    25893.801   -8295.0489    689.42028   -8984.4692   0.13241206 
   47600    287.97328   -454.39543    25898.405   -8270.7349    685.85651   -8956.5914   0.13533397 
   47700    286.88075   -569.52295    25890.979   -8269.3917    683.25447   -8952.6462   0.14723559 
   47800     277.9659   -593.25613    25912.593   -8259.6105    662.02228   -8921.6328   0.14633766 
   47900    292.13418   -500.59577    25898.412   -8268.0659    695.76641   -8963.8323   0.13309152 
   48000    296.38243   -519.03797    25902.092   -8274.6041    705.88433   -8980.4885   0.13770999 
   48100    280.11579   -479.74512     25894.32   -8302.2045    667.14261   -8969.3471   0.13665583 
   48200    272.56727   -513.87096    25896.457   -8294.2573    649.16453   -8943.4218   0.13509651 
   48300    284.27828   -501.71517    25903.001   -8271.1018    677.05627   -8948.1581   0.14006807 
   48400     296.1222   -378.04962    25903.477   -8251.4156    705.26454   -8956.6801   0.13768507 
   48500    288.02494   -486.42396    25906.723   -8276.3439    685.97957   -8962.3235   0.13760838 
   48600    280.94356   -492.91709    25893.908   -8315.3574    669.11406   -8984.4715   0.13658888 
   48700    283.51164   -527.64534    25890.775   -8298.8415    675.23037   -8974.0719   0.13619504 
   48800    271.54199   -531.51642    25892.095   -8318.2918    646.72265   -8965.0145   0.13720663 
   48900    289.64555   -382.21766    25895.004   -8293.0175    689.83932   -8982.8569   0.13593139 
   49000    276.43887   -526.30886    25896.501   -8304.3322     658.3854   -8962.7176   0.13769946 
   49100    291.18141   -504.92014    25903.261   -8262.4382    693.49722   -8955.9354   0.14213432 
   49200    300.44329   -478.10517    25908.565   -8252.5671    715.55593    -8968.123   0.14145396 
   49300    291.04124   -478.77328    25911.176   -8266.3598    693.16339   -8959.5232   0.13357875 
   49400    293.93765   -488.98887    25915.494   -8275.5435    700.06166   -8975.6052   0.13209812 
   49500    289.63787   -500.24352    25911.689   -8277.1259    689.82102    -8966.947   0.13959024 
   49600    284.10516    -514.1945    25921.777   -8282.1755    676.64396   -8958.8195   0.13228399 
   49700    288.57967   -539.42428    25919.922   -8259.1454    687.30073   -8946.4462   0.13883485 
   49800    282.41039   -571.97839    25918.423   -8288.8318    672.60757   -8961.4393   0.14500686 
   49900    283.18528   -512.97998    25913.526   -8299.3989    674.45311    -8973.852    0.1361251 
   50000    284.40005   -512.33206    25911.182   -8274.9035    677.34627   -8952.2498   0.14025001 
   50100    284.68731   -529.94872    25913.326   -8254.4298    678.03043   -8932.4602   0.14656665 
   50200    293.98869   -490.78357    25918.991   -8247.8708    700.18322    -8948.054   0.13791045 
   50300    300.21083   -409.04104    25910.565   -8243.7429    715.00229   -8958.7452   0.14356702 
   50400    289.97058   -496.97693    25911.513   -8283.4908    690.61343   -8974.1042   0.13633648 
   50500     291.5432   -510.44771    25902.058   -8279.9473    694.35889   -8974.3062   0.13811539 
   50600    288.61976   -444.42351    25904.342    -8258.174    687.39622   -8945.5702   0.14343891 
   50700     290.8047   -447.72227    25910.134   -8261.1086    692.60001   -8953.7086   0.13509822 
   50800    268.71194   -575.34665    25884.854   -8332.4983    639.98242   -8972.4808   0.13467015 
   50900     273.6389   -534.05301    25889.358   -8330.9132    651.71681     -8982.63   0.13969793 
   51000    269.96221    -433.3036    25884.592   -8301.7808    642.96014    -8944.741   0.13937868 
   51100    272.02379   -470.25126     25886.22    -8293.757    647.87016   -8941.6272   0.14248921 
   51200    286.88087   -471.21449    25890.359   -8317.7903    683.25477   -9001.0451   0.13917353 
   51300    270.57062   -513.02446    25888.642   -8331.0934    644.40918   -8975.5025   0.13791642 
   51400    282.80365   -471.53704    25886.899    -8310.999    673.54418   -8984.5432   0.13220398 
   51500    281.77078   -427.93936     25890.45   -8311.6337    671.08423    -8982.718   0.13053911 
   51600    282.70159   -453.68011    25885.867   -8316.7972    673.30112   -8990.0983   0.12373292 
   51700    285.33432   -469.12573     25898.46   -8280.5777    679.57139    -8960.149    0.1372311 
   51800    297.66202   -467.63969    25902.931   -8242.0299    708.93188   -8950.9618   0.14148929 
   51900    280.87086    -479.1956    25904.776   -8272.5518    668.94092   -8941.4927   0.14094356 
   52000    278.26923   -465.55784    25896.011   -8304.8832     662.7447   -8967.6279   0.13749785 
   52100    267.14257   -564.38387    25888.179   -8297.0063     636.2447    -8933.251   0.14571006 
   52200    282.33468    -527.5701    25887.569   -8323.4194    672.42727   -8995.8466   0.12866548 
   52300    273.50423   -598.30993    25872.276   -8334.2106    651.39606   -8985.6066   0.13962522 
   52400    279.20697   -522.52692    25866.818   -8343.6228    664.97809   -9008.6009   0.13346683 
   52500    267.83339   -466.74244    25869.039   -8341.9604    637.89001   -8979.8504   0.13114934 
   52600    286.83722     -408.046    25875.965   -8272.0954    683.15081   -8955.2462   0.14687903 
   52700    282.03638   -542.07901     25885.99   -8284.0837     671.7168   -8955.8005    0.1455084 
   52800    296.19368   -481.10913    25885.084   -8227.3036    705.43477   -8932.7383   0.14688838 
   52900    297.87074   -495.42438    25894.424   -8229.5052    709.42898   -8938.9342   0.15084977 
   53000    298.46986   -476.12701    25896.273   -8227.1438    710.85589   -8937.9997   0.14175333 
   53100    290.79199   -581.91278    25888.286   -8281.1512    692.56975   -8973.7209   0.14489188 
   53200    288.52633   -507.86666    25877.473   -8310.0319     687.1737   -8997.2056   0.13910766 
   53300     273.3761   -522.91879    25872.509   -8322.6923     651.0909   -8973.7832   0.13884556 
   53400    286.13091   -501.85112     25879.11   -8285.7434    681.46861    -8967.212   0.14206331 
   53500    286.81181   -462.80233    25891.076   -8294.6458    683.09028   -8977.7361   0.13538579 
   53600    290.01615   -498.27776    25898.077   -8265.3094    690.72195   -8956.0313   0.13265816 
   53700    296.80018   -424.92733    25894.089   -8266.3374    706.87926   -8973.2167   0.12750821 
   53800     279.8156   -535.45262    25892.385   -8282.3011    666.42765   -8948.7287   0.14048978 
   53900    282.06907   -448.39377    25890.415   -8276.6847    671.79466   -8948.4793   0.13771337 
   54000    286.36802   -544.36269    25893.331   -8271.1431    682.03334   -8953.1765   0.13675532 
   54100    276.63901    -551.0027    25885.701   -8316.7303    658.86208   -8975.5924   0.13437217 
   54200    292.46324   -455.21137    25891.984   -8273.9436    696.55012   -8970.4937   0.13366416 
   54300    297.84101   -422.66669    25895.634    -8247.658    709.35818   -8957.0162   0.13383562 
   54400    285.11617   -478.99158    25892.009   -8250.5751    679.05183   -8929.6269   0.14420508 
   54500    291.24885   -501.19749    25908.705    -8232.005    693.65785   -8925.6629    0.1435652 
   54600    292.65122   -568.92619    25910.056   -8258.8894    696.99781   -8955.8872    0.1428388 
   54700    301.95203    -530.3855    25913.555   -8247.0718    719.14924   -8966.2211   0.14159328 
   54800    301.50081   -448.96489     25918.46   -8246.7465     718.0746   -8964.8211   0.12916262 
   54900    283.19286   -564.96478    25910.392   -8255.4225    674.47116   -8929.8936    0.1430031 
   55000     295.3518   -471.59061    25915.532   -8239.1952    703.42971   -8942.6249   0.13917958 
   55100    295.24973   -405.75392    25912.443   -8253.1305    703.18662   -8956.3171   0.13275363 
   55200    281.32191   -533.63038    25908.527    -8281.414    670.01517   -8951.4292   0.13962252 
   55300    267.25158    -577.7822    25894.401   -8305.7115    636.50433   -8942.2158   0.14280596 
   55400    273.69554   -595.39566    25894.171   -8324.3864    651.85169   -8976.2381   0.13963127 
   55500    282.77658   -519.23947    25897.379   -8284.9385    673.47971   -8958.4182   0.15090336 
   55600    279.54637   -559.29246    25902.428   -8287.4333    665.78643   -8953.2197   0.14499614 
   55700    294.90266   -563.01527     25916.29     -8250.02    702.35999     -8952.38   0.14572732 
   55800    309.21645   -459.57487    25914.431   -8232.3228    736.45068   -8968.7735   0.14444695 
   55900    294.96241   -419.03474    25901.616   -8240.7429     702.5023   -8943.2452   0.14681945 
   56000    288.38512   -575.05642    25893.128   -8224.5562    686.83739   -8911.3936   0.15037811 
   56100    298.37804   -556.06899    25909.249   -8233.0756    710.63721   -8943.7128   0.14078794 
   56200    288.30105   -521.08096    25910.125   -8271.7979    686.63717   -8958.4351   0.13214107 
   56300    289.92377   -509.19516    25905.803    -8292.455    690.50193    -8982.957   0.12760219 
   56400    286.02998    -553.9526    25900.194   -8299.8031    681.22823   -8981.0313   0.13115016 
   56500    269.39776   -548.12626    25895.364   -8323.9782    641.61583   -8965.5941   0.13182031 
   56600    277.07086   -460.01433    25896.711    -8345.884    659.89059   -9005.7746   0.12260265 
   56700    272.30906   -523.90344    25893.496   -8327.7574    648.54956   -8976.3069   0.13215367 
   56800    277.03675   -500.01324    25903.023   -8316.0049    659.80935   -8975.8143   0.12797994 
   56900    292.06886   -488.79495    25902.648   -8307.4032    695.61083    -9003.014   0.12372546 
   57000      269.975   -490.79941    25894.179   -8317.6602    642.99061   -8960.6508   0.12842489 
   57100    275.41403   -428.19014    25893.372   -8318.4031    655.94458   -8974.3476     0.124089 
   57200    293.46007   -501.89789    25903.573   -8258.2942    698.92424   -8957.2185   0.13231836 
   57300    274.14944   -511.21494    25907.029   -8299.4373    652.93273     -8952.37   0.13375369 
   57400    271.72102   -505.93757      25891.8   -8311.4902    647.14905   -8958.6393   0.13026662 
   57500    285.85715   -465.22768    25899.952   -8258.8248    680.81661   -8939.6414   0.13662201 
   57600    279.76422   -617.07376    25906.143   -8302.4378    666.30528   -8968.7431     0.140966 
   57700    277.26065   -463.32556    25889.764   -8319.2156     660.3426   -8979.5582   0.13271104 
   57800    280.58528   -536.05062    25896.538   -8274.6666    668.26077   -8942.9274   0.14284632 
   57900    289.47732    -518.8835    25898.316   -8260.7691    689.43864   -8950.2077   0.13637157 
   58000    286.50249   -491.93748    25895.492   -8284.4423     682.3536   -8966.7959   0.13448725 
   58100    274.30334   -525.04672    25896.944    -8295.401    653.29928   -8948.7003   0.13862635 
   58200    289.19895   -504.85917    25904.129   -8285.4151    688.77565   -8974.1907   0.13088481 
   58300    293.74818   -476.00216    25913.291   -8248.3215    699.61042    -8947.932   0.13748992 
   58400    300.04397    -503.7961    25906.051   -8282.9433     714.6049   -8997.5482   0.13266506 
   58500    281.84292   -496.93436    25899.912   -8281.0398    671.25605   -8952.2958   0.13472744 
   58600    290.62468   -509.24336    25901.042   -8267.6363    692.17128   -8959.8076   0.13625029 
   58700    291.41233   -484.15803     25901.66   -8268.6786    694.04719   -8962.7257    0.1321551 
   58800    302.99523   -439.57469    25910.306   -8242.4703    721.63382   -8964.1041   0.13674272 
   58900    294.12525   -523.09902    25909.795   -8253.6655    700.50848   -8954.1739   0.13659133 
   59000    303.24229   -429.92551    25910.453    -8228.114    722.22223   -8950.3362   0.13618799 
   59100    304.02562     -455.031      25914.6   -8240.4354    724.08786   -8964.5232   0.13129288 
   59200    291.69292   -538.29875    25915.507   -8241.4787    694.71548   -8936.1942   0.14055236 
   59300    279.81867   -512.13859    25895.981   -8297.9634    666.43496   -8964.3983   0.12777471 
   59400    289.88529    -465.6886    25901.941   -8255.7956     690.4103   -8946.2059   0.13199161 
   59500    301.73102   -427.26261    25903.445   -8247.4999    718.62287   -8966.1228   0.13248712 
   59600    286.36871    -527.9756    25894.984   -8295.4918    682.03498   -8977.5268   0.13169541 
   59700    286.09497   -451.36878    25898.008   -8276.7912    681.38301   -8958.1742   0.13274318 
   59800    292.46939   -515.16783    25894.394   -8252.8064    696.56477   -8949.3712   0.13734053 
   59900    284.71382   -477.55997    25888.477   -8300.3587    678.09358   -8978.4523   0.13352555 
   60000    273.47522   -544.05984    25884.138   -8298.5283    651.32697   -8949.8553    0.1463901 
   60100    286.36339    -429.6002    25889.226   -8288.2716     682.0223   -8970.2939    0.1309876 
   60200    289.13714    -456.3549    25892.269   -8279.3403    688.62845   -8967.9687   0.12849268 
   60300    277.33762    -461.9832     25893.47   -8284.4374    660.52593   -8944.9634   0.13862992 
   60400    292.64181    -521.8511    25900.236   -8257.0237    696.97542   -8953.9991   0.14570036 
   60500    295.77433   -574.57214    25912.562    -8231.644    704.43603     -8936.08    0.1411747 
   60600    293.78216   -512.17748    25911.624   -8248.2868    699.69135   -8947.9782    0.1362368 
   60700    296.03051   -489.17156    25904.677   -8244.9611    705.04616   -8950.0073   0.13843928 
   60800    306.31185    -493.7351    25910.998   -8191.1333    729.53289   -8920.6662   0.14659205 
   60900    295.98107   -529.89362    25912.457   -8206.9704    704.92842   -8911.8988   0.15015597 
   61000     291.8354    -532.5009    25908.952   -8254.3075    695.05482   -8949.3623   0.13949303 
   61100    277.00692   -597.02889    25910.353   -8249.6729    659.73829   -8909.4112   0.15089086 
   61200    298.99208   -461.62998    25903.559   -8257.7483    712.09965    -8969.848   0.13818855 
   61300    291.82708   -523.60677    25907.542   -8242.8339    695.03499   -8937.8689   0.14610293 
   61400    291.11066   -480.50056    25902.208   -8258.7116    693.32873   -8952.0403   0.13602766 
   61500    285.19084   -498.33587    25905.618   -8268.8283    679.22968    -8948.058   0.13976634 
   61600    285.54061   -504.20005    25904.174   -8283.6198    680.06272   -8963.6825   0.13745218 
   61700    286.77043   -499.51883    25897.887    -8300.258    682.99174   -8983.2497   0.12483562 
   61800    285.57829   -501.80291    25898.494   -8306.8396    680.15245   -8986.9921   0.12746027 
   61900    280.43595   -547.74502     25896.88   -8285.2138    667.90511   -8953.1189   0.13854478 
   62000    304.38994   -465.72952    25912.581   -8265.3305    724.95555    -8990.286   0.12913227 
   62100    284.86106    -641.7234    25908.424   -8276.3158    678.44424     -8954.76    0.1427322 
   62200    281.01548   -545.99661    25902.205   -8291.0402    669.28537   -8960.3255   0.13538661 
   62300    296.70925   -538.31926    25907.903   -8267.6986     706.6627   -8974.3613   0.13670488 
   62400    295.81859    -538.7454    25911.733   -8238.7227    704.54143   -8943.2641    0.1481613 
   62500    297.85805   -550.00364    25901.546   -8256.1149    709.39875   -8965.5137   0.14422018 
   62600     284.7319   -601.08509     25905.26   -8265.5887    678.13663   -8943.7253   0.14494692 
   62700     289.3751   -451.27598    25882.156   -8309.2252    689.19518   -8998.4203   0.13431471 
   62800    269.68676   -539.03923    25878.402   -8332.1578    642.30411   -8974.4619   0.13093377 
   62900    292.84302   -441.40382    25889.814   -8252.6634    697.45463    -8950.118   0.13672944 
   63000    288.91443   -455.74929     25896.58   -8278.9948    688.09803   -8967.0928   0.13558492 
   63100    274.53044   -521.31991    25896.494   -8305.8868    653.84015    -8959.727   0.13364318 
   63200    292.49316   -478.37129    25896.937   -8305.4365    696.62137   -9002.0579   0.12802068 
   63300    281.01278   -445.96784    25900.675   -8282.8567    669.27892   -8952.1356   0.13488727 
   63400    270.34887   -492.79559    25897.738   -8316.5486    643.88104   -8960.4296   0.12885616 
   63500    290.90634   -400.78077    25897.854    -8283.371     692.8421   -8976.2131   0.12758423 
   63600    274.55804   -592.12366    25896.729   -8309.5152     653.9059   -8963.4211   0.14246431 
   63700    270.60991   -535.09692    25887.147   -8327.5579    644.50275   -8972.0606   0.13307154 
   63800    283.80448    -428.6057    25893.001   -8330.9057    675.92782   -9006.8336   0.12397052 
   63900    278.37379   -469.63915     25883.23   -8324.6948    662.99373   -8987.6886   0.13182215 
   64000    291.92073   -423.29777    25895.439   -8299.2571    695.25803   -8994.5151   0.12414645 
   64100    294.12389   -451.38379    25903.501   -8280.0299    700.50524   -8980.5351   0.13091886 
   64200    284.41553   -447.64578    25908.071   -8255.3818    677.38315   -8932.7649   0.14778329 
   64300    303.04027   -417.89273    25914.758    -8228.946    721.74109   -8950.6871   0.13168235 
   64400    297.53293   -486.13204     25914.49   -8239.4731    708.62444   -8948.0975    0.1383132 
   64500    292.40345   -513.36026    25906.116   -8273.2168    696.40771   -8969.6245   0.13798105 
   64600    302.06528   -437.77015    25908.407   -8279.8063    719.41897   -8999.2253   0.12933321 
   64700    285.73552   -552.82973    25895.993     -8274.52    680.52691    -8955.047   0.14915344 
   64800    294.70033   -485.45468    25899.201   -8294.5524    701.87811   -8996.4305   0.13074425 
   64900    292.67875   -450.52263     25909.65   -8267.3396    697.06339    -8964.403    0.1356327 
   65000    290.36641   -530.88644    25913.685   -8244.4991    691.55617   -8936.0553   0.14328233 
   65100     295.6791   -515.70264    25907.216   -8252.9061    704.20923   -8957.1153   0.13986016 
   65200     281.4009   -531.16871    25899.588   -8267.2492     670.2033   -8937.4525   0.14215864 
   65300    295.10973   -460.43762    25905.621   -8256.9739    702.85318   -8959.8271   0.13675181 
   65400    292.15773   -421.10558    25902.007   -8282.1936    695.82249   -8978.0161    0.1243958 
   65500    283.09911   -534.51704    25904.912    -8251.787    674.24787   -8926.0349   0.14381642 
   65600     287.8655   -454.92981    25918.654    -8252.205    685.59983   -8937.8048   0.13354038 
   65700    287.23249   -476.80977    25911.711   -8263.3079     684.0922   -8947.4001   0.13643073 
   65800    292.94184   -478.74276    25910.067    -8261.155    697.68999    -8958.845   0.13948678 
   65900    279.72328   -547.30108    25908.749   -8272.2918    666.20777   -8938.4996   0.13831294 
   66000    286.33356   -569.71853    25900.375   -8287.1022    681.95125   -8969.0534   0.13040071 
   66100    284.25458   -591.86485    25896.253   -8308.9667    676.99982   -8985.9665   0.12970787 
   66200    284.43124    -464.5806    25895.082   -8308.4523    677.42056   -8985.8728   0.12699135 
   66300    280.33887   -490.62687    25891.736   -8302.7171     667.6739    -8970.391   0.12818954 
   66400    282.14723   -394.07634    25901.574   -8301.9915    671.98082   -8973.9723   0.11860753 
   66500    289.93479    -554.5764    25901.729   -8277.4159    690.52819    -8967.944   0.13643011 
   66600    271.93983   -521.78556    25901.925   -8311.1784    647.67017   -8958.8486   0.12488032 
   66700     286.8491   -412.86651    25900.914   -8304.7234     683.1791   -8987.9025   0.11316266 
   66800    276.10241   -547.04466    25920.659   -8309.9567    657.58405   -8967.5408    0.1250886 
   66900    286.09752   -468.29837    25908.575   -8305.0624     681.3891   -8986.4515   0.11580694 
   67000    273.49173   -569.46304    25898.334    -8338.021    651.36629   -8989.3873   0.12740199 
   67100    292.85881   -390.59178     25894.52    -8305.797    697.49224   -9003.2892   0.12116151 
   67200    283.02275   -502.81745      25905.6    -8302.211    674.06601    -8976.277   0.12204255 
   67300    287.86867   -465.90198    25908.792   -8298.7568    685.60737   -8984.3641   0.12891129 
   67400    279.87617   -543.83813    25904.913   -8299.7341    666.57191   -8966.3061   0.13424911 
   67500     301.5933   -453.21841    25912.717   -8284.5133    718.29487   -9002.8082   0.11698543 
   67600    292.77459   -551.49337      25917.4   -8283.3019    697.29165   -8980.5935   0.12875267 
   67700     300.6302   -429.77445    25929.434   -8263.6687    716.00111   -8979.6698   0.11953353 
   67800    290.73763   -444.94203     25930.37   -8263.7239    692.44029   -8956.1641   0.12365909 
   67900    286.91658   -437.56165    25934.295   -8265.8189    683.33982   -8949.1587   0.12338847 
   68000    282.02452   -537.52798    25930.988   -8291.9547    671.68855   -8963.6433   0.12353481 
   68100    282.56648   -533.29777    25932.029   -8290.2917    672.97932    -8963.271   0.12258282 
   68200    288.19419   -482.99805     25924.87   -8283.2003    686.38265    -8969.583   0.12228932 
   68300    280.55062   -474.40399    25922.931   -8289.1202    668.17821   -8957.2984   0.12528477 
   68400    285.11435   -476.17478    25929.267   -8273.7492    679.04751   -8952.7967   0.11857871 
   68500    282.89915   -533.75101    25939.891   -8249.5546    673.77165   -8923.3262   0.13272376 
   68600    285.21856   -535.51958    25936.051   -8268.2933    679.29571    -8947.589   0.12683065 
   68700     281.4228   -459.87712    25926.284   -8296.3889    670.25545   -8966.6443   0.11760566 
   68800    285.01856   -545.49662     25935.67   -8261.2164    678.81937   -8940.0357    0.1294655 
   68900    284.80604   -496.61423    25926.002   -8293.1277    678.31321   -8971.4409   0.11660293 
   69000    288.08845   -571.88022    25922.322   -8253.8006    686.13081   -8939.9314   0.13140509 
   69100    296.77727   -486.52544    25920.011   -8291.5849     706.8247   -8998.4096   0.11935493 
   69200    278.09285   -522.37159    25920.557    -8307.693    662.32463   -8970.0176   0.11865441 
   69300     272.6669   -608.00907    25906.395   -8338.1826    649.40183   -8987.5844   0.12258276 
   69400    272.06138   -494.11369     25901.71   -8342.5085    647.95967   -8990.4682   0.12149577 
   69500    283.03312   -476.22448    25903.148   -8313.0439    674.09071   -8987.1346   0.11846312 
   69600    287.45518    -549.3187    25928.269   -8228.6329    684.62259   -8913.2555   0.13379299 
   69700    283.07472    -443.7693    25918.944   -8241.0895    674.18978   -8915.2793   0.13136715 
   69800    289.51874   -423.72431    25917.194   -8278.9819    689.53729   -8968.5192   0.12067523 
   69900    277.94468   -541.16909    25916.141   -8298.9161    661.97174   -8960.8878   0.12309779 
   70000    285.84194   -488.13266    25914.902   -8267.4767    680.78037   -8948.2571   0.12264661 
   70100    283.82615   -464.43572    25897.611   -8309.0628    675.97945   -8985.0422   0.12013914 
   70200     299.7688   -462.70497    25895.867   -8258.2568    713.94952   -8972.2063   0.13097268 
   70300    303.03078   -399.51272     25899.79     -8287.86    721.71847   -9009.5785   0.11931306 
   70400    286.86179   -509.58022    25904.989   -8240.6926    683.20932   -8923.9019    0.1382648 
   70500    282.92657   -548.14066    25897.547   -8266.7149    673.83693   -8940.5519   0.14331254 
   70600    294.00716   -423.09533    25896.411   -8275.8112    700.22721   -8976.0384   0.12871246 
   70700    283.99416   -491.87608    25894.245   -8278.3368    676.37958   -8954.7164   0.13943646 
   70800     276.5672   -517.60324    25894.772    -8285.782    658.69104   -8944.4731   0.14069228 
   70900     272.8905   -616.00504     25899.73    -8292.662    649.93436   -8942.5964   0.13440651 
   71000    281.92004   -486.41797    25891.846   -8294.0041    671.43972   -8965.4438   0.13161869 
   71100    282.99715   -444.88008    25895.725   -8304.1079    674.00504    -8978.113   0.12646257 
   71200    288.01458   -440.69452    25902.326   -8269.9157    685.95488   -8955.8706   0.12703333 
   71300     275.5149   -499.61189    25898.774   -8308.2401    656.18481   -8964.4249   0.12770827 
   71400    281.58857   -526.39084    25903.877   -8295.2052    670.65026   -8965.8555   0.12372379 
   71500    288.48398   -493.82921    25901.614   -8281.7471    687.07285     -8968.82   0.12795942 
   71600    273.51541   -494.03625    25902.243   -8271.1317    651.42269   -8922.5544    0.1382658 
   71700    287.24577   -527.40121    25900.386   -8279.7733    684.12384   -8963.8972   0.12575784 
   71800    275.32031   -521.20296    25895.758   -8315.4767    655.72136   -8971.1981   0.12508615 
   71900     272.7713   -489.11973     25900.68   -8306.5494    649.65048   -8956.1999   0.12865378 
   72000    280.62149   -511.30209    25902.574   -8303.7521      668.347    -8972.099    0.1285055 
   72100    300.52195   -397.67512    25909.192   -8252.2602    715.74329   -8968.0035   0.12462288 
   72200    302.33986   -528.35931    25916.976   -8205.8447    720.07294   -8925.9176   0.14276188 
   72300    304.59797    -436.0173    25934.073   -8187.3555      725.451   -8912.8065   0.13430859 
   72400    288.48222   -582.14844    25917.888   -8265.4365    687.06866   -8952.5052    0.1381765 
   72500    293.13779   -475.87477    25914.218   -8259.0362    698.15668   -8957.1929    0.1305172 
   72600    294.13967   -461.48511     25912.41   -8226.6611    700.54282   -8927.2039   0.13544828 
   72700    286.77336   -522.74501    25908.559   -8263.5907    682.99871   -8946.5894    0.1380884 
   72800    290.21324   -415.05957    25906.888   -8256.4618    691.19137   -8947.6532   0.13507567 
   72900     289.4098   -599.36516    25903.525   -8273.4298    689.27783   -8962.7076    0.1313447 
   73000    275.27573   -500.97848    25894.393   -8291.0655     655.6152   -8946.6806   0.13818701 
   73100    287.35254   -528.27896    25894.163   -8282.9105    684.37812   -8967.2886   0.13690619 
   73200    298.84624   -405.29135    25905.978   -8220.9587    711.75228    -8932.711   0.13273442 
   73300    300.28926   -532.30391    25912.678   -8200.2976    715.18909   -8915.4867   0.14147005 
   73400    295.55972   -568.08317    25910.704   -8237.9376    703.92489   -8941.8625   0.13856402 
   73500    294.03631   -585.33184    25906.818   -8213.9096    700.29666   -8914.2063   0.14463834 
   73600    295.14746   -531.37352    25901.832   -8244.6848    702.94304   -8947.6278   0.13533386 
   73700    297.02058   -525.35303    25899.541   -8260.2644    707.40419   -8967.6685   0.13080149 
   73800    281.95366   -526.37952    25894.852   -8289.4675    671.51979   -8960.9873   0.13360681 
   73900    290.23661   -458.13119    25894.292   -8277.2343    691.24702   -8968.4813   0.13732464 
   74000    279.88416   -499.55974    25895.947   -8310.8278    666.59094   -8977.4188   0.12445045 
   74100    297.28669   -497.96722    25899.732   -8249.8653    708.03796   -8957.9032   0.14358533 
   74200    290.00764   -558.21079    25909.179   -8260.1238     690.7017   -8950.8255   0.14056561 
   74300    277.99269   -499.31488    25892.752   -8298.8451    662.08607   -8960.9312   0.12651075 
   74400     285.2845   -473.68581    25895.738   -8267.5936    679.45276   -8947.0464   0.13536781 
   74500    290.86164   -559.84409    25900.118   -8302.9572    692.73563   -8995.6928    0.1267624 
   74600     285.9749   -530.26061    25911.677   -8294.1097    681.09705   -8975.2067   0.12429667 
   74700    299.63567   -501.09471    25908.891   -8247.7572    713.63247   -8961.3897   0.12899628 
   74800    295.83201   -476.72928    25905.784   -8269.4995    704.57339   -8974.0729   0.12566819 
   74900    283.15956   -441.68044     25902.76   -8260.8291    674.39183    -8935.221   0.13021618 
   75000    286.92225   -532.06005    25905.866    -8287.594    683.35332   -8970.9473   0.13092622 
   75100     291.1293   -530.34443    25924.295   -8235.1394     693.3731   -8928.5125   0.13633516 
   75200    285.55073   -589.66083    25915.507   -8243.3806    680.08682   -8923.4674   0.14037158 
   75300    291.53671   -531.23417    25911.602    -8270.659    694.34343   -8965.0024   0.13495166 
   75400    288.85247   -444.39535    25910.357   -8287.5171    687.95046   -8975.4676   0.12360018 
   75500    270.95719   -531.96832    25905.435   -8298.1939    645.32985   -8943.5237   0.13215928 
   75600    289.57663   -454.85382    25906.763   -8275.5161    689.67518   -8965.1913   0.13081429 
   75700    298.45512   -486.82752    25918.068   -8246.1322    710.82077   -8956.9529   0.12314981 
   75800    298.38758   -499.26655    25918.568   -8234.5628    710.65993   -8945.2227   0.13222813 
   75900    287.60014   -544.33623    25920.084   -8256.9794    684.96784   -8941.9473   0.12889499 
   76000    299.50152   -515.79636    25928.161   -8218.0153    713.31296   -8931.3282   0.12811058 
   76100    287.83065   -444.61468    25916.055   -8264.0329    685.51683   -8949.5497   0.12279963 
   76200    291.38011   -488.05257    25909.399   -8295.3333    693.97045   -8989.3038   0.12401725 
   76300    284.90101   -509.46635    25911.484   -8293.0162    678.53939   -8971.5556   0.12394824 
   76400    282.05746   -558.34144    25917.572   -8288.4218      671.767   -8960.1888   0.13216282 
   76500    280.97387   -496.88053    25906.508   -8303.9484    669.18626   -8973.1346   0.12734087 
   76600    277.06824   -568.11256    25909.293   -8288.8969    659.88434   -8948.7812   0.13212483 
   76700    284.92453   -430.95634    25907.256   -8262.6294    678.59541   -8941.2248   0.12798746 
[...]
   81900    277.82499   -411.09544    25895.442   -8306.2139    661.68668   -8967.9006   0.12679845 
   82000    297.39792   -485.76283    25915.834   -8268.5822    708.30288   -8976.8851    0.1267393 
   82100    299.53938   -438.40677    25934.224   -8246.6834    713.40313   -8960.0865   0.12040709 
   82200    293.23157    -504.5804    25924.151   -8240.3422    698.38002   -8938.7222   0.14123659 
   82300    282.03237   -578.57477    25915.562      -8283.4    671.70724   -8955.1072   0.13604563 
   82400    306.05165   -521.70647     25921.93   -8241.6712    728.91319   -8970.5844   0.13441339 
   82500    314.16397   -448.14486    25925.881   -8188.2241    748.23403   -8936.4581   0.14745222 
   82600    292.51904   -513.33412    25922.005   -8234.7481    696.68302   -8931.4312   0.13550699 
   82700    288.82298   -441.20578     25900.79   -8270.2021    687.88021   -8958.0823   0.13125673 
   82800    286.33703    -515.3529    25902.136   -8265.4574    681.95953   -8947.4169   0.13810634 
   82900    296.64938   -582.99271    25914.329   -8256.7243    706.52012   -8963.2445   0.12941729 
   83000    300.04698   -515.36208    25916.254   -8223.1102    714.61207   -8937.7223   0.13812285 
   83100    296.36499   -419.43105    25910.069   -8239.5934    705.84279   -8945.4362   0.13036571 
   83200    284.96515   -471.81372    25911.522    -8254.947    678.69217   -8933.6391   0.12689204 
   83300     304.1716   -458.66467    25906.173   -8270.4086    724.43554   -8994.8441   0.12702526 
   83400    280.58387   -580.20072    25902.103   -8298.3381     668.2574   -8966.5955    0.1375457 
   83500    270.07726   -536.99938    25889.068   -8338.7709    643.23417   -8982.0051   0.12496352 
   83600    292.08177   -406.43506    25899.303   -8307.2632    695.64157   -9002.9048   0.12088984 
   83700    283.05606   -545.98151    25897.206   -8319.0308    674.14534   -8993.1761    0.1313844 
   83800    280.97607   -470.44488    25902.074    -8303.474    669.19149   -8972.6655   0.12423861 
   83900    276.59519   -509.49302    25905.678   -8316.3473     658.7577    -8975.105   0.13019939 
   84000    277.19697   -487.70464    25909.202   -8318.1181    660.19094   -8978.3091   0.12488063 
   84100    284.68263   -503.58131    25912.614   -8290.9578     678.0193   -8968.9771   0.12382412 
   84200    287.32776   -467.10682    25916.004   -8268.1455    684.31911   -8952.4646   0.12963854 
   84300    288.02524   -469.11313    25921.438   -8258.8857    685.98028    -8944.866   0.12794698 
   84400    279.65403   -453.40915    25913.353   -8276.2613    666.04284   -8942.3041   0.12261755 
   84500    285.75459   -562.49053    25902.112   -8289.0412    680.57235   -8969.6136   0.14046395 
   84600    291.70755   -546.42827    25924.243   -8249.6481    694.75031   -8944.3985   0.12886193 
   84700    295.26675    -514.6399    25913.241    -8246.687    703.22714   -8949.9141   0.13221952 
   84800    295.46288   -574.92592    25906.165    -8242.783    703.69426   -8946.4773   0.14309025 
   84900    292.66016   -523.24872    25909.038   -8262.0559     697.0191    -8959.075   0.13293367 
   85000    278.55097   -594.99673    25899.404   -8267.1668    663.41572   -8930.5825   0.13870959 
   85100    280.17665   -539.78826    25901.761   -8275.2147    667.28756   -8942.5022   0.13851425 
   85200    275.37411   -566.06269    25895.554   -8283.6763    655.84949   -8939.5258   0.13011273 
   85300    283.61685   -577.43245    25894.179   -8287.6332    675.48097   -8963.1142   0.13319989 
   85400    287.27369   -459.78981    25892.079   -8276.6279    684.19033   -8960.8183   0.13160721 
   85500    287.39977    -580.9813    25904.794    -8268.841    684.49063   -8953.3316   0.13682676 
   85600    287.88177   -524.46807    25902.479   -8278.4153    685.63857   -8964.0539   0.13627838 
   85700    286.85204   -542.19978    25908.766     -8268.03    683.18611   -8951.2161   0.13701173 
   85800    291.47374     -477.943    25899.635   -8242.3635    694.19346    -8936.557   0.13328345 
   85900    289.25373    -516.6872    25901.687   -8243.6208    688.90612    -8932.527   0.14053856 
   86000    284.54388   -486.94905    25907.178   -8255.6577    677.68883   -8933.3465   0.13714471 
   86100    288.91027   -498.86003    25903.607   -8232.1748    688.08813   -8920.2629   0.13753933 
   86200    284.95619   -511.51733    25912.257   -8252.0557    678.67082   -8930.7266   0.13687178 
   86300    287.05583    -506.0853    25908.472   -8274.8861    683.67146   -8958.5576   0.12750773 
   86400    291.23854   -522.99071    25906.067   -8286.6569    693.63329   -8980.2902   0.12096106 
   86500     295.1653    -555.5679    25910.138   -8274.6916    702.98551   -8977.6772   0.13089823 
   86600    288.29302   -536.85407    25930.608   -8243.5254    686.61805   -8930.1435   0.13097056 
   86700    275.20023   -562.75211    25919.617   -8276.4841    655.43537   -8931.9195   0.13116963 
   86800    285.37393   -523.69976    25919.273   -8291.4909    679.66573   -8971.1566    0.1279704 
   86900    275.89967   -508.17696    25920.217   -8292.3105    657.10121   -8949.4117   0.12233221 
   87000    283.15185   -511.08352    25909.535   -8300.7312    674.37348   -8975.1046   0.12844774 
   87100    296.78102   -479.37309    25912.658   -8241.2516    706.83363   -8948.0853   0.13733529 
   87200    290.36003   -536.78248    25917.003   -8280.7156    691.54096   -8972.2566   0.12137996 
   87300    284.10839   -478.42972    25913.252   -8261.6729    676.65165   -8938.3246   0.13291203 
   87400    290.94823   -431.64297    25908.239    -8275.849    692.94187   -8968.7909   0.12604651 
   87500    290.38375   -451.23905    25919.076   -8253.3446    691.59746   -8944.9421   0.12317478 
   87600    294.28843   -497.79861    25916.397   -8252.2268    700.89711   -8953.1239   0.13039083 
   87700    281.58052   -523.55102    25904.421   -8276.7026     670.6311   -8947.3337     0.131965 
   87800    281.02232   -440.57692    25899.803      -8282.4    669.30164   -8951.7016   0.12286111 
   87900    298.38319   -499.61568    25904.824   -8280.8979    710.64946   -8991.5474    0.1230426 
   88000    296.16625   -510.49083    25914.043   -8269.1041    705.36944   -8974.4735   0.12511528 
   88100     291.1634   -523.22646    25917.855   -8274.3492    693.45434   -8967.8036   0.12093029 
   88200    284.80987   -571.30631    25909.492   -8291.9591    678.32234   -8970.2815   0.13346827 
   88300    288.46979    -455.0934    25917.865   -8272.4896    687.03904   -8959.5287   0.12219924 
   88400    279.78986   -515.30679    25924.471    -8260.491    666.36633   -8926.8573   0.12582967 
   88500    289.23488   -509.40226    25918.639   -8277.4198    688.86124    -8966.281   0.12470255 
   88600     284.5918   -521.17264    25913.947     -8286.99    677.80297   -8964.7929   0.12276446 
   88700    291.87235   -514.85303    25924.271   -8260.1002    695.14281    -8955.243   0.12079207 
   88800    263.86615   -531.41296    25913.305   -8325.0541    628.44137   -8953.4955   0.12550061 
   88900    285.25644   -502.34944    25904.406   -8290.8121    679.38591    -8970.198   0.12387895 
   89000     289.6935   -517.75683    25906.752   -8287.3656    689.95351   -8977.3191    0.1208221 
   89100    282.08521   -535.89837    25901.449   -8306.6821    671.83311   -8978.5152   0.12875117 
   89200    286.40338   -540.84268     25908.14   -8288.5613    682.11755   -8970.6789   0.12634539 
   89300    290.08807   -443.81854    25895.085   -8293.9292    690.89325   -8984.8224   0.12088541 
   89400    287.42606    -468.9231    25904.597   -8268.3068    684.55322     -8952.86   0.13262884 
   89500    286.98068   -514.63868    25896.149   -8323.9556    683.49248   -9007.4481   0.11312875 
   89600    280.53275   -452.90789    25892.171   -8332.8503    668.13566   -9000.9859     0.113991 
   89700    284.15611   -510.49888    25896.004   -8273.1161    676.76531   -8949.8814   0.13156574 
   89800    295.86438   -469.18122    25908.541   -8246.3346     704.6505   -8950.9851   0.12240277 
   89900    287.48276   -468.59551    25913.196   -8253.5698    684.68828    -8938.258   0.12939611 
   90000    296.06548   -532.21463    25921.716   -8265.5117    705.12944   -8970.6411   0.12739879 
   90100    294.87647   -475.66719    25909.118   -8261.4057    702.29763   -8963.7033   0.12169176 
   90200    287.29594   -424.31229    25897.894   -8285.5743    684.24333   -8969.8176   0.12766484 
   90300    278.16369   -599.34688    25897.715   -8270.7708    662.49334   -8933.2641   0.14319008 
   90400     283.4657   -549.74288    25898.001   -8256.9526    675.12096   -8932.0736    0.1351329 
   90500    291.90025   -502.21975    25904.389   -8266.4208    695.20926     -8961.63   0.13257143 
   90600    293.48719   -453.50117    25905.679   -8256.6456    698.98883   -8955.6344    0.1263596 
   90700    300.20905    -427.4881    25908.894   -8247.4309    714.99806    -8962.429   0.12331947 
   90800    280.99115   -548.04763    25897.368   -8257.1893    669.22742   -8926.4167   0.13860494 
   90900    294.28633   -587.61447    25910.755    -8264.873    700.89212   -8965.7651   0.12936131 
   91000     293.2051   -458.12772     25899.66    -8313.306    698.31698   -9011.6229   0.10972592 
   91100    278.36624   -458.10021    25878.634   -8346.4381    662.97576   -9009.4139   0.12114491 
   91200    276.34079   -488.68193    25888.314   -8329.9779    658.15179   -8988.1297   0.12056574 
   91300    283.41663   -501.42041    25899.967   -8291.0337    675.00409   -8966.0377   0.12237582 
   91400    294.17842    -564.1792    25909.284   -8273.2735    700.63511   -8973.9086    0.1346204 
   91500    302.70088   -456.27251    25924.757   -8200.1987    720.93276   -8921.1315   0.12967589 
   91600    295.68633   -582.34835    25913.346   -8232.1571    704.22643   -8936.3835   0.13728474 
   91700    290.29051   -459.79563    25915.845   -8260.0216     691.3754    -8951.397   0.12997427 
   91800    288.62321   -521.74533    25918.412   -8246.0558    687.40445   -8933.4602   0.13206435 
   91900     301.3902   -526.25462    25927.522   -8226.2225    717.81117   -8944.0337   0.12794096 
   92000    288.29638   -567.19453    25912.614   -8264.9976    686.62604   -8951.6236   0.13663089 
   92100    294.04407   -595.16424    25908.215   -8239.9729    700.31513   -8940.2881   0.12898909 
   92200    293.15207   -507.93844    25903.462   -8251.5208    698.19068   -8949.7115   0.13314397 
   92300    303.16265   -488.27463      25912.9    -8222.834    722.03255   -8944.8665   0.13480512 
   92400    295.35627   -457.20425    25914.798   -8233.4727    703.44034    -8936.913   0.12859125 
   92500    296.49136   -444.85355    25918.109   -8230.0375    706.14377   -8936.1812   0.13065258 
   92600    307.74737   -440.41428    25923.785   -8198.6581    732.95183     -8931.61   0.13600912 
   92700    301.95299   -504.36307    25916.875   -8247.2419    719.15154   -8966.3934   0.12642997 
   92800    291.17254   -503.52864    25909.978   -8265.4117    693.47609   -8958.8878   0.13234844 
   92900    284.62892   -508.15955    25905.893   -8294.2535    677.89138   -8972.1449   0.12758016 
   93000    282.94501   -562.54762    25906.971   -8286.6231    673.88085    -8960.504   0.12635704 
   93100    288.39929   -470.93713    25913.124   -8265.0989    686.87113     -8951.97   0.12864314 
   93200    281.56245   -496.22109    25910.171   -8291.4522    670.58806   -8962.0402   0.12756157 
   93300    280.52547    -507.8501    25911.666   -8299.2428    668.11832   -8967.3611   0.11543129 
   93400    281.76341   -533.27176    25910.584    -8331.709    671.06669   -9002.7757   0.11944547 
   93500    281.64103   -527.89739    25911.544   -8326.0467    670.77521   -8996.8219   0.12066097 
   93600    286.71699   -477.66425    25909.963   -8294.4776    682.86447   -8977.3421   0.11672323 
   93700    283.84466    -549.9657    25903.853   -8307.8864    676.02352     -8983.91   0.12844154 
   93800     290.6949   -457.39648    25914.972   -8287.7469    692.33852   -8980.0854   0.12228173 
   93900    271.96013   -489.50077    25913.089   -8322.0628    647.71853   -8969.7813   0.12029154 
   94000    288.88973   -534.29773    25911.012   -8284.3627    688.03919   -8972.4019   0.13455796 
   94100    300.43666   -465.86979    25925.303   -8250.8334    715.54014   -8966.3735   0.12326684 
   94200    299.84848   -515.94222    25930.481   -8246.1316     714.1393   -8960.2709   0.12448278 
   94300    299.78188   -437.68122    25928.173   -8238.0297    713.98067   -8952.0104   0.13553729 
   94400    293.48427    -425.2326    25940.019   -8228.8432    698.98186   -8927.8251   0.12466877 
   94500    291.50665   -568.13263    25942.248   -8226.7863    694.27182   -8921.0581    0.1341026 
   94600    284.04229   -622.23299     25923.62    -8251.959    676.49423   -8928.4533   0.14287583 
   94700    281.30945   -487.46488     25928.17   -8271.0035    669.98549    -8940.989   0.12074137 
   94800    283.92291   -451.98024    25922.605   -8265.0144     676.2099   -8941.2243   0.12985207 
   94900    285.38826   -493.93462    25918.029   -8290.3344    679.69986   -8970.0343   0.12947512 
   95000     278.2036   -520.25627    25922.361   -8293.4407    662.58839   -8956.0291   0.12000187 
   95100     281.7265   -472.08836     25931.05   -8253.0889    670.97876   -8924.0677    0.1317185 
   95200    291.52365   -510.88792    25934.302   -8274.0585    694.31234   -8968.3708   0.12400283 
   95300    285.67614   -486.49388    25935.801   -8258.6745     680.3855     -8939.06   0.12200875 
   95400    296.70956   -527.49465    25932.828   -8262.7572    706.66344   -8969.4207   0.12564878 
   95500    299.76986   -545.30866    25929.207    -8236.365    713.95204    -8950.317   0.13206688 
   95600     304.4715   -526.90784    25926.818   -8227.3464    725.14979   -8952.4962   0.12697709 
   95700    303.18382   -532.12299    25919.279   -8262.9108    722.08296   -8984.9937   0.12616853 
   95800    292.55851   -553.96296    25929.545   -8244.3061    696.77702   -8941.0831   0.13420549 
   95900    295.94197   -561.10052    25914.934   -8247.7974    704.83529   -8952.6327   0.13103775 
   96000    301.27898   -489.36678    25918.111   -8235.6269    717.54626   -8953.1732   0.13739838 
   96100    310.72602   -432.88054    25916.148   -8221.9757    740.04598   -8962.0217   0.12374986 
   96200     300.4441   -505.82043    25916.375    -8250.352    715.55788   -8965.9099   0.12505401 
   96300    280.21974   -525.98339    25903.887   -8257.2114    667.39016   -8924.6016   0.14386062 
   96400    293.24654   -498.86568    25903.459   -8259.7994    698.41569   -8958.2151   0.13115838 
   96500    296.72496   -485.39196    25908.009   -8249.6817    706.70011   -8956.3818   0.12771048 
   96600    290.88187   -545.67504    25901.708   -8258.7151    692.78382    -8951.499   0.13309922 
   96700    283.89761   -506.83419    25902.103   -8267.4636    676.14963   -8943.6133   0.13069725 
   96800    282.40292   -538.52416     25904.86   -8273.6788    672.58978   -8946.2686   0.13065591 
   96900    295.65977   -477.30738    25909.062    -8255.561    704.16318   -8959.7242   0.12790349 
   97000    282.73403   -584.54898    25909.812     -8282.08    673.37838   -8955.4584   0.12652204 
   97100    288.02164    -541.5785    25912.249   -8263.9709    685.97169   -8949.9426   0.13271595 
   97200    299.52374   -486.45715    25916.578   -8241.0745    713.36589   -8954.4403   0.13275797 
   97300    314.69399   -454.98875    25925.844   -8223.0223    749.49636   -8972.5186   0.11469926 
   97400    283.28405   -547.17355    25910.182   -8259.6934    674.68834   -8934.3817   0.13729968 
   97500    282.12328   -572.37627    25912.773   -8258.5971    671.92376   -8930.5209   0.13814319 
   97600    298.17932   -428.27307    25924.764   -8229.8439    710.16391   -8940.0078   0.11958814 
   97700    291.59864   -577.71327    25930.308   -8223.2467    694.49091   -8917.7376   0.14258675 
   97800    285.31349   -469.98347    25927.674   -8239.0112     679.5218    -8918.533   0.12893358 
   97900    292.78898   -486.12759     25918.62   -8231.1597    697.32592   -8928.4856   0.12855731 
   98000    298.89557   -508.24845     25919.65   -8272.2193    711.86979   -8984.0891   0.12391586 
   98100    280.90889    -547.7201    25923.779   -8285.9762    669.03151   -8955.0077   0.12063773 
   98200    300.85377     -414.422    25915.973   -8268.9281    716.53358   -8985.4617    0.1142865 
   98300    292.69114   -513.19826    25930.993   -8260.0771    697.09289     -8957.17   0.12685484 
   98400    280.40172   -494.34173    25929.828   -8295.3092    667.82359   -8963.1328   0.11514603 
   98500    284.62809   -555.11754    25923.001   -8266.8818    677.88939   -8944.7712   0.12723722 
   98600     282.6096   -634.60033    25923.804   -8275.5904    673.08202   -8948.6724   0.13579596 
   98700    294.60487   -478.39486    25927.613    -8246.141    701.65077   -8947.7918   0.12323806 
   98800    281.79465   -478.15095    25921.904   -8253.7877    671.14108   -8924.9288   0.12872276 
   98900     288.5633   -544.53965    25916.506   -8269.5478    687.26176   -8956.8095   0.13289373 
   99000    279.50734   -500.60686    25911.229   -8255.1629    665.69347   -8920.8563   0.12892335 
   99100    285.63693    -490.6267     25906.22   -8278.3895    680.29211   -8958.6817   0.12802732 
   99200    291.19268   -475.98247    25910.952   -8263.0889    693.52407    -8956.613    0.1291062 
   99300    298.58118   -445.08437    25918.634   -8236.3185    711.12102   -8947.4395   0.12776869 
   99400     301.5704    -428.8198    25918.372   -8236.4815    718.24034   -8954.7219   0.12384925 
   99500    294.58724   -452.32963    25914.498   -8239.3076    701.60878   -8940.9164   0.13446968 
   99600    293.78898   -524.83553    25913.514    -8253.071    699.70759   -8952.7785    0.1265769 
   99700    294.56756   -517.16948    25912.947   -8265.7476    701.56191   -8967.3096   0.12855888 
   99800    293.28398   -505.62389    25912.622   -8270.0136    698.50484   -8968.5185   0.13095008 
   99900    289.08461   -576.73706    25905.611   -8286.9983    688.50335   -8975.5016   0.12623414 
  100000    290.89115   -484.82776    25916.125   -8276.1758    692.80592   -8968.9818   0.12844833 
Loop time of 20.2451 on 4 procs for 100000 steps with 800 atoms

Performance: 2133.855 ns/day, 0.011 hours/ns, 4939.478 timesteps/s
99.4% CPU use with 4 MPI tasks x no OpenMP threads

MPI task timing breakdown:
Section |  min time  |  avg time  |  max time  |%varavg| %total
---------------------------------------------------------------
Pair    | 13.348     | 13.56      | 13.72      |   3.7 | 66.98
Neigh   | 1.8764     | 1.8813     | 1.8862     |   0.3 |  9.29
Comm    | 3.0044     | 3.1705     | 3.4083     |   8.4 | 15.66
Output  | 0.080538   | 0.08372    | 0.092838   |   1.8 |  0.41
Modify  | 1.1719     | 1.1937     | 1.2145     |   1.4 |  5.90
Other   |            | 0.3557     |            |       |  1.76

Nlocal:        200.000 ave         209 max         195 min
Histogram: 2 0 0 1 0 0 0 0 0 1
Nghost:        647.750 ave         656 max         639 min
Histogram: 1 0 1 0 0 0 0 1 0 1
Neighs:        0.00000 ave           0 max           0 min
Histogram: 4 0 0 0 0 0 0 0 0 0
FullNghs:      5697.50 ave        5960 max        5558 min
Histogram: 2 0 0 1 0 0 0 0 0 1

Total # of neighbors = 22790
Ave neighs/atom = 28.487500
Neighbor list builds = 5017
Dangerous builds = 0

undump              1
unfix               2
unfix               3
unfix               4




################################################
#######         Run Simulation         #########
################################################

reset_timestep      0
log                 log.run_${NAME}
log                 log.run_ice_289K_500atm_ML
