
# Create simulation box of size ~50 x 30 x 30 Angstrom
#
#variable	    lattice_constant equal 6.36339
#lattice		    diamond ${lattice_constant}
region all block 0 ${LEN} 0 ${WIDTH} 0 ${WIDTH} units box
region all block 0 51.0356813265606 0 ${WIDTH} 0 ${WIDTH} units box
region all block 0 51.0356813265606 0 31.8973008291045 0 ${WIDTH} units box
region all block 0 51.0356813265606 0 31.8973008291045 0 31.8973008291045 units box
create_box 1 all
Created orthogonal box = (0.0000000 0.0000000 0.0000000) to (51.035681 31.897301 31.897301)
  2 by 1 by 2 MPI processor grid

# fill box with randomly distributed atoms
#
create_atoms 1 random 1672 63782 all
Created 1672 atoms
  create_atoms CPU = 0.000 seconds
mass 1 18.015
group water region all
1672 atoms in group water

# Define potential
#
pair_style sw
pair_coeff * * ML.sw mW
Reading sw potential file ML.sw with DATE: 2019-02-27

# Run minimization
#
minimize 1.0e-8 1.0e-8 10000 1000
WARNING: Using 'neigh_modify every 1 delay 0 check yes' setting during minimization (../min.cpp:187)
Neighbor list info ...
  update every 1 steps, delay 0 steps, check yes
  max neighbors/atom: 2000, page size: 100000
  master list distance cutoff = 6.0032907
  ghost atom cutoff = 6.0032907
  binsize = 3.0016454, bins = 18 11 11
  1 neighbor lists, perpetual/occasional/extra = 1 0 0
  (1) pair sw, perpetual
      attributes: full, newton on
      pair build: full/bin/atomonly
      stencil: full/bin/3d
      bin: standard
Per MPI rank memory allocation (min/avg/max) = 4.229 | 4.230 | 4.231 Mbytes
Step Temp E_pair E_mol TotEng Press 
       0            0     10627782            0     10627782     18964415 
     566            0   -17995.361            0   -17995.361   -1152.3041 
Loop time of 1.14196 on 4 procs for 566 steps with 1672 atoms

99.8% CPU use with 4 MPI tasks x no OpenMP threads

Minimization stats:
  Stopping criterion = energy tolerance
  Energy initial, next-to-last, final = 
      10627782.2286006  -17995.3611070729  -17995.3612836977
  Force two-norm initial, final = 5.6373785e+08 0.10720348
  Force max component initial, final = 3.1726006e+08 0.024363501
  Final line search alpha, max atom move = 1.0000000 0.024363501
  Iterations, force evaluations = 566 920

MPI task timing breakdown:
Section |  min time  |  avg time  |  max time  |%varavg| %total
---------------------------------------------------------------
Pair    | 0.62804    | 0.82058    | 1.0756     |  21.0 | 71.86
Neigh   | 0.016322   | 0.019277   | 0.022737   |   1.9 |  1.69
Comm    | 0.021461   | 0.28016    | 0.47599    |  36.4 | 24.53
Output  | 0          | 0          | 0          |   0.0 |  0.00
Modify  | 0          | 0          | 0          |   0.0 |  0.00
Other   |            | 0.02195    |            |       |  1.92

Nlocal:        418.000 ave         438 max         403 min
Histogram: 1 0 1 0 1 0 0 0 0 1
Nghost:        1077.75 ave        1096 max        1068 min
Histogram: 2 0 0 1 0 0 0 0 0 1
Neighs:        0.00000 ave           0 max           0 min
Histogram: 4 0 0 0 0 0 0 0 0 0
FullNghs:      11610.5 ave       12539 max       10977 min
Histogram: 1 0 0 2 0 0 0 0 0 1

Total # of neighbors = 46442
Ave neighs/atom = 27.776316
Neighbor list builds = 21
Dangerous builds = 0

# Add velocity/set timestep
#
velocity all create ${TEMP} 120598 rot yes dist gaussian
velocity all create 289 120598 rot yes dist gaussian
timestep 10.0

# Define output
#
compute 1 all msd
thermo 50
thermo_style custom step temp press vol etotal ke pe c_1[4]

# Neighbor lists
#
neigh_modify delay 0 every 1 check yes

# Set fixes
#
fix 1 all momentum 10 linear 1 1 1 rescale
fix 2 all nve
fix 3 all temp/csvr ${TEMP} ${TEMP} 500.0 928347
fix 3 all temp/csvr 289 ${TEMP} 500.0 928347
fix 3 all temp/csvr 289 289 500.0 928347
fix 4 all press/berendsen iso ${PRES} ${PRES} 1000.0 modulus 20000
fix 4 all press/berendsen iso -500 ${PRES} 1000.0 modulus 20000
fix 4 all press/berendsen iso -500 -500 1000.0 modulus 20000

# Run 1 ns equilibration
#
dump 1 all atom 1000 eq.water.${NAME}.dump
dump 1 all atom 1000 eq.water.icewater_289K_500atm_ML_DC.dump
run 100000
Per MPI rank memory allocation (min/avg/max) = 3.479 | 3.480 | 3.481 Mbytes
Step Temp Press Volume TotEng KinEng PotEng c_1[4] 
     566          289    114.93815    51925.631   -16555.871    1439.4898   -17995.361            0 
     600    180.47473   -175.16472    52056.876    -16092.04    898.93266   -16990.973   0.38626973 
     650    223.85288   -790.48671    51760.973   -15657.853    1114.9963    -16772.85   0.99027218 
     700    244.02901    -622.3373    51623.338   -15480.253    1215.4923   -16695.746    1.5857123 
     750    253.24761   -993.23423    51529.283   -15328.497    1261.4095   -16589.906    2.2908508 
     800    267.30949    20.277964    51593.573   -15198.931    1331.4508   -16530.381    3.2150977 
     850    267.52795   -315.48222    51690.917   -15074.621    1332.5389    -16407.16    3.9699359 
     900    270.43655   -545.22408    51316.068    -15080.77    1347.0265   -16427.797    4.8490114 
     950    293.99809   -599.00022    51286.274   -14996.456     1464.385   -16460.841    5.9202937 
    1000    280.19354   -657.38105    51400.007    -14954.85    1395.6254   -16350.475    6.7861123 
    1050     291.6632   -542.01671    51203.582   -14919.421     1452.755   -16372.176     7.884047 
    1100    284.22942   -640.38151    51210.802   -14903.518    1415.7279   -16319.246     8.999954 
    1150    287.80352   -674.05971     51232.35   -14838.171    1433.5302   -16271.701    10.063236 
    1200    292.64996   -91.863821    51105.579   -14802.936      1457.67   -16260.606    11.509048 
    1250    286.92799   -923.93326    50879.478   -14844.743    1429.1693   -16273.912    12.778643 
    1300    286.88239   -198.16937    50816.461   -14863.208    1428.9422    -16292.15    13.856735 
    1350    295.05199   -515.67804    50751.521   -14862.528    1469.6344   -16332.163     14.92413 
    1400    286.09452   -181.17024    50710.166     -14852.9    1425.0178   -16277.918    15.995164 
    1450    288.58603    -242.1363     50918.01   -14812.291    1437.4278   -16249.719    16.894796 
    1500    286.04727   -333.57535    50984.075   -14873.819    1424.7825   -16298.601    18.143892 
    1550    286.63055   -573.73598    51052.128   -14895.168    1427.6877   -16322.855    19.154562 
    1600    292.75868    -621.4773    50896.904    -14907.05    1458.2116   -16365.262     20.30506 
    1650     294.5199   -638.81039    50922.571   -14879.668    1466.9841   -16346.652    21.427674 
    1700    287.83683   -448.53286    51184.641   -14881.936    1433.6961   -16315.633    22.729283 
    1750    288.20331   -694.95839     50893.91     -14847.4    1435.5216   -16282.922    23.832336 
    1800    296.67947     9.944625    50813.929   -14853.311    1477.7407   -16331.052    24.937677 
    1850    301.28964    -479.1479    50853.764   -14848.172    1500.7037   -16348.875    26.658407 
    1900    288.14189   -430.56918    51015.854   -14854.158    1435.2156   -16289.373    28.255706 
    1950    289.49572   -65.908043    50788.462   -14869.951    1441.9589    -16311.91    29.020846 
    2000    291.61373   -639.21227    50741.006   -14895.253    1452.5086   -16347.762    29.743645 
    2050    291.98944   -485.59587    50786.258   -14914.439      1454.38   -16368.819    30.707205 
    2100    285.97371   -830.48328    50759.934   -14920.145    1424.4161   -16344.561    32.004236 
    2150    286.26208       48.219    50835.568   -14858.214    1425.8524   -16284.067    33.051766 
    2200    293.75748   -305.75698     50839.46   -14850.925    1463.1865   -16314.111    34.379126 
    2250     290.2231   -408.21308    50797.951   -14865.388     1445.582    -16310.97    35.457633 
    2300    284.32482    34.400391    50802.655   -14864.628     1416.203   -16280.831     36.71542 
    2350    290.77325    -654.4364    50762.959   -14878.529    1448.3223   -16326.851    37.309268 
    2400    290.01189   -979.70426    50732.897   -14837.343      1444.53   -16281.873    38.208856 
    2450    301.89978   -571.25888    50673.986   -14792.129    1503.7427   -16295.871    39.681386 
    2500    290.21338   -545.21204    50811.129   -14776.053    1445.5336   -16221.586    40.981971 
    2550    297.38139   -391.68639    50912.005   -14767.798     1481.237   -16249.035    42.332553 
    2600    293.34071   -624.40559    50565.455    -14800.88    1461.1106    -16261.99    43.665212 
    2650    282.11108   -212.05534    50689.398   -14864.337    1405.1765   -16269.514    45.388455 
    2700    285.70384   -1035.1723    50707.864   -14864.326    1423.0719   -16287.398    46.767087 
    2750    287.18423   -150.80908    50887.628   -14832.237    1430.4456   -16262.683    48.059018 
    2800    292.86492   -884.84055    50892.803   -14853.349    1458.7407    -16312.09    48.881702 
    2850     304.3262   -477.60352    50782.522   -14842.453    1515.8286   -16358.282    49.650621 
    2900    289.65791    278.55326    50804.293   -14866.196    1442.7668   -16308.963    50.842375 
    2950     292.8255   -345.25148    50982.139   -14852.898    1458.5444   -16311.442    52.416841 
    3000    284.38611   -474.61092    51127.551   -14883.422    1416.5083    -16299.93    54.348487 
    3050      283.628   -726.72776    51080.768   -14842.765    1412.7322   -16255.498    55.315926 
    3100    295.63475   -260.08896    50998.728   -14862.942    1472.5371   -16335.479    56.039252 
    3150    290.66265   -497.30088    51049.907   -14810.438    1447.7714    -16258.21    57.281174 
    3200    290.52625   -656.99864    51000.806   -14856.931     1447.092   -16304.023     58.41902 
    3250    287.81931   -194.06257    51199.771    -14864.14    1433.6089   -16297.749    59.566258 
    3300     298.5244   -836.38696     51197.72   -14842.248    1486.9302   -16329.178    60.699814 
    3350    290.87928   -640.13421    51114.002   -14854.249    1448.8504     -16303.1     62.49959 
    3400    291.87725   -922.46964    51071.901   -14846.747    1453.8212   -16300.568    64.172222 
    3450    297.50259     -794.343     50940.52   -14842.349    1481.8406    -16324.19    65.099368 
    3500    291.11052   -143.17485    51118.322   -14859.511    1450.0022   -16309.514    65.854101 
    3550    286.85224   -587.30133    51047.767    -14882.97     1428.792   -16311.762    66.124587 
    3600    298.68265   -505.43811    51093.688   -14808.933    1487.7185   -16296.651    67.629359 
    3650    297.17113     -431.069    51079.012   -14847.909    1480.1897   -16328.099    69.299813 
    3700     289.5369   -464.54282    50880.282   -14892.092    1442.1641   -16334.256    70.114749 
    3750    286.70339   -795.06461    50675.111   -14944.026    1428.0505   -16372.076    70.745946 
    3800    286.06208    -506.8286    50625.995   -14972.795    1424.8562   -16397.652    71.199205 
    3850    279.88861   -390.96469    50716.536   -15017.642    1394.1066   -16411.749    72.769982 
    3900    277.59076     -281.174    50881.985   -14955.575    1382.6612   -16338.236    73.493749 
    3950    283.89239    -687.9538     50997.76   -14915.073    1414.0491   -16329.122    74.421148 
    4000    284.43748   -1061.8226    50819.742   -14886.962    1416.7642   -16303.726    75.299966 
    4050    292.97004   -742.01086    50750.963   -14888.255    1459.2643   -16347.519    76.676731 
    4100    293.03753   -218.82971    51012.258   -14892.765    1459.6005   -16352.366    78.409597 
    4150    285.85505    -500.0522    51182.086   -14896.903     1423.825   -16320.728    79.920222 
    4200    293.91106   -761.04666    51132.308   -14853.745    1463.9515   -16317.697     81.03755 
    4250    279.80206   -7.3394055      51067.4   -14934.826    1393.6755   -16328.501    82.354247 
    4300    295.41168   -464.19029    51001.651   -14854.909     1471.426   -16326.335    83.388923 
    4350    297.77288   -459.16304    50805.302   -14842.531    1483.1869   -16325.718    84.027036 
    4400    284.75674   -789.47691    50889.493   -14830.515    1418.3544    -16248.87     85.31448 
    4450    292.82708   -415.42244    50910.033   -14808.948    1458.5522     -16267.5    87.053701 
    4500    299.18097   -544.65318    50856.388     -14849.3    1490.2006   -16339.501    88.940952 
    4550    281.88625   -208.46021    50756.993   -14915.521    1404.0567   -16319.578    89.873738 
    4600    286.54273   -416.00099    50804.785   -14895.494    1427.2503   -16322.745    90.977201 
    4650    286.36313    -838.1443    50669.737   -14922.172    1426.3557   -16348.528    92.619263 
    4700    292.93636   -528.25208    50735.497   -14866.218    1459.0966   -16325.315    93.487193 
    4750    288.61309    -101.3784    50786.334   -14858.549    1437.5626   -16296.112     95.04738 
    4800    286.87749    -765.2335    50973.259   -14845.945    1428.9177   -16274.863    97.211426 
    4850    285.18702    -453.4457     50864.45   -14940.663    1420.4976   -16361.161    98.108049 
    4900    287.15214   -176.54141    50901.258   -14947.853    1430.2857   -16378.139    98.983863 
    4950    295.25647   -665.03308    50933.494   -14868.294    1470.6529   -16338.947    101.29783 
    5000    293.09147    -626.3206    50816.567    -14900.04    1459.8692   -16359.909     103.1095 
    5050    284.00191   -62.327842    50735.633    -14929.65    1414.5947   -16344.245    104.40663 
    5100    287.24519   -388.30554    50825.594   -14918.768    1430.7492   -16349.517    105.67491 
    5150    284.15598   -786.36426     50689.62   -15002.171    1415.3621   -16417.533     106.5091 
    5200    293.36771    -1027.743    50585.334   -14872.561    1461.2451   -16333.806    107.73155 
    5250     281.3074   -480.57162     50504.26   -14890.462    1401.1735   -16291.635    108.95593 
    5300    295.46449   -213.44086    50544.088   -14803.259     1471.689   -16274.948    110.01375 
    5350    297.72446   -361.61287    50531.088    -14808.09    1482.9458   -16291.036    111.17995 
    5400    292.36678   -213.33037    50729.567    -14801.52    1456.2595   -16257.779    112.84435 
    5450    293.99855   -527.46423    50682.591   -14789.142    1464.3873   -16253.529    114.81679 
    5500    292.10313    20.543344    50705.176   -14768.943    1454.9463    -16223.89    116.93715 
    5550    294.57487   -791.15081    50809.963   -14828.265    1467.2579   -16295.523    118.32283 
    5600    286.21036   -274.76848    50795.659    -14899.31    1425.5948   -16324.905    119.07134 
    5650    298.19359    25.986816     50763.18   -14847.522    1485.2825   -16332.804    120.75086 
    5700    299.57356   -532.78805    50946.782   -14833.455     1492.156   -16325.611    122.65987 
    5750    305.27268   -549.84502    50950.768   -14818.205    1520.5429   -16338.748    123.41044 
    5800    289.35447   -698.48229    50944.567     -14923.6    1441.2554   -16364.856    123.77942 
    5850    281.69028   -437.39713    50968.106   -14928.491    1403.0806   -16331.572    124.49574 
    5900    288.32158   -39.747808    50954.343     -14941.8    1436.1106    -16377.91    126.33083 
    5950    289.41776   -423.71705    50965.873   -14926.383    1441.5707   -16367.954    127.17355 
    6000    280.77019   -694.45042    50905.946   -14947.047    1398.4977   -16345.545    127.64115 
    6050    286.47591   -142.66054    50873.591   -14929.895    1426.9175   -16356.812    128.93237 
    6100    284.95617   -411.06023    51004.523   -14937.509    1419.3478   -16356.856    129.98082 
    6150    279.89277   -979.76485    50867.688   -14985.045    1394.1273   -16379.172    131.20638 
    6200    280.94642   -714.58779    50792.963   -14964.972    1399.3755   -16364.347     132.3926 
    6250    286.62503   -41.653236    50992.974   -14916.338    1427.6602   -16343.998    133.72866 
    6300    289.15395   -661.01949    50822.348       -14902    1440.2566   -16342.256      134.756 
    6350    281.25156   -543.50558    50759.179   -14894.218    1400.8954   -16295.113    136.00523 
    6400    290.96695   -138.14714    50772.637   -14862.709     1449.287   -16311.996    137.45642 
    6450     286.1919   -602.18665    50597.672    -14932.58    1425.5028   -16358.082     138.1585 
    6500    279.55653    11.530505    50573.207   -14949.243    1392.4525   -16341.695    138.86026 
    6550    278.06668   -647.64881    50512.425   -14977.961    1385.0317   -16362.993    139.37924 
    6600     286.7047   -609.89155    50655.541   -14936.218    1428.0571   -16364.275    141.53362 
    6650    281.61024   -470.39038    50710.573   -14976.122    1402.6819   -16378.804    143.02909 
    6700    283.62121   -550.08007    50701.715   -14972.695    1412.6984   -16385.394    144.74657 
    6750    281.49694   -726.32202    50756.767    -14959.81    1402.1176   -16361.928     145.8812 
    6800    288.37717   -541.60965    50853.693   -14930.729    1436.3875   -16367.117    146.19337 
    6850    286.67961    -496.8279     50813.32   -14886.782    1427.9321   -16314.714     146.7429 
    6900    294.50548   -757.00894    50704.993   -14848.284    1466.9123   -16315.197    147.04737 
    6950    291.92063   -526.10159    50387.083   -14903.907    1454.0373   -16357.944     147.8706 
    7000    281.63222   -344.18051    50604.122   -14951.148    1402.7914   -16353.939    149.49109 
    7050    292.31709   -678.10285    50692.192   -14957.417     1456.012   -16413.429    150.69569 
    7100     285.0027   -642.99058    50696.197   -14957.984    1419.5795   -16377.563    150.88274 
    7150    285.62413   -365.06323    50805.135   -15003.936    1422.6748   -16426.611    151.94464 
    7200    285.62196   -446.78819    50745.548   -14966.199     1422.664   -16388.864    153.33509 
    7250    289.12091   -375.31556    50888.633   -14955.181    1440.0921   -16395.273    155.07312 
    7300    279.57319   -400.66818     50930.05   -14994.796    1392.5355   -16387.331    156.17998 
    7350    283.73936   -750.35866    50821.428   -14966.787    1413.2869   -16380.074    156.64957 
    7400    284.27303   -608.71891    50916.859   -14939.607    1415.9451   -16355.552    158.73797 
    7450    289.30098   -977.07952    50948.896   -14902.451     1440.989    -16343.44     160.6213 
    7500     290.4758   -680.96822    50919.155   -14884.905    1446.8407   -16331.746    161.99928 
    7550    287.71835   -382.34141    51067.751    -14892.37     1433.106   -16325.476    162.69678 
    7600    283.15347    -30.84833    50958.734   -14831.918    1410.3686   -16242.287    163.96282 
    7650    283.83079   -695.14026    51045.478   -14885.452    1413.7423   -16299.194    165.92888 
    7700    281.78441   -332.10995     50901.85   -14863.711    1403.5494   -16267.261    166.44112 
    7750    277.63887   -538.15502    50762.548   -14927.249    1382.9008    -16310.15    167.92567 
    7800     284.8019   -230.43173    50754.079   -14956.126    1418.5794   -16374.705    170.17813 
    7850    288.27578   -394.06637    50793.129   -14990.427    1435.8825   -16426.309    171.28016 
    7900    286.54634   -460.04222    50926.043   -14977.895    1427.2683   -16405.164    172.29397 
    7950    274.86684   -448.94664    50839.278   -14976.384    1369.0935   -16345.477    171.82648 
    8000    287.54623   -381.18421    50801.521   -14948.307    1432.2487   -16380.556    172.77363 
    8050    287.97513    -541.7431    50753.048   -14917.046     1434.385   -16351.431    173.72078 
    8100    291.29446   -477.75287     50829.86   -14912.873    1450.9183   -16363.791    175.01213 
    8150    281.31221   -52.334688    50634.639    -14955.05    1401.1974   -16356.248    175.65526 
    8200    281.42085   -369.62586    50756.346   -14913.956    1401.7386   -16315.694    176.67608 
    8250    287.96553   -200.55251    50933.071    -14883.23    1434.3372   -16317.567    178.25468 
    8300    284.64297   -643.55757    50999.303   -14934.045    1417.7877   -16351.833     179.7163 
    8350    286.48794   -209.14365    51221.338    -14920.46    1426.9774   -16347.437    181.22761 
    8400    281.19483   -550.64674    51253.589   -14988.413    1400.6128   -16389.026    182.73803 
    8450    274.66429   -999.49941    51075.899   -14946.827    1368.0846   -16314.912    184.07831 
    8500    292.61492    -465.1906    50901.344    -14863.59    1457.4955   -16321.086      184.765 
    8550    300.09036    -110.3503    51037.125   -14867.021    1494.7301   -16361.751    186.04577 
    8600    289.83521   -317.85597    50962.406   -14861.286    1443.6499   -16304.936    187.81506 
    8650    288.98801    -693.9714    50898.598   -14876.967    1439.4301   -16316.397    188.92839 
    8700    296.39138    45.773872    51042.087   -14810.339    1476.3058   -16286.645    191.15201 
    8750    302.65238   -706.59126    50984.243   -14864.957    1507.4914   -16372.449     191.5119 
    8800    298.32481   -813.51431    51104.296   -14851.484     1485.936    -16337.42    193.13578 
    8850    292.06466    -574.6551    51240.057   -14844.423    1454.7547   -16299.178     194.7955 
    8900     291.6299   -652.15928    51227.045   -14829.459    1452.5892   -16282.048    196.31572 
    8950    296.52313    -874.8301    51090.424   -14788.642     1476.962   -16265.604    197.65948 
    9000    296.59359   -270.11027    50912.412   -14833.983     1477.313   -16311.296    198.38363 
    9050    291.67156   -767.69212    50836.809   -14876.694    1452.7967   -16329.491    199.00792 
    9100    284.10191   -576.49762    50935.361   -14906.208    1415.0927     -16321.3    200.23555 
    9150    284.60626   -483.70152    50984.123   -14900.965    1417.6049    -16318.57    201.79675 
    9200    279.57285   -619.41347     50848.05   -14928.087    1392.5338    -16320.62    202.48665 
    9250    296.62724   -555.68538    50903.339   -14858.801    1477.4806   -16336.281    203.28146 
    9300    288.42926   -125.78253     51049.24     -14885.2     1436.647   -16321.847    204.53843 
    9350    288.42885   -721.53924    50944.241   -14906.993    1436.6449   -16343.638    204.54467 
    9400    287.10951   -431.86129    50865.789   -14880.389    1430.0734   -16310.462    205.59738 
    9450    276.16093    69.424444    50900.697   -14911.299    1375.5393   -16286.838    208.12524 
    9500    292.83622   -733.65181    50918.902    -14945.02    1458.5977   -16403.618    209.31858 
    9550    284.28455   -87.656892    50893.806    -14963.13    1416.0025   -16379.132    210.46613 
    9600    288.83429   -642.45436    50909.929   -14902.653    1438.6644   -16341.318    212.42751 
    9650    295.69551   -730.14009    50982.878   -14906.277    1472.8397   -16379.117    213.03805 
    9700    285.55175   -842.99965     50979.42   -14939.979    1422.3143   -16362.293    215.44691 
    9750    295.04276   -456.83068    50982.762   -14887.697    1469.5884   -16357.286    215.94758 
    9800    286.62567   -702.18632    50915.178   -14854.024    1427.6634   -16281.687    216.63625 
    9850    287.70803   -771.72075    50799.596   -14913.064    1433.0546   -16346.118    217.13747 
    9900    283.87749   -249.43938    50816.784   -14961.762    1413.9749   -16375.737    218.31442 
    9950     282.1381   -337.18188    50927.298     -14939.3    1405.3111   -16344.611    220.52923 
   10000    281.13376   -616.65788    50872.737   -14910.153    1400.3086   -16310.461    221.36469 
   10050    295.31452    -294.6204    50882.839   -14925.366     1470.942   -16396.308    222.45659 
   10100    281.44135   -415.23509    51098.067   -14942.139    1401.8407    -16343.98    224.26873 
   10150    282.67962   -710.46182    50966.012   -14945.347    1408.0084   -16353.355    225.04765 
   10200    281.12783   -353.93561    50834.817   -14926.679     1400.279   -16326.958    225.87188 
   10250    289.32417   -85.865389    50933.072   -14886.386    1441.1045    -16327.49    227.72077 
   10300    299.15564   -594.29556     51320.37   -14861.017    1490.0744   -16351.091    229.77004 
   10350    285.51291   -866.72975    51124.849   -14859.026    1422.1208   -16281.147     230.7669 
   10400    291.97156    -216.7513    51165.889   -14846.925    1454.2909   -16301.216    231.32043 
   10450    294.20685   -511.41497    51200.983   -14861.084    1465.4248   -16326.509    231.86552 
   10500    286.85205   -621.69076    51137.343   -14867.825     1428.791   -16296.616    231.88431 
   10550     298.9923    -635.4391    51277.596   -14865.249    1489.2608   -16354.509    233.62263 
   10600    287.15032   -535.52737    51242.294   -14914.564    1430.2767   -16344.841    233.40887 
   10650    285.51567   -728.55201    51039.753   -14858.441    1422.1346   -16280.576    233.14477 
   10700    292.14111   -680.50259    50996.648   -14845.954    1455.1355   -16301.089    235.50019 
   10750    293.01353   -754.96294    51012.336   -14833.079    1459.4809    -16292.56    237.20636 
   10800    296.96911   -419.24892    50895.511   -14803.607    1479.1834   -16282.791    238.14171 
   10850    286.01906   -502.65669    50850.028   -14823.635    1424.6419   -16248.277    239.44761 
   10900    296.13421   -129.08538    51023.514   -14803.787    1475.0249   -16278.812    241.63194 
   10950    285.28975   -438.49934    51073.409   -14817.603    1421.0093   -16238.613    242.81445 
   11000     287.3721   -945.43304    50941.308   -14824.195    1431.3814   -16255.577     244.0418 
   11050    295.52295    -374.8499    50934.424   -14859.125    1471.9802   -16331.105    244.54127 
   11100    294.55308   -676.80729      50831.4   -14866.938    1467.1493   -16334.087    244.66538 
   11150    292.09546   -140.73507    50914.366   -14926.801    1454.9081   -16381.709    246.13051 
   11200    286.28274   -179.12643    50870.243   -14937.617    1425.9553   -16363.573    247.16076 
   11250    287.27712   -24.999598    50821.475   -14943.069    1430.9083   -16373.978    248.45943 
   11300    284.91037   -778.06295    50805.364    -14916.92    1419.1196    -16336.04    250.15675 
   11350    281.38957   -150.48705    50749.554   -14956.338    1401.5828   -16357.921    252.25457 
   11400    288.87504   -675.70852    50676.171   -15003.516    1438.8674   -16442.384    252.83846 
   11450    284.66045   -416.34772    50767.981   -15005.641    1417.8748   -16423.516    254.23184 
   11500    288.51511   -892.90156    50704.377   -14999.603    1437.0746   -16436.678    255.06867 
   11550    281.26638   -738.92552    50827.209   -15035.423    1400.9692   -16436.392    256.29767 
   11600    290.87651   -745.62285    50831.378   -14971.538    1448.8366   -16420.375    257.57499 
   11650    287.67735   -295.55692    50857.214   -14879.422    1432.9018   -16312.323     258.5756 
   11700    296.32166   -452.13221    50923.757   -14883.565    1475.9585   -16359.524    260.57197 
   11750    282.49571   -748.52334    51072.736   -14921.007    1407.0923   -16328.099     262.4603 
   11800    280.60566   -679.92455    51003.555   -14979.268    1397.6781   -16376.946    262.56511 
   11850    281.80756   -1001.7705    51042.142   -14967.814    1403.6647   -16371.479    263.59018 
   11900    280.55636   -498.07035    51154.946   -14932.804    1397.4326   -16330.236    264.02032 
   11950    277.50072    -515.6297    51098.401   -14936.179    1382.2127   -16318.392      264.045 
   12000    290.66669   -804.46133    51069.876   -14865.531    1447.7915   -16313.323     264.0384 
   12050    289.14778   -577.79642    51007.761   -14899.964    1440.2259    -16340.19    265.15155 
   12100    290.22638   -702.44302     50995.74   -14843.279    1445.5983   -16288.877    266.06474 
   12150    296.04821   -666.53646    51163.492    -14806.26    1474.5965   -16280.857    268.19122 
   12200     296.3975   -1003.6418    51052.867     -14845.4    1476.3363   -16321.737    269.82968 
   12250    293.81208   -752.89271    50992.658   -14821.524    1463.4585   -16284.982    271.05403 
   12300    291.39238   -615.90128    50921.849     -14788.5    1451.4061   -16239.906    272.46881 
   12350    285.78477    -350.0807    50811.706   -14799.569    1423.4749   -16223.044    272.86595 
   12400    288.55988   -746.79758    50592.023   -14853.123    1437.2976   -16290.421    274.00526 
   12450    288.90137   -721.70131    50471.764   -14880.559    1438.9985   -16319.558    274.60457 
   12500    291.38338   -46.926165    50424.315   -14894.513    1451.3613   -16345.874    275.97183 
   12550    291.55489   -570.65344    50580.189   -14885.268    1452.2155   -16337.483     277.2504 
   12600    284.34822   -151.19877    50613.515   -14846.642    1416.3196   -16262.961      279.381 
   12650     296.5467   -269.07268    50812.658   -14865.505    1477.0794   -16342.584     281.1825 
   12700    291.86584   -871.58619    50628.509   -14900.085    1453.7644   -16353.849    281.19346 
   12750    289.91097   -388.24916     50619.79   -14907.322    1444.0273   -16351.349    282.61935 
   12800    281.72651   -946.83238    50628.915   -14878.771    1403.2611   -16282.032    283.32457 
   12850    292.43385   -408.22101    50493.335   -14902.067    1456.5936    -16358.66    283.61701 
   12900    285.89583    -765.3222    50471.052   -14935.942    1424.0282    -16359.97    284.00174 
   12950    279.64208   -256.53891    50383.589   -14921.477    1392.8786   -16314.355    285.05191 
   13000    295.41953   -480.40708    50543.338   -14861.111    1471.4651   -16332.576    286.85406 
   13050     292.0768    -363.1875     50634.38    -14832.91    1454.8152   -16287.725    289.30931 
   13100    295.22991   -707.28757    50806.122   -14804.437    1470.5206   -16274.957     290.9893 
   13150    300.44638    140.25682    50888.696   -14808.161    1496.5035   -16304.664    291.91032 
   13200    301.63021   -628.62105     50896.23   -14799.883    1502.4001   -16302.283    293.12115 
   13250    289.69203   -469.52646    50965.468    -14838.99    1442.9368   -16281.927    294.34093 
   13300    291.28023   -1044.8073    50894.932   -14857.864    1450.8475   -16308.712    294.93513 
   13350    292.77635   -794.11404    50827.975   -14889.364    1458.2996   -16347.664    295.95208 
   13400    287.03991   -910.26178     50771.51   -14866.992    1429.7267   -16296.718    296.45073 
   13450    279.97689   -441.95524    50777.161   -14869.096    1394.5463   -16263.642     297.6534 
   13500    294.11041   -194.93182    50766.552   -14891.846    1464.9444    -16356.79    298.78838 
   13550    281.85844   -589.19058     50929.64   -14886.408    1403.9181   -16290.326    300.46584 
   13600    299.21313   -339.92269    50943.299   -14911.467    1490.3607   -16401.828    302.09133 
   13650     282.1283   -642.17382    50846.052   -14924.999    1405.2623   -16330.262    302.82737 
   13700    288.11701   -876.61951    50822.895   -14929.838    1435.0917    -16364.93    303.02538 
   13750    288.18094   -799.38936    50791.824   -14960.596    1435.4101   -16396.007    303.00339 
   13800    280.01679   -275.99423    50904.514   -14953.421    1394.7451   -16348.166    304.20598 
   13850    283.18336   -76.404077    51046.029   -14933.559    1410.5175   -16344.077    305.73855 
   13900    285.23002   -814.96026    50922.331   -14937.239    1420.7118   -16357.951    306.06972 
   13950    290.03501   -557.16536    50957.376   -14916.737    1444.6451   -16361.382    307.46201 
   14000    273.40177    -396.6804    50849.278   -14952.906    1361.7961   -16314.702    307.39491 
   14050    282.55072    -629.6077    50844.077   -14889.018    1407.3664   -16296.384    308.71417 
   14100    284.99435   -477.24074    50714.923   -14883.719    1419.5379   -16303.257    309.60473 
   14150    295.43675   -392.97675    50963.879   -14889.135    1471.5508   -16360.685    312.47968 
   14200    293.41563   -546.41722    50789.159   -14894.418    1461.4838   -16355.902    313.37946 
   14250    278.99731   -575.31438    50753.839   -14939.603    1389.6671    -16329.27    313.40641 
   14300    285.14344   -772.01313    50844.979   -14915.673    1420.2806   -16335.953    314.08344 
   14350     284.2029   -359.47518    50580.891   -14886.439    1415.5958   -16302.035    313.58809 
   14400    293.39322   -807.23961    50453.362   -14911.897    1461.3721    -16373.27    314.48271 
   14450    288.99311   -454.23436    50600.227    -14920.59    1439.4555   -16360.046    315.47418 
   14500    286.37733   -460.78338    50590.101   -14870.815    1426.4264   -16297.242    317.26706 
   14550    294.73542   -578.22112    50836.408   -14813.881    1468.0576   -16281.938    319.26115 
   14600    300.34326   -467.67479    50824.891   -14775.349    1495.9898   -16271.339    320.25944 
   14650    299.39715   -399.47475    50942.826   -14812.833    1491.2773   -16304.111     322.0569 
   14700    290.64658   -350.39828    50840.764   -14864.815    1447.6913   -16312.506     322.4926 
   14750    293.46339   -740.51936    50746.234   -14903.272    1461.7217   -16364.993    322.53731 
   14800    294.17401   -343.90835    50682.811   -14910.484    1465.2612   -16375.745    324.33231 
   14850    280.91865   -674.49815    50800.168   -14909.688    1399.2371   -16308.925     326.4517 
   14900    286.52742   -354.52304      50732.3   -14955.742    1427.1741   -16382.916    327.45921 
   14950    284.19149   -602.54303    50691.783   -14945.581    1415.5389    -16361.12    328.16781 
   15000    297.13849   -459.21215    50662.225   -14951.147    1480.0271   -16431.175    327.64962 
   15050    284.66788   -640.32395    50825.747   -14933.529    1417.9118   -16351.441    328.53174 
   15100    289.67126    -706.1871    51012.585   -14930.422    1442.8333   -16373.256    330.40286 
   15150     290.5338   -350.83775    50862.662   -14967.162    1447.1296   -16414.291    329.95416 
   15200    295.25163   -121.04656    50760.755   -14923.583    1470.6287   -16394.212    330.30745 
   15250    291.31813   -337.12236    50901.521   -14912.273    1451.0363   -16363.309    332.06225 
   15300      295.368    -896.3063    50943.195    -14936.41    1471.2084   -16407.618    333.55177 
   15350    302.06734   -536.29578    50923.706   -14851.354    1504.5774   -16355.931    334.61046 
   15400     292.0772    -399.6568    50960.562   -14892.605    1454.8171   -16347.422    336.37332 
   15450     292.1485   -758.83466    50945.833     -14916.7    1455.1723   -16371.872    337.22358 
   15500    301.06797   -549.20119    50895.293    -14897.81    1499.5996    -16397.41    337.32271 
   15550    283.83948   -374.79079     50805.08   -14953.412    1413.7856   -16367.198    338.76051 
   15600    293.25622   -57.626891    50927.732   -14928.378    1460.6897   -16389.068    340.20613 
   15650    286.29843   -588.67322    50977.724   -14924.413    1426.0335   -16350.447    341.59344 
   15700    290.88031   -704.48619    50906.598   -14939.584    1448.8555    -16388.44    342.11939 
   15750      289.503   -620.06139    50770.305   -14930.892    1441.9952   -16372.887    343.04559 
   15800    283.48417   -480.71708    50831.321   -14900.436    1412.0158   -16312.452    344.22945 
   15850     289.1565   -327.41258    50885.052   -14916.975    1440.2693   -16357.245    345.90233 
   15900    294.73061   -255.83364    50962.599   -14937.542    1468.0336   -16405.576     347.2408 
   15950    290.57397   -366.56318        50907   -14949.019    1447.3296   -16396.349    348.30907 
   16000    280.89302    55.699681    51044.417   -14966.729    1399.1095   -16365.839    350.94888 
   16050    288.40861   -307.93278    51066.206   -14955.398    1436.5442   -16391.942    352.26874 
   16100    278.57632   -155.92112    50971.062   -14905.787    1387.5702   -16293.357    352.58703 
   16150    290.93229   -618.08101    50911.318   -14818.535    1449.1144   -16267.649    353.87999 
   16200     291.5696   -318.86135    51018.893   -14786.641    1452.2888    -16238.93    353.99887 
   16250    289.68662   -90.951416    51114.427   -14805.538    1442.9098   -16248.448    355.50524 
   16300    290.47177   -337.05338    51135.068   -14783.827    1446.8206   -16230.648    357.36109 
   16350    299.51478   -270.14298    51208.074   -14817.094    1491.8632   -16308.957     357.8898 
   16400    287.91844   -205.42922    51169.105    -14827.06    1434.1026   -16261.162    359.71568 
   16450    285.40984   -614.98815    51056.842   -14828.241    1421.6075   -16249.849    359.81785 
   16500    287.45741    -968.8144    50918.284   -14803.347    1431.8062   -16235.153    359.81516 
   16550    300.71663   -621.41396    50924.091   -14818.479    1497.8496   -16316.329    360.44937 
   16600    292.53485   -434.81464     50757.83   -14841.932    1457.0967   -16299.029    361.47674 
   16650    288.02162    -863.0325    50632.416   -14882.469    1434.6165   -16317.085    361.51675 
   16700    284.90416   -458.40242    50765.503   -14892.602    1419.0887   -16311.691    364.64034 
   16750    293.62978   -181.52697    50782.918   -14854.586    1462.5504   -16317.137    365.32452 
   16800    290.07483   -510.54735    50819.153   -14887.288    1444.8435   -16332.131    366.32919 
   16850    286.90161    -66.96178    51012.471   -14896.678    1429.0379   -16325.716    366.66124 
   16900     294.0118   -317.25917    51080.018   -14919.693    1464.4532   -16384.146    367.78822 
   16950    293.91747   -454.31068    51119.087   -14896.531    1463.9834   -16360.514       369.04 
   17000    284.30797   -452.50558    50836.265   -14925.363    1416.1191   -16341.482    368.64858 
   17050    291.80324   -527.64222    50806.934   -14882.737    1453.4526    -16336.19    369.44993 
   17100    295.75942   -221.55299    50953.773   -14831.952     1473.158    -16305.11    370.90341 
   17150    304.01851   -235.69587    51067.535   -14822.097     1514.296   -16336.393    374.31341 
   17200     296.6353   -305.19604    51008.222   -14795.356    1477.5207   -16272.877    375.94734 
   17250    288.21229   -333.10785    51014.715   -14870.009    1435.5663   -16305.575    376.78762 
   17300    292.29178   -763.34897    51030.318   -14822.978    1455.8859   -16278.864    377.69379 
   17350    287.02445    270.79472    51180.602   -14866.292    1429.6497   -16295.942    378.81719 
   17400    291.54437   -398.11543    51373.398   -14854.335    1452.1632   -16306.498    381.09148 
   17450    284.15779   -806.79206    51228.399   -14877.542    1415.3711   -16292.913    381.22129 
   17500    281.99663   -820.32268    50956.834   -14902.387    1404.6065   -16306.993    380.64108 
   17550     278.8283   -938.50688    50909.004   -14918.712    1388.8253   -16307.537    381.79714 
   17600    287.48869   -379.97864    50772.349   -14931.809    1431.9621   -16363.771    382.33659 
   17650    288.20628    -447.1584    50900.518   -14863.824    1435.5363   -16299.361    383.60251 
   17700    289.48316   -538.21851    50818.558   -14892.896    1441.8964   -16334.792    384.99394 
   17750    286.06341   -718.44498    50678.578    -14918.37    1424.8628   -16343.233    385.98826 
   17800    288.86959   -24.036088    50785.948   -14918.626    1438.8402   -16357.467    387.54717 
   17850    287.35714   -814.88435    50802.183   -14941.614    1431.3068   -16372.921    388.23482 
   17900    289.32254   -267.24891    51045.365   -14979.971    1441.0963   -16421.067    390.11469 
   17950    281.00769   -168.22827    51074.416   -14972.885    1399.6806   -16372.565    390.12795 
   18000    291.65497   -545.77704    51173.088   -14993.089     1452.714   -16445.803    391.98339 
   18050    287.73651   -386.10938    51179.198   -14917.654    1433.1965    -16350.85    393.55856 
   18100     293.4156   -706.80755    51190.467    -14905.14    1461.4836   -16366.624     394.3533 
   18150    282.63566   -317.07981    51314.017    -14878.56    1407.7894   -16286.349     396.7349 
   18200    293.50624   -431.71169     51265.22   -14915.687    1461.9351   -16377.622    397.66121 
   18250    282.62334   -65.503775    51440.491   -14903.415    1407.7281   -16311.143    398.25723 
   18300    285.87574   -745.28813    51302.357   -14928.719    1423.9281   -16352.647    398.81925 
   18350    288.35005   -639.74526    51191.336   -14954.917    1436.2525   -16391.169    399.07659 
   18400    290.42377   -366.54921     51118.63   -14929.173    1446.5815   -16375.755    397.51145 
   18450     290.4156   -582.39274     51253.57   -14892.584    1446.5408   -16339.125    400.00368 
   18500    297.70315    -1181.795    51030.623   -14869.944    1482.8396   -16352.784    400.70468 
   18550    282.52716   -638.41943    51095.181   -14898.882     1407.249   -16306.131     401.8776 
   18600    294.46347   -590.81479    50991.939    -14861.35     1466.703   -16328.053    402.24757 
   18650    294.87877   -797.84654    50811.117   -14836.664    1468.7716   -16305.435    402.20035 
   18700    292.50944   -136.12726    50781.194   -14843.947    1456.9701   -16300.917    402.42508 
   18750    287.02446   -335.79397    50676.878   -14872.147    1429.6498   -16301.796    402.75103 
   18800    294.82627   -330.92029    50742.985   -14831.176    1468.5101   -16299.686    405.13313 
   18850     298.7513   -279.29217    50667.257   -14820.145    1488.0604   -16308.205    406.10646 
   18900    295.54711     106.0459    50720.234   -14802.308    1472.1005   -16274.408    407.96789 
   18950    292.72461   -263.76178    50705.087   -14863.968    1458.0418    -16322.01    408.54368 
   19000    277.48474   -981.52373    50637.135   -14913.862     1382.133   -16295.995    409.96327 
   19050    280.02465   -152.03432    50667.816   -14867.078    1394.7842   -16261.862    410.37149 
   19100    284.49664   -494.70786    50551.778   -14859.449    1417.0589   -16276.508    411.97771 
   19150    283.16489   -462.76511    50338.015   -14852.073    1410.4255   -16262.499     411.4815 
   19200    293.94434   -255.36623    50532.675   -14801.346    1464.1172   -16265.464     413.6932 
   19250     286.9712   -392.40627    50496.985   -14859.212    1429.3845   -16288.596    415.17541 
   19300    290.88178   -424.57849    50632.299   -14849.771    1448.8628   -16298.634    417.53555 
   19350    286.26461   -541.23516    50879.564   -14883.012     1425.865   -16308.877    421.05418 
   19400    295.24427   -935.35929    50943.024   -14854.711    1470.5921   -16325.303    422.46969 
   19450    284.42306   -654.18567    50835.088   -14852.196    1416.6924   -16268.888    424.48416 
   19500    294.56462   -372.84829    50782.319   -14870.965    1467.2068   -16338.172    424.68027 
   19550    295.10781   -57.672239    50950.681   -14829.043    1469.9124   -16298.956    427.40116 
   19600    292.01794   -518.75202    50942.029   -14840.363     1454.522   -16294.885    427.63671 
   19650    287.24215   -565.81839     51084.78   -14866.553    1430.7341   -16297.287    428.94011 
   19700     294.7535   -817.68653     51043.37   -14829.872    1468.1476    -16298.02    430.70676 
   19750    289.24198   -314.28025    51000.187   -14880.607    1440.6951   -16321.302    432.17423 
   19800    284.28061   -796.94532    50739.541   -14879.698    1415.9829   -16295.681    432.50231 
   19850    294.91045   -523.02571    50738.275   -14839.577    1468.9294   -16308.507    434.70308 
   19900    301.98919   -486.12244    50831.445   -14782.706    1504.1881   -16286.894    437.88398 
   19950    296.24027   -450.98466    50984.051   -14826.315    1475.5531   -16301.868    439.44709 
   20000    296.91386   -574.10539    50935.422   -14824.937    1478.9082   -16303.845    439.95377 
   20050    288.96361   -739.36512    51096.182   -14842.323    1439.3085   -16281.632      442.588 
   20100    290.16886   -178.77355    51074.244   -14806.799    1445.3118   -16252.111    442.93151 
   20150    287.75237   -812.50524    51243.513    -14847.96    1433.2755   -16281.236    444.89488 
   20200    294.33036   -336.49321    51350.498   -14823.794      1466.04   -16289.834    447.84508 
   20250    299.75258   -697.13042    51349.292   -14781.704    1493.0477   -16274.752    449.17006 
   20300    286.59724    -752.2494    51321.414   -14826.053    1427.5218   -16253.575    449.39621 
   20350    290.44643   -530.08455    51230.651   -14808.988    1446.6944   -16255.683    448.55891 
   20400    288.83529   -609.23464    51034.842   -14792.769    1438.6694   -16231.439    446.97715 
   20450    290.83349   -926.86095    50929.866   -14787.303    1448.6223   -16235.925    445.99525 
   20500    290.44046   -910.22983    50837.049   -14867.921    1446.6646   -16314.586    446.33411 
   20550     288.6596   -322.88309    50764.788   -14848.892    1437.7943   -16286.686    448.03578 
   20600     286.8607   -412.33243    50710.818   -14871.805    1428.8341    -16300.64     447.6652 
   20650    283.40254   -664.42813    50751.246   -14896.396    1411.6092   -16308.005    449.45784 
   20700    291.55444   -490.55343    50582.833   -14888.068    1452.2133   -16340.281    449.73665 
   20750    273.79689   -680.10172      50573.4   -14899.856    1363.7641    -16263.62    451.26089 
   20800    293.03372   -560.46066    50771.976   -14867.126    1459.5815   -16326.708    454.75081 
   20850    289.70399   -502.96138    50637.099   -14873.728    1442.9963   -16316.724     454.8718 
   20900    298.21143    -625.4952    50640.582   -14839.912    1485.3713   -16325.283    456.93962 
   20950    286.54292   -739.39637    50770.825   -14817.273    1427.2512   -16244.524    459.12612 
   21000    283.13716   -564.30677    50749.621   -14857.475    1410.2874   -16267.762    460.38215 
   21050    287.39204   -811.50775    50650.542   -14881.211    1431.4807   -16312.691    460.20585 
   21100    281.83624   -778.60187    50597.556   -14937.157    1403.8076   -16340.964      460.859 
   21150    283.15526   -259.81366    50670.688   -14942.132    1410.3775    -16352.51    462.70807 
   21200    286.12643   -423.68204    50761.753   -14940.408    1425.1767   -16365.584    464.15369 
   21250    286.93502   -702.40969    50888.811   -14919.341    1429.2043   -16348.545    466.21428 
   21300    290.91217   -533.41794    50892.526   -14873.897    1449.0142   -16322.912    466.04716 
   21350    291.05558   -275.12065    50928.495   -14888.755    1449.7285   -16338.484    467.82589 
   21400    295.19244   -567.83264    50833.752   -14860.159    1470.3339   -16330.493    467.76577 
   21450    284.47992   -401.74519    51022.137   -14858.745    1416.9756   -16275.721     469.8765 
   21500    284.27818   -714.67423    50924.538   -14886.178    1415.9707   -16302.149     471.0025 
   21550    286.08672   -492.63677    50857.041   -14857.945    1424.9789   -16282.924    472.09944 
   21600    287.31873   -431.12503     50827.93   -14904.197    1431.1155   -16335.313    472.96259 
   21650    290.62902   -508.89856    50920.206   -14875.851    1447.6039   -16323.455    473.80444 
   21700    295.89414   -786.80471    50949.689   -14854.937     1473.829   -16328.766    475.92691 
   21750     303.1142   -389.41811    50922.009   -14851.579    1509.7917    -16361.37    476.53943 
   21800    297.83766   -765.26478    50843.936   -14863.363    1483.5096   -16346.873    477.54772 
   21850    295.66106    -344.5165    50802.391   -14829.275    1472.6681   -16301.943    478.69488 
   21900    294.19484   -629.39648    50812.285   -14856.839    1465.3649   -16322.204    479.48414 
   21950    296.50282    -459.2713    51007.844   -14898.874    1476.8609   -16375.734    481.72597 
   22000    284.48255   -923.02284    50712.923   -14901.585    1416.9887   -16318.574    481.87924 
   22050    296.15532   -288.42011    50685.556   -14853.025      1475.13   -16328.155    483.34525 
   22100    292.59878   -425.71116    51114.384   -14819.498    1457.4151   -16276.913    485.68237 
   22150    288.59949   -580.69929    51038.046   -14819.626    1437.4949   -16257.121    487.10384 
   22200    293.97835   -652.78917    50960.411   -14782.664    1464.2866   -16246.951     489.0882 
   22250    290.91919   -144.41085    51079.387   -14856.358    1449.0492   -16305.407    491.57757 
   22300    291.02103   -384.99056    51159.348   -14877.883    1449.5564    -16327.44    493.50205 
   22350    291.75213   -902.49922    51078.445   -14898.383     1453.198   -16351.581    494.46796 
   22400    289.38851   -173.04627    51021.367   -14914.515     1441.425    -16355.94    494.39437 
   22450    292.72637    270.52011    51178.128   -14913.998    1458.0506   -16372.049    497.90947 
   22500    284.30201    -620.4768    51214.896   -14895.571    1416.0894   -16311.661    499.04124 
   22550     290.4684   -327.29241    50954.425   -14926.758    1446.8038   -16373.562    498.40238 
   22600    282.70528   -471.09014    51050.448   -14903.526    1408.1362   -16311.662    500.58663 
   22650    291.70312   -1145.3561    50964.392   -14898.078    1452.9539   -16351.032    501.24054 
   22700    278.91399   -388.03775    50821.877   -14974.217    1389.2521   -16363.469    502.53409 
   22750    271.12597   -790.58933    50761.328   -14980.996    1350.4605   -16331.457    503.65871 
   22800    280.94485   -409.45124    50594.354   -14984.769    1399.3677   -16384.137    502.22612 
   22850     290.1173   -647.44728    50600.945   -14938.205     1445.055    -16383.26    502.93681 
   22900    285.01399   -645.40738    50550.097    -14911.53    1419.6358   -16331.166     503.9796 
   22950     293.9558   -383.14273    50488.585   -14828.436    1464.1743   -16292.611     506.5112 
   23000    292.63699   -461.61642    50665.967   -14865.486    1457.6054   -16323.092    510.15817 
   23050    284.60494   -570.75332    50713.977   -14869.853    1417.5983   -16287.452    511.59453 
   23100    280.79151   -620.38669    50767.279   -14850.121    1398.6039   -16248.725    514.17988 
   23150    279.94107   -464.60092     50805.07   -14860.069    1394.3679   -16254.437    515.20914 
   23200    287.67962   -624.58318    50719.876   -14882.903    1432.9131   -16315.816     515.3876 
   23250      289.618    5.8056751    50766.571    -14924.89     1442.568   -16367.458    517.16732 
   23300    284.75815   -362.03109     50858.82   -14924.203    1418.3615   -16342.564    519.57586 
   23350     291.6071   -154.24574    50945.101   -14890.402    1452.4756   -16342.877    520.70122 
   23400    293.28251   -347.94982    51139.809   -14886.139    1460.8207    -16346.96    522.88309 
   23450    282.39702   -514.33058    51095.446   -14915.635    1406.6008   -16322.236    522.94331 
   23500    288.63109   -675.26875    51039.799   -14910.855    1437.6523   -16348.507    525.89711 
   23550    293.19166   -607.35846    50957.451   -14940.494    1460.3682   -16400.862    527.43389 
   23600    298.56467   -376.92856    50869.154   -14925.574    1487.1308   -16412.705    529.44945 
   23650    288.61769   -912.49499    50851.928   -14954.449    1437.5856   -16392.034    530.72604 
   23700    296.06966   -430.68347    50911.517   -14901.182    1474.7033   -16375.885    531.86299 
   23750    294.48167   -48.082657    50914.502   -14964.428    1466.7936   -16431.222    533.54064 
   23800    288.08048   -966.01414    51095.182   -14883.749    1434.9097   -16318.659    535.80623 
   23850    289.98662   -446.58883    51121.985    -14872.94    1444.4041   -16317.344     536.6984 
   23900    286.14932     -634.925    51133.674   -14872.653    1425.2908   -16297.944    536.86452 
   23950    290.83513   -408.05019    51179.832   -14849.437    1448.6305   -16298.067    537.43543 
   24000     286.4764   -673.20639    51314.037   -14880.448    1426.9199   -16307.368    540.22709 
   24050    286.51115   -511.98996    51051.818   -14863.071     1427.093   -16290.164    540.05732 
   24100    296.55574   -544.69338    51178.923   -14849.199    1477.1245   -16326.323    542.75184 
   24150    297.23967   -426.83164    51104.547   -14811.392     1480.531   -16291.923    545.53673 
   24200    295.83398   -376.63172    51134.386   -14824.466    1473.5294   -16297.995    546.77263 
   24250    287.94421   -725.81383     50980.35   -14865.799     1434.231    -16300.03    547.07098 
   24300    300.46245   -650.71674    50993.671   -14823.476    1496.5835    -16320.06    549.04346 
   24350    287.36783   -1011.6265    50935.997   -14847.362    1431.3601   -16278.722    550.16836 
   24400    290.31661    -585.9058    50901.508   -14852.893    1446.0478   -16298.941    551.23139 
   24450    292.86022   -173.56348    50939.852   -14912.629    1458.7173   -16371.346    553.25316 
   24500    291.35561    -997.7798    50898.428   -14928.673    1451.2229   -16379.896    553.35018 
   24550    294.80504   -303.94442    51008.973   -14923.145    1468.4043   -16391.549    555.45516 
   24600    285.56319   -669.84902    51017.122   -14896.888    1422.3713   -16319.259    556.21269 
   24650    284.99502   -226.58411    51073.352   -14889.754    1419.5413   -16309.295    558.24648 
   24700    302.26675   -189.24519    51067.576   -14855.811    1505.5706   -16361.382    560.37763 
   24750    290.04653   -885.51003    51016.644   -14931.599    1444.7025   -16376.302    561.23117 
   24800    281.59584   -437.70166    51011.218   -14960.718    1402.6102   -16363.328    563.14978 
   24850    292.39492   -339.22013    51402.462   -14934.636    1456.3997   -16391.036    567.88157 
   24900    288.03985   -448.47459    51514.762   -14980.892    1434.7074   -16415.599    569.55459 
   24950    292.75011   -825.95784    51186.464   -14968.719    1458.1689   -16426.888    567.52703 
   25000    283.01489    -654.4199    51008.493   -15017.985    1409.6784   -16427.664    566.49893 
   25050    278.28923   -552.14158    51001.529   -14984.101    1386.1402   -16370.241    567.45945 
   25100    290.59566   -511.33087    51085.219    -14939.86    1447.4377   -16387.298    568.89663 
   25150    286.96482   -362.68055    50937.228   -14969.688    1429.3527   -16399.041    567.58544 
   25200    285.49262   -683.54374    50914.011   -14987.474    1422.0198   -16409.493     566.9124 
   25250     277.6392   -629.31127    50752.627   -14989.253    1382.9024   -16372.155    566.34611 
   25300    281.30164   -404.93967    50496.099   -14968.453    1401.1448   -16369.597    565.96195 
   25350    282.21541   -342.82534    50570.706   -14916.617    1405.6962   -16322.313    568.87062 
   25400    294.55509   -651.51804     50643.25   -14923.802    1467.1593   -16390.962    570.94502 
   25450    281.83808    -210.8928    50910.571   -14962.228    1403.8167   -16366.045     574.6135 
   25500    289.04717   -913.41829    50683.758   -14974.779    1439.7247   -16414.504    574.93675 
   25550    281.29559   -467.15943    50687.006   -14961.367    1401.1147   -16362.482    574.00237 
   25600    281.50056   -585.97617    50910.333    -14938.35    1402.1356   -16340.486    577.51876 
   25650     287.4966   -464.79563    50767.316   -14953.205    1432.0015   -16385.207     578.5426 
   25700    277.59814   -603.60212    50794.502   -14957.492    1382.6979    -16340.19    579.72385 
   25750    283.98904   -429.78537    50776.115    -14996.23    1414.5305   -16410.761    580.01586 
   25800    276.68822    -547.6805     50753.31   -15042.451    1378.1656   -16420.617    580.14312 
   25850    282.27147   -87.688193    50823.174   -14990.896    1405.9755   -16396.871    581.43919 
   25900     290.5817   -933.19831    50754.449   -14901.319    1447.3682   -16348.688    582.36464 
   25950    288.36605   -418.28666        50817    -14871.41    1436.3321   -16307.742    584.52533 
   26000    281.90826   -489.33403    50898.987   -14896.691    1404.1663   -16300.857    585.59031 
   26050    295.94913   -648.87575      50838.3   -14869.157     1474.103    -16343.26    586.58082 
   26100    296.17312   -553.12821    50785.571   -14874.968    1475.2186   -16350.187    587.00221 
   26150    284.07041   -837.63433    50834.133   -14830.021    1414.9358   -16244.957    588.45221 
   26200    304.80879   -543.44869    50779.732   -14800.066    1518.2323   -16318.299    590.29747 
   26250    292.67517   -790.88343    50809.191   -14870.389    1457.7956   -16328.185    591.86434 
   26300     285.6274   -366.73244    50852.001   -14871.194    1422.6911   -16293.886    594.43301 
   26350    292.77527   -766.74824    50763.264   -14871.794    1458.2942   -16330.088    593.70793 
   26400    300.39589   -567.53893    50725.354   -14780.361     1496.252   -16276.613    593.11365 
   26450    297.24026    -518.8484    50895.574   -14778.867     1480.534   -16259.401    596.07476 
   26500    292.13638    -366.3331    50789.456   -14820.482    1455.1119   -16275.594    596.71463 
   26550    286.70015   -453.93535    50766.632   -14875.345    1428.0344   -16303.379    598.43455 
   26600    290.78754   -777.63748    50850.624   -14860.909    1448.3934   -16309.302    600.79107 
   26650     290.4492   -341.01406    50908.629   -14824.967    1446.7082   -16271.675    604.29434 
   26700     293.5431   -854.91765    50935.835   -14826.191    1462.1187    -16288.31    605.32708 
   26750    293.82181   -464.94397    50815.833    -14844.46    1463.5069   -16307.967    607.18929 
   26800    294.57888   -675.61978    51068.846   -14922.347    1467.2778   -16389.625    609.16396 
   26850    276.90643   -495.68071    51073.868   -14934.959    1379.2525   -16314.212    611.45609 
   26900    287.68737   -864.93006    51176.527   -14861.428    1432.9517   -16294.379    613.23173 
   26950    286.47584   -388.57725     51165.75   -14923.259    1426.9171   -16350.176    614.03627 
   27000    285.35664   -482.18426    51124.206   -14906.077    1421.3425   -16327.419    615.49736 
   27050    287.87634   -394.65363    50935.952   -14886.845    1433.8929   -16320.738    617.45251 
   27100    292.08986   -286.64622    50963.268   -14835.178    1454.8802   -16290.058    620.41138 
   27150     291.6832     -661.926    51187.085   -14825.792    1452.8547   -16278.647    625.51155 
   27200    296.17461   -739.17553    50980.929   -14818.838    1475.2261   -16294.064    626.45543 
   27250    295.42052   -322.94483    51106.475   -14836.368      1471.47   -16307.838    629.34593 
   27300    297.41065   -281.40244    51234.873   -14838.774    1481.3827   -16320.157    630.47403 
   27350    295.82372   -496.47374     50987.35   -14856.569    1473.4783   -16330.047     631.1089 
   27400    283.09988   -809.01156    50925.816   -14885.949    1410.1017   -16296.051    631.57772 
   27450    288.00135    -925.6993    50556.435   -14920.015    1434.5156   -16354.531    630.64644 
   27500    298.83433    31.924941    50417.355    -14839.43     1488.474   -16327.904    631.22617 
   27550    277.82272    -160.3727    50585.487   -14872.109    1383.8165   -16255.926    634.70214 
   27600    289.57786   -571.39589    50612.147    -14857.88    1442.3681   -16300.248    636.33176 
   27650    281.65744   -685.81035    50665.093   -14849.114     1402.917   -16252.031    639.77038 
   27700    296.29673    -455.3207    50643.443   -14842.054    1475.8343   -16317.888    640.07772 
   27750    296.82328   -365.41311    50491.651   -14857.069     1478.457   -16335.526    640.19574 
   27800    288.52436   -530.61055    50630.507    -14888.92    1437.1207    -16326.04    641.73542 
   27850    295.95362   -792.05822    50554.698    -14834.73    1474.1254   -16308.855     641.0447 
   27900     302.6853   -597.30932    50594.268   -14752.521    1507.6554   -16260.176    643.18223 
   27950    297.03095   -173.26854    50805.074   -14839.073    1479.4915   -16318.564    646.02393 
   28000    289.16582    -960.5458    50663.422   -14868.188    1440.3158   -16308.503    645.61101 
   28050    289.52931   -722.47916    50390.061       -14867    1442.1263   -16309.126     646.2596 
   28100     290.1035   -278.59683    50539.963   -14901.378    1444.9863   -16346.364    648.92507 
   28150    284.99412   -148.18978    50731.586   -14959.262    1419.5368   -16378.799     650.5603 
   28200    284.18618   -518.77222    50764.015   -14954.559    1415.5125   -16370.071    649.24165 
   28250    285.17395   -134.68802    50793.046   -14911.975    1420.4325   -16332.408    649.01719 
   28300    298.08989   -467.76115     50907.85    -14846.72     1484.766   -16331.486    651.63818 
   28350    295.59618   -113.91734    50869.612   -14847.967     1472.345   -16320.312    653.20459 
   28400    285.38731   -751.82445    50762.829   -14903.606    1421.4953   -16325.101    654.46667 
   28450    281.08718   -475.20706    51002.156   -14948.337    1400.0766   -16348.413    658.76979 
   28500     286.7686   -255.16511    50979.879   -14927.687    1428.3753   -16356.063    659.30769 
   28550     288.9027   -531.62015    50897.353   -14878.853    1439.0052   -16317.859    660.07007 
   28600    294.77259   -388.13352    50813.261    -14929.45    1468.2427   -16397.693    660.27851 
   28650    285.65108   -513.64189    50730.786   -14951.702    1422.8091   -16374.511    659.94023 
   28700     292.0542   -684.30596    50707.428   -14898.166    1454.7026   -16352.869    660.09897 
   28750    290.84944    -251.2923    50681.208   -14910.497    1448.7017   -16359.198    660.93449 
   28800    298.21573   -203.89942    50767.205   -14908.914    1485.3927   -16394.307     663.7775 
   28850    286.74633   -383.22647    50971.961   -14923.288    1428.2644   -16351.552    667.30192 
   28900    288.03916   -756.89523    50761.765    -14926.41    1434.7039   -16361.114    666.78867 
   28950    286.20318   -665.40264    50623.129    -14927.38     1425.559   -16352.939    666.85873 
   29000      290.834   -590.08072    50791.389   -14889.654    1448.6248   -16338.278    669.54545 
   29050    292.00157   -338.23197     50926.14   -14869.184    1454.4404   -16323.624    672.89083 
   29100    287.27575   -522.31661    50926.295   -14891.497    1430.9014   -16322.399    675.39552 
   29150    284.60118   -680.17363    50847.364    -14931.98    1417.5796   -16349.559    677.65008 
   29200    291.16801   -509.73816    50957.984   -14907.317    1450.2885   -16357.605    680.38473 
   29250    293.44155   -721.37843    51005.664    -14897.71    1461.6129   -16359.323    682.45099 
   29300    292.41562   -648.82453     50984.96    -14935.69    1456.5028   -16392.193    684.35646 
   29350    288.09006   -649.83658    51103.638   -14940.415    1434.9575   -16375.372    687.89627 
   29400    288.36232   -482.73497    51057.714   -14938.825    1436.3136   -16375.139     688.6243 
   29450    285.94454   -828.00411    50949.985   -14897.602    1424.2708   -16321.873      688.473 
   29500    278.70054   -635.95065    50808.942   -14920.845    1388.1889   -16309.034    686.14537 
   29550    296.41512   -150.53013    50966.321   -14897.603     1476.424   -16374.027    687.34789 
   29600    293.46039   -909.96157    50940.679   -14872.439    1461.7067   -16334.145    688.38425 
   29650    285.92263   -453.54305    50957.121   -14888.206    1424.1616   -16312.367     690.7743 
   29700    298.74234   -643.37954    50934.681   -14879.307    1488.0158   -16367.323    691.78604 
   29750    286.65742   -414.73096    50928.785   -14867.405    1427.8216   -16295.227    692.83178 
   29800    288.40199   -868.72617    51042.707   -14824.425    1436.5111   -16260.936    694.35306 
   29850    290.70669   -809.85871    51041.479   -14881.685    1447.9907   -16329.676    693.67521 
   29900    295.48051   -398.76466     51071.25   -14863.903    1471.7688   -16335.672    693.57562 
   29950    293.46963   -249.63198    51019.264   -14858.609    1461.7528   -16320.361    694.91807 
   30000    288.59069   -530.53048    50814.768    -14856.17    1437.4511   -16293.621    693.39813 
   30050    286.44872   -844.50242    50697.171    -14855.87    1426.7821   -16282.652    691.40165 
   30100    284.69095   -596.33341    50664.356   -14909.764    1418.0267    -16327.79    690.67998 
   30150    289.30473   -466.40323    50771.365   -14879.914    1441.0076   -16320.922    691.91598 
   30200     288.5369   -176.57081    50695.943   -14875.953    1437.1831   -16313.136    692.04453 
   30250    284.98698   -1.6174207    50993.592    -14866.99    1419.5012   -16286.491    694.80714 
   30300    288.27897   -454.31589    50904.425   -14935.551    1435.8984    -16371.45    694.84195 
   30350    285.54705   -574.56271     50981.89   -14965.839    1422.2909    -16388.13    696.41223 
   30400    286.65845   -598.22382    50914.603   -14965.137    1427.8267   -16392.964    695.13124 
   30450    284.78737   -283.45354    50679.675    -14936.73     1418.507   -16355.237    693.67636 
   30500    286.60916   -566.46789     50758.19    -14933.04    1427.5812   -16360.621    693.39092 
   30550    281.98131   -318.01593    50939.545    -14924.61    1404.5302    -16329.14    695.82542 
   30600    283.77347   -808.69988    50809.252    -15025.76    1413.4568   -16439.217    695.51172 
   30650    287.99754   -973.85336    50608.218   -15001.592    1434.4966   -16436.089    695.39537 
   30700    283.67679   -768.00011    50541.011    -14969.37    1412.9752   -16382.345    695.24702 
   30750    288.99585   -402.58607    50706.367   -14963.604    1439.4691   -16403.073    697.27887 
   30800     272.7436   -311.06878    50903.082   -14985.851    1358.5178   -16344.369    698.78335 
   30850    288.39142   -192.21591    50698.748   -14936.366    1436.4585   -16372.824    697.74128 
   30900     278.7845    15.436806    50763.544   -14954.442    1388.6071   -16343.049    699.34068 
   30950    282.43257   -609.00384    50704.238   -14895.658    1406.7779   -16302.436    701.68165 
   31000    277.27428   -664.22193    50647.643   -14949.941    1381.0848   -16331.026    702.93998 
   31050    273.12455   -502.28773     50473.43   -15004.055    1360.4153   -16364.471    702.98213 
   31100    281.70494   -164.54113     50567.13   -14957.776    1403.1536    -16360.93    704.54331 
   31150    283.77508   -51.028158    50755.681   -14931.451    1413.4648   -16344.916    708.69845 
   31200    291.75618   -775.27967    50839.464   -14914.345    1453.2182   -16367.563    711.68887 
   31250    291.94119   -343.46605    50852.675    -14888.51    1454.1397    -16342.65    714.42502 
   31300    287.72923   -549.98376    50878.847   -14933.492    1433.1602   -16366.653    715.41946 
   31350    289.42176   -18.836801    50767.245    -14893.97    1441.5906    -16335.56    714.88013 
   31400    288.75057   -521.83519    50717.388   -14906.994    1438.2474   -16345.242    714.85721 
   31450    291.03642   -857.98905    50875.907    -14828.05    1449.6331   -16277.683    720.38485 
   31500    292.26123   -363.85249    50901.952   -14867.997    1455.7338   -16323.731    719.84862 
   31550     298.6126   -22.939152    50772.741   -14872.246    1487.3695   -16359.615    719.00931 
   31600    287.04751   -359.72692    50949.569   -14917.587    1429.7646   -16347.351    721.58092 
   31650    289.20881   -536.79213    50709.209   -14904.626    1440.5299   -16345.156     720.4676 
   31700    287.70855   -277.56312    50853.862   -14909.403    1433.0572    -16342.46    722.73985 
   31750    285.01337   -417.32038    50784.443   -14894.067    1419.6327     -16313.7     722.7023 
   31800    291.58431   -553.95938    50824.753   -14839.199    1452.3621   -16291.561    723.46868 
   31850    292.90358   -393.14311    51032.421   -14859.124    1458.9333   -16318.058    726.66138 
   31900    300.69008   -693.04256    51085.266   -14791.927    1497.7173   -16289.645    728.79232 
   31950    290.37823   -712.16899    51057.232   -14827.956    1446.3547   -16274.311    729.16975 
   32000    290.09496   -414.45001    50940.164   -14892.015    1444.9437   -16336.959    729.47828 
   32050    290.28128   -595.81107    50823.059   -14905.216    1445.8718   -16351.088    729.34649 
   32100    287.50167   -210.57146    50911.222   -14847.186    1432.0267   -16279.213    730.29195 
   32150     285.3089   -873.79265    50804.741   -14906.789    1421.1047   -16327.894    729.22145 
   32200    293.62993   -422.31454    51049.946   -14902.136    1462.5512   -16364.687    733.84039 
   32250    291.07156   -767.94357    51087.368   -14909.182    1449.8081    -16358.99    735.67544 
   32300    291.64912   -358.69007     51188.92   -14883.424    1452.6849   -16336.109    737.73862 
   32350       294.64   -327.03351    50990.611   -14849.547    1467.5823   -16317.129    737.45161 
   32400    287.27762   -193.14927    51158.869   -14931.627    1430.9107   -16362.537    740.06466 
   32450    290.32556    -620.9097    51392.677   -14929.521    1446.0923   -16375.613    743.10473 
   32500    289.83994   -424.99916    51363.244   -14896.776    1443.6735    -16340.45    744.93009 
   32550    290.11394      -746.68    51190.127   -14887.478    1445.0383   -16332.516    744.52963 
   32600    285.30264   -349.99447    51228.702   -14917.862    1421.0735   -16338.935    747.55624 
   32650    287.15766   -1077.8718     51037.03   -14908.691    1430.3133   -16339.004    747.02468 
   32700    292.35041   -895.88353    50919.452   -14916.402     1456.178    -16372.58    747.45119 
   32750    275.51617   -553.67388    51002.887   -14948.834    1372.3277   -16321.162    750.25996 
   32800    277.41437   -253.52836        51029    -14994.04    1381.7826   -16375.823    751.66852 
   32850    282.87429   -178.64295    51243.578   -14958.104    1408.9781   -16367.082    754.50771 
   32900    293.44238   -480.07307    51287.871     -14921.9     1461.617   -16383.517    756.48166 
   32950    282.65389   -548.27665     51229.86   -14919.579    1407.8803   -16327.459    757.55221 
   33000    278.25878   -281.82426     51166.86   -14941.801    1385.9885    -16327.79    756.30815 
   33050     292.5799    -651.6305    50943.248   -14900.176     1457.321   -16357.497     755.5414 
   33100    290.15947    -356.1709     50962.83   -14858.121     1445.265   -16303.386    756.86336 
   33150    285.36314   -576.55167    50997.299   -14858.171    1421.3749   -16279.546    758.77484 
   33200    294.39002   -212.08295    50997.827   -14816.973    1466.3372    -16283.31    760.83702 
   33250    285.76828   -438.90377    51046.007   -14830.243    1423.3928   -16253.636    762.54739 
   33300     282.8059    -1072.062     50933.14   -14874.251    1408.6374   -16282.889    762.04558 
   33350    287.68109   -561.38809    50834.575   -14856.205    1432.9204   -16289.125    761.64615 
   33400    291.24236   -540.65913    50790.884    -14813.13    1450.6589   -16263.789     761.9051 
   33450    287.92009   -433.77213    50851.627   -14830.599    1434.1109    -16264.71     764.4333 
   33500    285.79871   -687.06889     50688.31   -14892.689    1423.5444   -16316.234    763.98849 
   33550    297.20932   -605.07439    50623.519   -14873.123    1480.3799   -16353.503    764.48067 
   33600    284.89155   -307.94667    50761.708    -14853.79    1419.0259   -16272.816    766.29006 
   33650    294.80679    -519.1193    50767.898   -14871.704     1468.413   -16340.117    766.91261 
   33700    292.62649   -339.60366    50915.413   -14878.664    1457.5531   -16336.217     769.9887 
   33750    293.83055   -929.56691    50808.771   -14870.041    1463.5505   -16333.592    770.25694 
   33800    281.01073   -527.01992    50788.213   -14917.145    1399.6958    -16316.84    770.92559 
   33850    290.54407   -341.67131    50922.417   -14899.922    1447.1807   -16347.102    775.26546 
   33900    294.18741   -414.58397    50963.505    -14877.05    1465.3279   -16342.378     775.7157 
   33950    289.95106   -388.24421    51001.295   -14918.868     1444.227   -16363.095    776.04254 
   34000    283.33885   -616.63876     51034.77   -14918.067     1411.292   -16329.359    776.87964 
   34050     278.4596   -548.35464    51007.854   -14994.487    1386.9888   -16381.476    775.85812 
   34100    286.52528   -528.72195    50849.783   -14927.342    1427.1634   -16354.505    775.30749 
   34150    287.20895   -673.96873    50895.889   -14940.175    1430.5687   -16370.744    778.28174 
   34200    278.99246   -897.66516    50626.635   -14987.881    1389.6429   -16377.524    776.28306 
   34250    289.41287   -549.25242    50724.648   -14909.675    1441.5463   -16351.221    777.76615 
   34300    282.83713   -409.66495    50901.918   -14931.828     1408.793   -16340.621    780.16246 
   34350    298.12405   -698.65922    50957.214    -14832.85    1484.9361   -16317.786     782.2343 
   34400    302.80228   -722.50366    51073.255   -14797.714    1508.2381   -16305.952    782.91258 
   34450    286.51926   -614.37952    51373.711    -14805.45    1427.1334   -16232.583    785.63029 
   34500    299.05952   -482.60595    51245.981   -14816.477    1489.5956   -16306.073    786.63502 
   34550    286.29319   -951.99266    51074.925   -14883.708    1426.0074   -16309.716    787.73865 
   34600    290.70427   -90.819419    51222.103   -14933.157    1447.9787   -16381.136    789.64081 
   34650    290.34745   -129.03521     51353.89   -14908.632    1446.2013   -16354.833    792.17519 
   34700    281.31054   -510.46816     51283.14   -14924.344    1401.1891   -16325.534    793.25967 
   34750    289.62015   -170.55243    51155.293   -14918.402    1442.5788   -16360.981    791.34025 
   34800    283.24264   -474.93558    51275.457   -14917.747    1410.8128    -16328.56    794.52345 
   34850    290.56943   -612.10284    51246.662   -14918.244     1447.307   -16365.551    795.14588 
   34900    278.91602   -292.06375     51251.29   -14972.385    1389.2622   -16361.647    796.43859 
   34950     275.7564   -477.25345    51309.537   -14942.278    1373.5243   -16315.803    797.69653 
   35000    289.21257   -325.53665    51101.399   -14918.516    1440.5486   -16359.065     796.7533 
   35050    298.29925   -587.04537    51231.936   -14905.629    1485.8088   -16391.438    798.68254 
   35100    301.99041   -680.88577    51141.609   -14833.032    1504.1942   -16337.226    800.00099 
   35150    298.18668   -393.74923    51310.894   -14775.696    1485.2481   -16260.944    800.91902 
   35200    300.82402   -749.89292    51363.683   -14801.396    1498.3844   -16299.781    802.06152 
   35250    294.39382   -388.08942    51208.995   -14818.562    1466.3561   -16284.918    801.62925 
   35300    293.96219   -660.28375    51102.664    -14863.23    1464.2062   -16327.436    801.81793 
   35350    288.31881   -372.76654    50920.373   -14889.586    1436.0969   -16325.683    799.95273 
   35400    285.23897   -520.78748    50778.834    -14867.33    1420.7564   -16288.086    799.00414 
   35450    297.10281   -450.10505    50845.309   -14877.917    1479.8494   -16357.766    800.03869 
   35500    290.54612   -484.61138     50936.09   -14819.862    1447.1909   -16267.053    802.25726 
   35550    285.53515   -961.14003     50929.66   -14890.196    1422.2316   -16312.428    803.31426 
   35600    290.94395   -579.75168    50912.763   -14859.993    1449.1725   -16309.165    805.33871 
   35650    290.80549   -384.91441    50984.841   -14828.991    1448.4829   -16277.473    807.76524 
   35700    286.30821   -569.62073    51089.048   -14850.328    1426.0822    -16276.41    809.36462 
   35750    287.87539   -422.30284    51079.154   -14842.414    1433.8882   -16276.302    811.07068 
   35800    291.68984   -471.78421    50957.125   -14821.791    1452.8877   -16274.678     812.4006 
   35850    290.11692   -234.26361    51054.394   -14843.259    1445.0531   -16288.313    815.64485 
   35900    292.08199   -333.08263    50958.976     -14849.7     1454.841   -16304.541    815.34433 
   35950    286.30271   -616.83728    50961.248   -14815.237    1426.0548   -16241.292    816.43007 
   36000    286.38969   -163.43919    50799.119   -14872.611     1426.488   -16299.099    815.41521 
   36050    291.03301   -369.02961    50857.993   -14884.054    1449.6161    -16333.67    816.50999 
   36100    285.82372   -820.34114    50788.981   -14875.526    1423.6689   -16299.195    817.14509 
   36150      292.776   -582.63481    50849.781   -14846.402    1458.2978     -16304.7    819.74435 
   36200    291.74143   -602.98256    50979.495   -14860.877    1453.1447   -16314.022    823.59221 
   36250    283.92439   -318.13842     50927.97   -14891.397    1414.2085   -16305.605    822.69778 
   36300    284.08364   -109.10599    51091.884   -14891.645    1415.0018   -16306.646    826.03001 
   36350    298.26494   -341.84407    50999.129   -14763.846    1485.6379   -16249.484    826.50909 
   36400    292.91579   -541.92296    51130.263   -14789.505    1458.9941   -16248.499    829.93817 
   36450    292.08797   -468.93684    51157.121   -14777.309    1454.8708    -16232.18    830.86205 
   36500    292.05739   -758.22975    51029.765   -14865.915    1454.7185   -16320.634    830.88312 
   36550    282.33116   -206.04038    51107.542   -14885.423    1406.2728   -16291.696    832.45948 
   36600    290.12928   -490.20644    51307.627   -14894.082    1445.1147   -16339.197    835.35461 
   36650    291.75182    -900.1179    51214.745   -14893.825    1453.1964   -16347.021    835.99471 
   36700     290.5011   -710.13639     51196.12   -14906.721    1446.9667   -16353.688     837.0798 
   36750    291.82823   -585.51647    51109.091   -14909.793    1453.5771    -16363.37    838.08863 
   36800    275.92174    -508.7655    51073.651   -14931.524    1374.3478   -16305.872    839.19319 
   36850    288.73597   -769.39243    51013.475   -14933.095    1438.1747    -16371.27     838.6028 
   36900      298.522   -193.07258    50827.043   -14887.453    1486.9182   -16374.371    836.24103 
   36950    287.42325   -449.29614    50828.928   -14916.567    1431.6361   -16348.204    837.70577 
   37000    297.76731    -197.0409    50858.489   -14870.805    1483.1592   -16353.965    838.60505 
   37050    293.47736   -559.14193    50844.081   -14901.173    1461.7912   -16362.964    839.90622 
   37100    287.10942   -699.06721    50776.671   -14881.122     1430.073   -16311.195    839.11566 
   37150     297.7094   -680.94104    50879.632   -14876.822    1482.8708   -16359.693    841.74452 
   37200    295.56778    22.641908    50939.894   -14849.395    1472.2035   -16321.599    842.30884 
   37250    295.12093   -134.45501     50829.35   -14859.659    1469.9777   -16329.637    841.35644 
   37300    286.17903   -516.66992    50727.235   -14919.188    1425.4388   -16344.627    839.51348 
   37350    280.77291   -264.00061    50836.096   -14928.537    1398.5112   -16327.049    841.19494 
   37400    275.60811   -27.207898    50743.428   -14973.705    1372.7857   -16346.491    841.41224 
   37450    283.83565   -529.09901    50808.609   -14948.185    1413.7665   -16361.952    843.97857 
   37500    283.70313   -392.50187     50735.03    -14913.01    1413.1065   -16326.116    842.66658 
   37550    286.77536   -375.74453    50569.324   -14936.927     1428.409   -16365.336    842.82592 
   37600      288.708   -542.46142     50803.33   -14921.178    1438.0354   -16359.214    845.71928 
   37650    281.60594   -720.06213    50887.266   -14978.029    1402.6605    -16380.69     848.9289 
   37700     285.6767   -870.04671    50826.575   -14958.277    1422.9367   -16381.213    848.92052 
   37750    290.31982   -641.77935    50698.759   -14943.086    1446.0637    -16389.15     847.0798 
   37800    284.76722   -781.19879    50586.349   -14948.946    1418.4066   -16367.352    845.04021 
   37850    289.31111     -694.122    50371.481   -14944.627    1441.0394   -16385.667    845.56838 
   37900    285.33915   -469.65049    50454.214   -14952.234    1421.2554   -16373.489    847.14673 
   37950    284.91327    -451.8045    50349.479   -14923.886    1419.1341    -16343.02    845.73604 
   38000    284.74441   -728.99789    50503.579   -14920.525     1418.293   -16338.818    850.03463 
[...]
   91500    292.44775   -525.87222      50858.6   -14888.387    1456.6628   -16345.049    2072.4969 
   91550    282.26763   -499.92844    50840.886   -14928.956    1405.9563   -16334.913     2072.981 
   91600     280.9601   -354.08964    50786.606   -14996.533    1399.4436   -16395.976    2072.9157 
   91650    274.62006   -769.57244    50907.716   -15053.491    1367.8643   -16421.356    2075.1473 
   91700    282.42414   -304.62422    50895.334   -15023.071    1406.7359   -16429.807    2074.6212 
   91750     282.2158   -590.07854    50981.951   -15023.387    1405.6982   -16429.085    2077.2417 
   91800    285.05539   -799.05258    50724.913   -14993.742     1419.842   -16413.584    2070.7757 
   91850    286.22724   -704.91763     50831.36   -14967.979    1425.6789   -16393.658    2075.9226 
   91900    290.55481   -503.48833    50733.596   -14935.434    1447.2342   -16382.669    2076.8091 
   91950    284.45182   -362.61278    50613.481   -14939.931    1416.8356   -16356.767    2073.9959 
   92000    295.03726   -148.84167    50754.448   -14908.585     1469.561   -16378.146    2078.8888 
   92050    297.26314   -894.57214    50725.346   -14890.027     1480.648   -16370.675    2078.2747 
   92100    301.05779   -323.49276    51002.714   -14822.561    1499.5489    -16322.11    2086.9249 
   92150    293.88832   -504.05927    50994.517   -14864.133    1463.8382   -16327.972    2088.2678 
   92200    292.88522   -846.93928     51156.27   -14873.134    1458.8418   -16331.976    2093.2847 
   92250    293.30583   -230.30339    51219.636   -14923.991    1460.9368   -16384.928    2096.9937 
   92300    286.41906   -908.21037    51209.378    -14943.18    1426.6343   -16369.814    2100.8195 
   92350    291.35126   -500.19912    51052.372   -14902.885    1451.2013   -16354.086    2097.4702 
   92400    290.61833   -670.50747    50845.199   -14930.443    1447.5506   -16377.994    2090.4816 
   92450    288.87827   -404.71604    50876.155   -14894.176    1438.8835   -16333.059    2091.5817 
   92500    290.40972   -713.80707     50952.51   -14923.997    1446.5115   -16370.509    2095.1724 
   92550    295.28778   -467.39622    51001.662   -14874.543    1470.8088   -16345.352    2099.6748 
   92600    284.09787   -816.11233    50862.251   -14959.782    1415.0726   -16374.855    2093.9266 
   92650    297.70902   -334.91953    51009.536   -14889.321    1482.8689    -16372.19    2097.3131 
   92700    280.91182   -419.41703     51044.72   -14893.098    1399.2031   -16292.301    2099.9113 
   92750    296.97057   -677.00618    51128.298   -14875.613    1479.1907   -16354.804    2104.7201 
   92800    291.18517   -370.75289    51291.193   -14915.385     1450.374   -16365.759    2110.3087 
   92850    291.78035   -410.10325    51243.673   -14863.911    1453.3385   -16317.249    2111.8514 
   92900    291.25844   -596.88338    51231.759   -14856.217     1450.739   -16306.956    2112.7028 
   92950     299.1431   -527.77218    51078.927   -14891.071    1490.0119   -16381.083    2107.1452 
   93000    285.27022   -325.98413     51016.12    -14874.19     1420.912   -16295.102    2106.4451 
   93050       288.74   -907.73086    51003.489   -14880.936    1438.1948   -16319.131    2109.1737 
   93100    289.33344    -719.3741    50975.707   -14847.145    1441.1507   -16288.296    2108.4903 
   93150    291.74883   -220.57667     50915.51   -14836.606    1453.1815   -16289.788    2108.1449 
   93200    294.08399   -167.86987    51091.378   -14771.582    1464.8128   -16236.394    2115.4034 
   93250    289.53345   -997.72956    51014.781   -14841.923    1442.1469    -16284.07     2114.855 
   93300    291.87588   -558.56816    50836.163    -14850.51    1453.8144   -16304.325     2110.937 
   93350    285.85964   -645.35935    50896.199   -14888.787    1423.8479   -16312.634    2112.0873 
   93400    281.41913   -623.82806     50887.19   -14873.884      1401.73   -16275.614    2112.7314 
   93450    290.59165   -590.30552    50744.262   -14913.691    1447.4177   -16361.108    2112.7937 
   93500    274.70554     -676.651    50805.985   -14909.538    1368.2901   -16277.828    2115.8302 
   93550    289.14468   -274.92968    50922.161   -14910.141    1440.2104   -16350.352     2118.988 
   93600    285.85466   -970.05136     51080.38   -14893.616    1423.8231   -16317.439    2123.9782 
   93650    285.31665   -589.02633    51084.937   -14894.017    1421.1433    -16315.16    2124.2267 
   93700    288.49936    -230.0493    51109.071   -14832.282    1436.9961   -16269.278     2125.984 
   93750    287.83189   -791.92486    51056.255   -14888.554    1433.6715   -16322.225    2127.2158 
   93800    282.19947   -557.21125    51066.751   -14903.792    1405.6168   -16309.409    2131.8257 
   93850    287.24222   -617.39032    51103.192   -14889.321    1430.7344   -16320.056       2136.8 
   93900    279.37594   -563.54587    50943.701   -14933.087     1391.553    -16324.64    2131.4602 
   93950    279.83201   -911.57799    50887.752   -14969.505    1393.8246    -16363.33    2131.0612 
   94000    288.21986   -611.72758    50823.081   -14957.843     1435.604   -16393.447    2129.1569 
   94050    284.30243   -356.39915    50706.137   -14963.999    1416.0915    -16380.09    2125.1952 
   94100    289.01253   -560.37219    50762.321   -14968.691    1439.5522   -16408.243     2131.164 
   94150    291.05051   -301.03362    50931.952   -14947.165    1449.7033   -16396.868    2137.5914 
   94200    283.77733   -408.54979    50799.217   -14978.356     1413.476   -16391.832    2134.7978 
   94250    293.65701   -711.39687    50949.172   -14966.618    1462.6861   -16429.304    2142.0964 
   94300    278.67733   -820.61662    50746.886   -14998.564    1388.0733   -16386.637    2139.7314 
   94350    277.15101   -525.94344    50685.685   -15003.779    1380.4708    -16384.25    2140.1677 
   94400    291.87584   -124.96085    50798.447   -14938.268    1453.8142   -16392.083    2145.9744 
   94450    278.10109   -469.55953    50906.381   -14992.823     1385.203   -16378.026    2149.1395 
   94500    283.35251   -244.42183    51069.691   -15005.215      1411.36   -16416.575    2154.9539 
   94550     278.3254   -437.05024    51074.626   -15030.928    1386.3203   -16417.248    2155.6174 
   94600    293.56033   -811.57399    50924.841    -14954.98    1462.2045   -16417.184    2152.8737 
   94650    288.29688   -393.95824    51050.508   -14899.188    1435.9876   -16335.176    2158.2234 
   94700    285.91319    137.10562    51102.475   -14885.825    1424.1146   -16309.939     2162.168 
   94750     297.3899   -248.14266    51154.271   -14859.276    1481.2793   -16340.555    2164.9642 
   94800    289.09035   -285.67906    51215.206   -14871.512    1439.9398   -16311.452    2166.8192 
   94850    288.14797   -469.08304    51176.473   -14908.004    1435.2459    -16343.25    2167.3502 
   94900    293.45604    -663.5406     50969.93   -14882.393    1461.6851   -16344.078    2162.4185 
   94950    287.13286   -638.78967    50895.062   -14906.045    1430.1897   -16336.235    2162.3211 
   95000    295.22053   -473.43355    50923.448   -14854.347    1470.4738   -16324.821    2163.9857 
   95050    297.61591   -304.25116    50868.904   -14835.213    1482.4051   -16317.618     2164.866 
   95100    286.66418   -585.60228    50919.224    -14864.57    1427.8552   -16292.426    2166.5333 
   95150    286.66451   -434.99946    50839.545   -14888.648    1427.8569   -16316.505    2165.2542 
   95200    289.09832   -68.143285     50666.55   -14870.675    1439.9796   -16310.655    2162.1106 
   95250    290.87778    -365.6571    50754.051   -14864.234    1448.8429   -16313.076     2164.035 
   95300    290.51172   -642.37988    50692.373   -14905.734    1447.0196   -16352.754    2159.9614 
   95350    295.02708   -46.566879    51023.018   -14873.982    1469.5103   -16343.493    2171.0845 
   95400    286.68022   -748.98148    51140.949   -14939.183    1427.9351   -16367.118    2175.2876 
   95450    287.27131   -723.87365    51081.691   -14938.041    1430.8793    -16368.92    2172.6593 
   95500    283.86934   -819.79229    51071.824   -14956.839    1413.9343   -16370.773    2174.1643 
   95550    290.54894   -416.75038    51026.214   -14954.825     1447.205    -16402.03    2175.3456 
   95600    292.50056   -380.33204    50976.349   -14950.507    1456.9258   -16407.433    2174.6706 
   95650    290.02288   -343.11761    50855.916   -14954.046    1444.5847   -16398.631    2168.9352 
   95700     294.7433   -488.79444    50807.204   -14911.308    1468.0968   -16379.404    2169.7578 
   95750    297.01011   -439.37657    50899.457   -14942.092    1479.3876    -16421.48    2172.7618 
   95800    280.36463   -403.72185    50832.725   -14947.138    1396.4776   -16343.616    2170.8137 
   95850    290.61418   -476.63735    50875.769   -14913.467    1447.5299   -16360.997    2171.9651 
   95900    294.17234   -481.56796    50825.875   -14895.295    1465.2529   -16360.548    2173.1829 
   95950    285.06594   -453.89125    50734.231    -14887.61    1419.8945   -16307.505    2170.9242 
   96000    288.29783   -333.00846    50628.577   -14891.624    1435.9924   -16327.616    2167.0137 
   96050     285.3285   -795.26219    50494.167   -14869.539    1421.2023   -16290.741    2164.0944 
   96100    295.22211   -521.26546    50647.031   -14848.572    1470.4817   -16319.054    2169.8615 
   96150    295.71175   -305.53363    50680.093   -14872.746    1472.9206   -16345.667    2173.3418 
   96200    293.96977   -341.59538    50521.827   -14872.955    1464.2439   -16337.199    2173.0803 
   96250    287.65677   -32.238251    50728.197    -14913.88    1432.7992   -16346.679    2182.1202 
   96300    280.41146   -359.58293     50857.82   -14909.074    1396.7109   -16305.785     2186.659 
   96350    282.79637   -319.61857    50736.051   -14861.949    1408.5899   -16270.539    2184.5934 
   96400    290.13176   -505.68937     50862.62   -14833.755     1445.127   -16278.882    2187.7137 
   96450    289.09669    -414.8214    50837.945   -14865.345    1439.9714   -16305.317    2187.5719 
   96500     286.8442   -311.97038    50827.003   -14863.031    1428.7519   -16291.783    2188.3759 
   96550    286.18235   -558.83445    50938.553   -14881.685    1425.4553   -16307.141    2191.9784 
   96600    295.46713   -440.78332    50885.592   -14855.498    1471.7022     -16327.2     2192.446 
   96650    288.71098   -165.94296    50883.527   -14818.483    1438.0502   -16256.533    2195.6857 
   96700    292.66855   -237.85718    50937.021    -14818.03    1457.7626   -16275.793    2196.4034 
   96750    297.85602    -574.9712    50871.838   -14808.769    1483.6011    -16292.37    2196.2698 
   96800    291.36301   -527.49085    51014.306   -14835.801    1451.2598   -16287.061    2202.7573 
   96850    287.42532   -783.39215     50792.76   -14860.335    1431.6464   -16291.981    2196.9055 
   96900    285.82547   -530.35964    50801.095   -14876.395    1423.6777   -16300.073    2196.6334 
   96950    284.94227   -418.36224    50928.837   -14875.775    1419.2785   -16295.054    2199.6582 
   97000    289.11971   -164.05536    50737.218   -14877.436    1440.0861   -16317.522    2195.1426 
   97050    283.00139   -578.30973    50752.904   -14892.626    1409.6111   -16302.237    2196.6325 
   97100    289.41014   -694.08523    50732.427   -14864.576    1441.5327   -16306.109    2196.0693 
   97150    286.02364   -1080.0991    50799.967   -14918.239    1424.6648   -16342.904    2200.8118 
   97200    299.19075   -511.92679    50885.423   -14872.286    1490.2493   -16362.535    2201.5149 
   97250    292.36357    -331.2891    50718.542    -14920.29    1456.2435   -16376.534    2196.3514 
   97300    288.97939   -189.83341    50631.802    -14889.03    1439.3871   -16328.417    2195.6577 
   97350    290.84972   -450.57616    50575.996   -14866.882    1448.7031   -16315.585    2192.9047 
   97400    282.77662   -489.72548    50559.087   -14932.734    1408.4916   -16341.226    2195.7872 
   97450    289.90609   -860.64572    50596.807   -14882.278     1444.003   -16326.281    2201.2806 
   97500    288.60966   -422.23603    50539.349   -14898.874    1437.5456   -16336.419    2201.5244 
   97550    288.59923   -628.69983    50429.822   -14935.571    1437.4936   -16373.065    2196.4301 
   97600    287.18068    118.53453    50710.294   -14952.788    1430.4279   -16383.216    2204.5449 
   97650    286.97303   -635.21355    50953.961   -14918.355    1429.3936   -16347.749    2211.1789 
   97700     280.7744   -562.85285    50938.383   -14934.092    1398.5186   -16332.611    2207.6395 
   97750    286.22568   -355.20221    50960.299   -14910.399    1425.6711    -16336.07    2212.8688 
   97800    294.37836   -736.20655    51087.614   -14856.629    1466.2791   -16322.908    2221.0129 
   97850    296.96589   -896.45901     50967.51   -14809.864    1479.1674   -16289.031    2216.6159 
   97900    291.91104   -518.96533    50787.728   -14841.898    1453.9895   -16295.887    2212.2353 
   97950    293.63182   -707.23503    50640.819   -14871.511    1462.5606   -16334.072     2210.031 
   98000    286.20179   -335.55953    50785.039   -14882.949    1425.5521   -16308.501    2214.9711 
   98050    292.07642   -430.58287    50510.541   -14840.127    1454.8132    -16294.94    2211.7588 
   98100    288.49317   -505.41093    50874.704   -14884.695    1436.9653    -16321.66    2224.7361 
   98150    287.40857   -562.91291     50920.01    -14831.57     1431.563   -16263.133    2226.1974 
   98200    294.60529   -384.64681    51146.644   -14813.239    1467.4094   -16280.648    2235.4942 
   98250    292.19396   -658.52055    51090.748   -14807.275    1455.3987   -16262.674    2233.0156 
   98300    289.34687   -365.72034    51060.719   -14802.014    1441.2175   -16243.232    2233.1934 
   98350     293.9477   -580.85842    51117.113   -14857.185     1464.134   -16321.318     2236.017 
   98400    284.29949   -449.73268    51245.076   -14853.658    1416.0769   -16269.735    2240.3093 
   98450    294.14095   -705.09762    51226.666   -14858.721    1465.0965   -16323.817    2242.8635 
   98500    291.43392   -524.16521    51201.289   -14857.609     1451.613   -16309.222    2243.0996 
   98550    283.31561   -454.22438    51105.072   -14937.237    1411.1762   -16348.413    2242.5845 
   98600    284.71318   -427.97965    51104.301   -14913.624    1418.1375   -16331.761    2240.1906 
   98650    290.68526   -389.92396    51157.139   -14918.846     1447.884    -16366.73    2243.3818 
   98700    285.99156   -697.11203    51170.656   -14920.433     1424.505   -16344.938    2244.4348 
   98750    289.11479   -704.70228    51065.968   -14929.069    1440.0615   -16369.131    2241.4295 
   98800    294.64368   -697.18727    51132.823   -14905.632    1467.6006   -16373.233    2244.4564 
   98850    284.27739   -907.64219    50936.293   -14844.462    1415.9668   -16260.429    2240.4851 
   98900    299.35738   -502.09459    50874.999   -14828.473    1491.0792   -16319.552    2240.0761 
   98950    290.51107   -557.63398    50942.084    -14885.37    1447.0164   -16332.387    2242.0806 
   99000    285.40515   -709.76512    50922.675   -14905.122    1421.5841   -16326.706     2241.603 
   99050    284.15198   -854.96028     50744.77   -14901.012    1415.3422   -16316.354    2237.8433 
   99100    304.88032   -653.95939    50829.297   -14854.685    1518.5886   -16373.273    2242.3538 
   99150    284.57284   -318.39806    50978.662   -14899.106    1417.4384   -16316.545    2245.0557 
   99200    292.53151   -788.98808    50990.855   -14885.193      1457.08   -16342.273    2247.4161 
   99250    294.12234   -418.49815    51120.221   -14882.047    1465.0038   -16347.051    2251.1102 
   99300    290.35464   -356.49077    51081.705   -14880.198    1446.2372   -16326.435    2251.5947 
   99350    288.46591   -556.48587    51094.526   -14892.102    1436.8296   -16328.931     2253.519 
   99400    290.33585   -115.09888    51118.644   -14871.771    1446.1436   -16317.915    2255.5318 
   99450    291.87101   -579.84126    51113.082   -14912.178    1453.7901   -16365.968    2258.7019 
   99500    284.42688   -593.71693    51170.922   -14906.068    1416.7114    -16322.78    2258.8685 
   99550    279.63224   -131.94759     51118.94   -14948.767    1392.8296   -16341.597    2258.0366 
   99600    297.28707   -388.22005    51165.597   -14877.654    1480.7672   -16358.422    2261.2128 
   99650    286.12769   -303.27872    51113.478   -14936.746     1425.183   -16361.929     2259.641 
   99700    282.49507   -532.63405    50865.831   -14908.855    1407.0892   -16315.944     2251.852 
   99750    287.52817   -200.73324      50767.8   -14911.161    1432.1587    -16343.32    2249.3722 
   99800    293.10756   -282.11245    50772.812   -14886.122    1459.9493   -16346.072     2251.139 
   99850    288.01309   -847.35931    50830.964   -14858.616    1434.5741    -16293.19    2251.2112 
   99900    292.00835   -792.97778    50843.688   -14862.043    1454.4742   -16316.517    2253.3959 
   99950    292.72308   -635.21267      50761.2    -14875.96    1458.0342   -16333.994    2251.7368 
  100000    293.07728   -553.73515    50694.535   -14873.459    1459.7984   -16333.257    2249.9446 
  100050     291.0091    64.596022    50631.067   -14865.895     1449.497   -16315.392    2247.8943 
  100100    293.10624   -423.56326    50692.627   -14851.566    1459.9427   -16311.509     2249.817 
  100150    282.27801   -756.30285    50526.809   -14854.994     1406.008   -16261.002    2245.5104 
  100200    290.54165    -684.0377    50314.491   -14870.534    1447.1686   -16317.703    2236.9223 
  100250     289.8842   -306.72164    50432.184    -14875.09     1443.894   -16318.984    2241.7773 
  100300    282.48012    7.3700483    50784.977   -14900.903    1407.0147   -16307.917    2252.0885 
  100350    291.51131   -467.06622    50896.551   -14894.001    1451.9985       -16346    2254.7877 
  100400    290.76903   -557.03728    50699.165   -14899.445    1448.3012   -16347.746    2249.3957 
  100450    281.27082   -599.85188    50705.185   -14906.942    1400.9913   -16307.934    2250.4031 
  100500    291.21893   -562.20425    50699.589    -14939.36    1450.5421   -16389.902    2251.3255 
  100550    282.55748   -264.69347    50802.352   -14892.489    1407.4001   -16299.889    2253.8885 
  100566    290.97769   -404.09974    50813.287    -14900.52    1449.3406   -16349.861     2253.573 
Loop time of 94.7936 on 4 procs for 100000 steps with 1672 atoms

Performance: 911.454 ns/day, 0.026 hours/ns, 1054.923 timesteps/s
99.7% CPU use with 4 MPI tasks x no OpenMP threads

MPI task timing breakdown:
Section |  min time  |  avg time  |  max time  |%varavg| %total
---------------------------------------------------------------
Pair    | 71.799     | 72.646     | 74.143     |  10.8 | 76.64
Neigh   | 9.9915     | 10.058     | 10.133     |   1.9 | 10.61
Comm    | 7.9418     | 9.4662     | 10.36      |  31.1 |  9.99
Output  | 0.090762   | 0.096156   | 0.11177    |   2.9 |  0.10
Modify  | 1.9109     | 1.9211     | 1.9293     |   0.6 |  2.03
Other   |            | 0.6067     |            |       |  0.64

Nlocal:        418.000 ave         427 max         404 min
Histogram: 1 0 0 0 0 0 1 1 0 1
Nghost:        1070.50 ave        1083 max        1063 min
Histogram: 2 0 0 0 0 1 0 0 0 1
Neighs:        0.00000 ave           0 max           0 min
Histogram: 4 0 0 0 0 0 0 0 0 0
FullNghs:      11999.5 ave       12282 max       11618 min
Histogram: 1 0 0 0 0 1 0 1 0 1

Total # of neighbors = 47998
Ave neighs/atom = 28.706938
Neighbor list builds = 12772
Dangerous builds = 0
undump 1
reset_timestep 0
#unfix 2
#unfix 3
#unfix 4

################################################
####### Insert Ice #########
################################################

log log.${NAME}.eq_all
log log.icewater_289K_500atm_ML_DC.eq_all
