
# Set production fixes - Nose/Hoover
#
fix                 2 all nph iso ${PRES} ${PRES} ${PCOUPL}
fix                 2 all nph iso -500 ${PRES} ${PCOUPL}
fix                 2 all nph iso -500 -500 ${PCOUPL}
fix                 2 all nph iso -500 -500 10000.0
fix                 3 all temp/csvr ${TEMP} ${TEMP} ${TCOUPL} 837492
fix                 3 all temp/csvr 294 ${TEMP} ${TCOUPL} 837492
fix                 3 all temp/csvr 294 294 ${TCOUPL} 837492
fix                 3 all temp/csvr 294 294 5000.0 837492

# Define Order parameter
#
compute             2 all orientorder/atom nnn NULL cutoff 3.5
thermo              200
thermo_style        custom step temp press vol etotal ke pe c_1[4]

# Run 1ns simulation
dump		    1 all custom 400 prod.${NAME}.dump id type x y z vx vy vz c_2[*]
dump		    1 all custom 400 prod.ice_294K_500atm_ML.dump id type x y z vx vy vz c_2[*]
run                 200000
Neighbor list info ...
  update every 1 steps, delay 0 steps, check yes
  max neighbors/atom: 2000, page size: 100000
  master list distance cutoff = 6.0032907
  ghost atom cutoff = 6.0032907
  binsize = 3.0016454, bins = 9 11 11
  2 neighbor lists, perpetual/occasional/extra = 1 1 0
  (1) pair sw, perpetual
      attributes: full, newton on
      pair build: full/bin/atomonly
      stencil: full/bin/3d
      bin: standard
  (2) compute orientorder/atom, occasional, copy from (1)
      attributes: full, newton on
      pair build: copy
      stencil: none
      bin: none
Per MPI rank memory allocation (min/avg/max) = 5.736 | 5.736 | 5.736 Mbytes
Step Temp Press Volume TotEng KinEng PotEng c_1[4] 
       0    286.63686   -497.00521    25899.267   -8247.3966    682.67361   -8930.0702   0.13728132 
     200    290.91066   -562.90319    25901.992   -8247.0222     692.8524   -8939.8746    0.1455349 
     400    289.85453   -488.15647    25891.919   -8245.2523    690.33704   -8935.5893   0.14404697 
     600    289.30283   -376.96279    25883.004     -8258.87    689.02307   -8947.8931    0.1349414 
     800    296.79001   -548.36563    25895.615   -8266.3775    706.85504   -8973.2325   0.13553061 
    1000    289.52383   -531.73849    25882.021   -8268.5328    689.54941   -8958.0822   0.14020462 
    1200    283.70473   -458.14717    25864.306   -8268.3218    675.69027   -8944.0121   0.13931864 
    1400    283.89161   -499.13587    25897.222    -8268.309    676.13534   -8944.4443   0.13546724 
    1600    289.05318   -637.04963    25924.413   -8280.9514    688.42848   -8969.3799   0.13121351 
    1800    273.23695     -495.616    25891.412   -8274.3143    650.75949   -8925.0738   0.13805463 
    2000    281.44354   -436.48215    25880.258   -8255.7931    670.30485    -8926.098    0.1417316 
    2200    293.46616   -482.51511    25918.731   -8245.0657    698.93874   -8944.0044    0.1326969 
    2400    287.09595   -674.81787    25936.001   -8248.9013    683.76701   -8932.6683   0.14791988 
    2600    279.54878    -390.7217    25888.443   -8261.4536    665.79218   -8927.2458   0.13973431 
    2800    289.14899   -397.73268    25884.308   -8265.2881    688.65668   -8953.9448   0.13116088 
    3000    282.76441   -689.96011    25950.062   -8272.8896    673.45072   -8946.3403   0.13751683 
    3200    298.68541   -529.93809     25930.31   -8241.8495    711.36925   -8953.2187    0.1371868 
    3400    286.17169   -206.73586    25863.526   -8266.3515    681.56573   -8947.9172   0.13181764 
    3600     280.3175   -529.24379    25899.854   -8287.6176      667.623   -8955.2406    0.1377765 
    3800    290.93989   -642.99357    25947.289   -8254.2236      692.922   -8947.1456   0.13218922 
    4000    293.94544   -481.25416    25912.461   -8246.6421    700.08021   -8946.7224   0.13327062 
    4200    285.88789   -234.20941    25872.404   -8257.2007    680.88982   -8938.0906     0.123518 
    4400    297.43475   -516.71274    25929.454   -8246.0465    708.39061   -8954.4371   0.12907443 
    4600    292.88348   -744.45855    25962.979   -8236.2889    697.55099   -8933.8399   0.13807809 
    4800    299.07279   -424.38085    25900.055   -8224.5124    712.29187   -8936.8043   0.13379814 
    5000    298.07834   -366.46457    25888.242   -8226.8819    709.92343   -8936.8054   0.13913316 
    5200    288.50576   -775.65135    25959.696   -8220.4974    687.12471   -8907.6221   0.14934369 
    5400    301.77497   -594.07855    25948.601    -8205.734    718.72757   -8924.4616   0.14263483 
    5600    294.90768   -363.18423    25887.498    -8206.556    702.37196   -8908.9279   0.14303394 
    5800    308.18884   -463.20038    25914.403   -8202.7444    734.00325   -8936.7477   0.13635766 
    6000    294.89959   -676.15531    25960.156   -8193.4453    702.35269    -8895.798   0.14424854 
    6200    307.91382   -449.36409    25928.037   -8200.5592    733.34826   -8933.9074   0.13352427 
    6400    302.30939   -280.66139    25901.291   -8184.9121    720.00038   -8904.9125   0.13078424 
    6600    300.44947   -586.56258    25952.252    -8198.564    715.57066   -8914.1346   0.14546872 
    6800    291.80362   -630.06029    25960.026   -8219.8651    694.97913   -8914.8442   0.13872391 
    7000     309.4064   -265.41438    25895.794   -8203.7264    736.90309   -8940.6295   0.13111886 
    7200    310.38465   -419.19847    25903.965    -8177.218    739.23295    -8916.451   0.14776782 
    7400    303.16601   -642.72431    25990.978   -8165.0489    722.04055   -8887.0895   0.14040479 
    7600    296.79972   -666.69433     25973.89   -8175.1193    706.87818   -8881.9975   0.14448327 
    7800    305.56369   -215.56887    25868.371   -8192.5538    727.75102   -8920.3048   0.13437026 
    8000    306.53712   -275.98775    25913.693   -8176.8396    730.06941   -8906.9091   0.13365861 
    8200    298.87801   -952.27136    26040.458   -8195.7568    711.82797   -8907.5848   0.14206316 
    8400    297.45151    -503.9632    25946.381    -8201.751    708.43052   -8910.1815    0.1316057 
    8600     305.9559    16.493415    25838.724   -8182.6361    728.68515   -8911.3213   0.14273659 
    8800    315.94499   -623.86129    25973.041   -8162.9772    752.47584    -8915.453   0.13784969 
    9000     312.6949   -1048.4205    26060.708    -8164.852    744.73521   -8909.5872   0.14633279 
    9200    297.44178   -420.74911    25898.667   -8159.4715    708.40735   -8867.8788   0.15819949 
    9400    308.14312    33.783354    25826.456    -8170.189    733.89438   -8904.0834   0.14017176 
    9600    301.95276   -860.54678    26014.308   -8167.1539    719.15098   -8886.3048   0.14063815 
    9800    314.69825   -918.72487    26039.374   -8171.5614     749.5065   -8921.0679   0.14710742 
   10000    296.72907   -99.386299    25815.954   -8178.5605    706.70989   -8885.2703   0.14811988 
   10200    304.84122   -95.735272    25819.876   -8184.1022    726.03033   -8910.1325   0.14590712 
   10400    300.40291    -1077.173    26073.857   -8168.5685    715.45976   -8884.0283   0.14752168 
   10600    304.07307   -898.84683     26029.77   -8171.7047    724.20087   -8895.9055   0.14692802 
   10800    302.82215    222.16029    25763.967   -8188.1686    721.22159   -8909.3902   0.13843098 
   11000    309.47573   -155.56783    25868.867   -8199.4566    737.06821   -8936.5248   0.13048677 
   11200    284.84927   -1373.1432    26118.487   -8210.0203    678.41616   -8888.4364   0.15083224 
   11400    294.16881   -572.21946    25950.765   -8223.8227    700.61222   -8924.4349   0.13413302 
   11600    295.93936    368.23794    25729.431   -8216.4146    704.82907   -8921.2436   0.13200437 
   11800     298.5571   -536.19976    25940.402   -8234.5324    711.06367   -8945.5961   0.13435585 
   12000    308.65896   -1303.9058    26106.482   -8239.0003    735.12293   -8974.1233   0.13080068 
   12200    290.85682   -201.95669    25867.216   -8232.3756    692.72416   -8925.0997   0.13437834 
   12400    302.21849    295.47579    25763.226   -8220.5786    719.78388   -8940.3625   0.13195277 
   12600    291.42756   -979.50708    26016.235   -8224.3372    694.08346   -8918.4207   0.14204601 
   12800    294.54022   -1034.2042    26061.574   -8226.5885     701.4968   -8928.0853   0.13123036 
   13000    305.03154   -54.942535    25808.572   -8223.7729    726.48363   -8950.2565    0.1358735 
   13200    304.30548   -15.114937    25798.893   -8221.2854    724.75439   -8946.0398   0.14474443 
   13400    299.09631   -1085.5745    26028.753   -8231.7205    712.34788   -8944.0684   0.14379406 
   13600     297.0491   -767.13872    25979.022   -8214.2739     707.4721    -8921.746   0.13604013 
   13800    306.83961    83.748785    25785.544   -8201.4918    730.78983   -8932.2816   0.15241417 
   14000    294.68057   -335.36177    25881.038   -8201.5742    701.83107   -8903.4053   0.14715437 
   14200    298.26733   -1030.6841    26046.274    -8203.391    710.37353   -8913.7645    0.1393181 
   14400    299.29057   -505.49358    25930.447   -8220.2738    712.81054   -8933.0844   0.13989024 
   14600    288.77309    -131.2657    25802.815   -8224.1845     687.7614   -8911.9459   0.15255931 
   14800    297.05868   -459.40075    25903.976   -8212.9862    707.49493   -8920.4811   0.14594425 
   15000    295.21805    -828.9092    25998.242   -8233.7232    703.11117   -8936.8344   0.13865377 
   15200    278.90548   -504.97965    25916.401   -8262.5331    664.26005   -8926.7932   0.13692815 
   15400    292.26584   -231.39283    25851.345   -8257.6094    696.07997   -8953.6893   0.13874083 
   15600    282.64739   -595.34595    25913.398   -8276.6823    673.17203   -8949.8543   0.13620479 
   15800    283.70779   -700.71582    25958.263   -8256.3069    675.69755   -8932.0044   0.13678269 
   16000     281.5294   -506.69412    25925.275   -8253.6061    670.50933   -8924.1155   0.14118552 
   16200    303.63676   -269.90607    25894.649   -8240.5891    723.16171   -8963.7508   0.12340299 
   16400    291.96992   -538.31158    25937.223   -8251.3517    695.37519   -8946.7269   0.13670395 
   16600    286.19392   -695.90055    25961.896   -8263.7937    681.61868   -8945.4124   0.13951693 
   16800    295.57679   -287.50498    25899.059   -8247.4043    703.96555   -8951.3699   0.13029871 
   17000    308.80508   -327.52026    25888.225   -8253.2425    735.47093   -8988.7134   0.12768879 
   17200    292.56675    -637.5995    25943.203   -8242.9873    696.79665    -8939.784   0.13836998 
   17400    292.68922   -589.52335    25929.728   -8260.3026    697.08833   -8957.3909   0.13046848 
   17600    293.15899   -423.17085    25864.726   -8275.3054    698.20716   -8973.5126   0.13382969 
   17800    292.49876   -439.69991     25884.58   -8278.0428    696.63471   -8974.6775   0.12884736 
   18000    289.71453   -716.26482    25941.025   -8293.9144     690.0036    -8983.918   0.13598664 
   18200     278.0502    -515.0727    25909.011    -8304.504    662.22305   -8966.7271   0.13462958 
   18400    277.98566   -260.86988    25843.454   -8301.4126    662.06933   -8963.4819   0.13398218 
   18600    276.21585   -515.12959    25898.838   -8286.8842    657.85423   -8944.7384   0.13865243 
   18800    288.61637   -671.43887     25971.18   -8254.4597    687.38816   -8941.8479   0.13590521 
   19000    290.38351   -449.72829    25905.566   -8263.5706     691.5969   -8955.1675   0.13484513 
   19200    287.66193   -202.19878    25842.582   -8263.6824    685.11498   -8948.7974   0.13844291 
   19400    282.54601   -536.20019    25928.969    -8257.398    672.93058   -8930.3286   0.13832007 
   19600    284.86066   -803.74549    25979.486   -8266.0531     678.4433   -8944.4964   0.13517334 
   19800    282.87078   -317.30723    25874.343   -8270.8861    673.70407   -8944.5901   0.13331616 
   20000    282.48543   -291.09191    25841.861   -8265.8156     672.7863   -8938.6019   0.13739298 
   20200    288.96073   -769.78819    25945.841   -8273.7351    688.20829   -8961.9434   0.14639749 
   20400    291.67993   -647.24727    25939.779   -8272.6843    694.68454   -8967.3689    0.1308439 
   20600    290.47164   -201.58379    25820.477   -8266.3664    691.80678   -8958.1732   0.13352722 
   20800    283.27541   -305.76219    25852.259   -8258.3011    674.66776   -8932.9689    0.1421134 
   21000    288.21932   -891.97739    25994.423   -8266.9513     686.4425   -8953.3938   0.13453774 
   21200    291.25467   -707.55812    25944.322   -8258.9622     693.6717   -8952.6339   0.14354199 
   21400    294.14462    95.079084    25782.654   -8257.4004     700.5546    -8957.955   0.14096398 
   21600    293.06388   -413.57977    25868.775   -8250.0263    697.98064   -8948.0069   0.15229412 
   21800    291.09049   -1187.3925    26038.865   -8237.8758    693.28067   -8931.1565   0.15544862 
   22000    304.26141   -495.49321    25911.566   -8238.1279    724.64943   -8962.7773   0.13856308 
   22200    303.31961    183.32288    25768.313   -8224.6148    722.40637   -8947.0211    0.1380001 
   22400    303.13465   -680.86443    25947.373   -8219.5884    721.96587   -8941.5543   0.14394757 
   22600    281.42178   -1133.1108    26065.606    -8220.032    670.25304   -8890.2851   0.14715153 
   22800    298.95379   -319.11632    25844.888   -8227.0228    712.00844   -8939.0313   0.15485125 
   23000    294.72244    146.21794    25758.953   -8229.9948    701.93079   -8931.9256   0.14806039 
   23200    311.29554   -905.47669    26021.948   -8224.0213    741.40239   -8965.4237   0.13240514 
   23400    287.09138   -1112.9723    26057.304    -8229.877    683.75614   -8913.6331   0.15443027 
   23600    292.13444    119.12512    25771.252   -8237.4993    695.76702   -8933.2663   0.14262528 
   23800    296.53417    112.38864    25801.011   -8222.3217    706.24573   -8928.5674   0.13168496 
   24000     287.5307   -1228.8249    26100.063   -8237.9449    684.80244   -8922.7473   0.14177107 
   24200    293.58066   -871.23926     26018.73   -8229.6116    699.21144    -8928.823   0.14432046 
   24400    287.53661    297.27385    25745.381   -8245.2235    684.81652   -8930.0401    0.1405133 
   24600    303.37476   -258.63982    25869.303   -8238.5599    722.53771   -8961.0976   0.13603128 
   24800    304.01216   -1340.8416    26119.708   -8204.8609     724.0558   -8928.9167   0.15348697 
   25000    298.82482   -633.25576    25973.068   -8213.1616    711.70128   -8924.8628   0.15091691 
   25200    303.76785    261.87639    25758.821   -8225.0912    723.47392   -8948.5651   0.12978901 
   25400    291.41995   -540.30188    25921.671   -8236.2636    694.06533   -8930.3289   0.14494924 
   25600    289.85343   -1128.9007    26072.484   -8268.6568    690.33442   -8958.9913   0.13460487 
   25800    287.97209   -342.10786    25875.319   -8270.7025    685.85369   -8956.5562   0.12679815 
   26000    291.00068    130.74711    25767.884    -8272.221    693.06679   -8965.2878   0.13211141 
   26200    292.33074   -749.51584    25964.158   -8289.7507    696.23454   -8985.9852   0.14234036 
   26400    284.20946   -908.47519    26009.493   -8295.0417    676.89237    -8971.934   0.13126903 
   26600     279.8999   -147.41034    25814.318   -8293.2191    666.62841   -8959.8475   0.13090831 
   26800      276.704   -85.078855    25813.145   -8296.9078    659.01684   -8955.9247   0.13379353 
   27000    272.21481    -916.9029    26014.423     -8291.41    648.32509   -8939.7351   0.13908012 
   27200    286.79187   -853.32054    25978.601   -8278.6868    683.04279   -8961.7296   0.13413479 
   27400    288.65125    13.866364    25771.986   -8274.7325    687.47122   -8962.2037   0.13927501 
   27600    295.30886   -309.84076    25858.787   -8272.1992    703.32743   -8975.5266   0.14482451 
   27800    290.91145    -1074.547    26069.415   -8258.0747    692.85426    -8950.929   0.12779163 
   28000    291.55801   -614.01959    25950.058   -8254.7308    694.39417   -8949.1249   0.13287789 
   28200    291.67359    214.72007    25775.042   -8263.9303    694.66944   -8958.5998   0.13623921 
   28400    287.48668   -555.06485    25925.565   -8251.3335     684.6976   -8936.0311   0.14068335 
   28600    301.35986   -1078.1889    26052.961   -8257.7366    717.73891   -8975.4755   0.13407565 
   28800     287.0584   -314.31974    25872.184   -8266.2275    683.67757   -8949.9051   0.13983686 
   29000    287.55798    29.851722    25786.837   -8286.5803    684.86741   -8971.4477   0.13260403 
   29200    281.62386   -752.96448    25964.417   -8294.1317    670.73431    -8964.866   0.13293608 
   29400    292.33776   -1001.6647    26012.201   -8287.0239    696.25127   -8983.2751   0.13583409 
   29600    290.11152   -127.04835    25827.462   -8277.7428     690.9491   -8968.6919   0.13216941 
   29800     279.1306   -121.55443    25831.386   -8253.4443     664.7962   -8918.2405   0.14205657 
   30000    297.55515   -842.79567    26021.003   -8241.9064    708.67736   -8950.5838   0.13371741 
   30200    290.11252   -820.60163    25986.362   -8244.8898    690.95148   -8935.8413   0.14072891 
   30400     288.1922     8.366121    25801.874   -8267.2919    686.37791   -8953.6699   0.13180055 
   30600    294.52433   -235.16091    25866.053   -8243.1628    701.45896   -8944.6218   0.13396883 
   30800    293.21267   -1056.2338    26051.315   -8219.7727    698.33502   -8918.1077   0.14644308 
   31000    291.74494   -651.90428    25967.029   -8232.0923    694.83937   -8926.9317   0.14148713 
   31200    299.44677   -22.262718    25802.082    -8222.149    713.18255   -8935.3316   0.13722736 
   31400    294.33489   -455.31229    25910.956   -8214.9108    701.00777   -8915.9186   0.14563256 
   31600    295.56674   -1069.0647    26039.249   -8235.6982    703.94161   -8939.6398   0.14031489 
   31800    293.19403   -413.57344     25905.83   -8235.5479    698.29061   -8933.8385   0.14054692 
   32000    291.67501   -30.717297    25816.027   -8227.8058    694.67281   -8922.4786   0.14015054 
   32200    299.14325   -609.22524    25963.857   -8224.6131    712.45967   -8937.0728   0.13765435 
   32400    293.86777   -1045.8476     26026.63    -8226.735    699.89523   -8926.6302   0.14499169 
   32600    299.44334   -250.34257    25865.123   -8230.0173    713.17438   -8943.1917   0.13496088 
   32800    296.64681   -92.934215    25831.724   -8225.5223    706.51397   -8932.0362    0.1343539 
   33000    306.89684   -767.93951    25988.896   -8217.1109    730.92614   -8948.0371   0.14093882 
   33200    297.86146   -833.62541    26003.134   -8227.1117    709.40687   -8936.5185    0.1414242 
   33400    300.62938   -90.721184    25867.346   -8208.9384    715.99915   -8924.9376   0.14146144 
   33600     316.0787   -239.13325    25898.463   -8178.5359    752.79428   -8931.3302   0.13880353 
   33800    310.75993   -882.98088    26019.221   -8190.3254    740.12674   -8930.4521   0.14066234 
   34000    294.97784   -564.07569    25940.824   -8207.0943    702.53906   -8909.6334   0.14397573 
   34200    283.83869   -203.61707    25836.551   -8231.0131    676.00931   -8907.0225   0.14309349 
   34400     297.6884   -489.44062    25906.138   -8248.8151    708.99471   -8957.8098   0.13391596 
   34600    296.76661   -831.60072    25980.075   -8239.7469     706.7993   -8946.5462   0.14159294 
   34800    292.42252   -438.03941    25908.718   -8248.1415    696.45313   -8944.5946   0.13344658 
   35000    287.86032   -234.68779    25854.439   -8247.2057    685.58749   -8932.7932   0.13377779 
   35200    294.91034   -550.00681    25927.995   -8254.0985    702.37829   -8956.4768   0.13521421 
   35400    301.67211   -656.17745    25962.218   -8248.3642    718.48259   -8966.8468    0.1303502 
   35600    278.27574   -476.03826     25885.47   -8251.9462    662.76022   -8914.7064   0.14649918 
   35800    294.77216   -312.89344     25861.88   -8246.6687     702.0492   -8948.7179   0.13964068 
   36000    293.85785   -723.66224    25932.844   -8242.6125    699.87162   -8942.4841   0.14944378 
   36200    299.94259   -671.55585    25938.386   -8240.7953    714.36344   -8955.1588    0.1425082 
   36400    293.00878   -320.11466    25855.681   -8252.9867     697.8494   -8950.8361   0.14213901 
   36600    286.92605   -272.73161    25859.271   -8240.7758    683.36236   -8924.1382   0.14773985 
   36800    316.56083   -626.45397    25944.886   -8234.0573    753.94255   -8987.9999   0.13542673 
   37000    292.33001   -621.11426    25932.707   -8241.9208    696.23281   -8938.1536   0.13934961 
   37200    294.84387   -334.27315    25858.557   -8227.5185    702.21999   -8929.7385   0.15046314 
   37400    306.62584   -341.47962    25876.962   -8226.4068    730.28073   -8956.6876    0.1351384 
   37600    296.60076   -805.45662    25953.784   -8223.0957    706.40432   -8929.5001   0.14574457 
   37800    295.66977   -756.45802     25916.08   -8211.1857      704.187   -8915.3727   0.16527193 
   38000    309.95506   -180.23913    25847.411   -8227.7887    738.20982   -8965.9985   0.14079717 
   38200    298.64678    -477.1254     25903.11   -8229.7332    711.27724   -8941.0105   0.14351486 
   38400    296.01883   -751.30052     25958.15   -8214.5632    705.01835   -8919.5816   0.15383751 
   38600     304.7114   -357.71768    25894.674   -8214.8722    725.72116   -8940.5933   0.14709916 
   38800    300.67325   -261.03824    25873.791   -8230.3518    716.10364   -8946.4555   0.13673734 
   39000    295.86592   -630.06404    25953.311    -8248.597    704.65417   -8953.2512   0.13435539 
   39200    291.85623   -659.93958    25938.124    -8251.985    695.10441   -8947.0894   0.15069712 
   39400    295.57445   -199.03536    25832.896   -8254.4541    703.95998   -8958.4141   0.14125452 
   39600    293.69142    -338.2241    25872.475    -8278.636    699.47524   -8978.1113   0.13282303 
   39800    289.69714   -923.89247    25978.502   -8265.9902    689.96218   -8955.9524   0.15306525 
   40000    282.87983   -564.65641    25916.197   -8264.1966    673.72562   -8937.9223   0.14335522 
   40200    295.73047   -42.323755    25806.204   -8252.8585    704.33156     -8957.19   0.13495066 
   40400    297.00666   -428.69712    25908.121   -8246.0091    707.37102   -8953.3801   0.14069505 
   40600    294.42927   -1003.5847    26043.224   -8259.2626    701.23254   -8960.4952   0.13371548 
   40800    285.12483   -406.57411    25890.921   -8270.5427    679.07247   -8949.6152   0.13454805 
   41000    297.47552    164.33344    25759.741   -8272.7063     708.4877    -8981.194   0.13369415 
   41200    289.58354    -769.8712    25966.409   -8287.0839    689.69163   -8976.7755   0.13320392 
   41400    283.98383   -1189.8322    26076.699   -8278.5125    676.35498   -8954.8675   0.13777352 
   41600    291.09703   -113.33979     25812.05   -8275.1068    693.29625    -8968.403   0.13934709 
   41800    292.68638    171.68916    25734.898   -8268.3497    697.08156   -8965.4313   0.14493492 
   42000     284.0699   -1162.2547    26051.495     -8251.27    676.55997     -8927.83   0.15063895 
   42200      287.164   -1193.5406     26062.69   -8264.5433    683.92908   -8948.4724   0.13888054 
   42400    288.71933    295.09188    25713.498   -8284.9129    687.63337   -8972.5462   0.14502232 
   42600    286.53166   -18.254244    25777.247   -8290.5384    682.42307   -8972.9615   0.14160922 
   42800    281.32085   -1481.0176     26122.45   -8302.8881    670.01265   -8972.9008   0.13314375 
   43000    279.16881   -857.87898    25972.912   -8290.3139     664.8872   -8955.2011    0.1470335 
   43200    288.94372    513.89359    25661.333   -8294.2561    688.16779   -8982.4239   0.14075224 
   43400    292.37491   -413.31805    25869.527   -8288.5639    696.33975   -8984.9036   0.13605391 
   43600    278.96231   -1499.0616    26131.592   -8288.7386    664.39539   -8953.1339   0.13732385 
   43800    282.10966   -434.51755    25893.785   -8285.0929    671.89134   -8956.9842   0.13990433 
   44000    282.56207    282.21478    25713.092   -8285.9921    672.96883   -8958.9609   0.14212663 
   44200    281.24274   -704.87317    25957.317   -8304.1511    669.82663   -8973.9777   0.13697462 
   44400    284.42176   -1176.6623    26061.523   -8294.9596    677.39798   -8972.3576   0.13590934 
   44600    287.46556   -153.15369    25838.619   -8266.4484    684.64731   -8951.0958   0.14255594 
   44800    290.64579   0.20078497    25795.294   -8249.2324    692.22156   -8941.4539   0.14919391 
   45000    285.59061   -953.63193    25993.005    -8244.483    680.18181   -8924.6648   0.15157743 
   45200    286.88871   -952.03545    25999.763   -8259.4942    683.27343   -8942.7677   0.14547459 
   45400    290.84866   -86.378803     25796.77   -8282.9928    692.70471   -8975.6975   0.14178727 
   45600    297.55161   -154.72366     25817.75   -8282.3707    708.66891   -8991.0396   0.13177701 
   45800    306.42794   -865.50093    26005.297   -8268.0196    729.80937    -8997.829   0.12981051 
   46000    293.33958   -700.75323    25960.552   -8262.0519    698.63725   -8960.6892   0.13731798 
   46200     288.9339    29.308317    25794.024   -8270.6739     688.1444   -8958.8183   0.13585386 
   46400    288.35556   -327.31948    25864.985   -8272.4026    686.76699   -8959.1696   0.13770936 
   46600    301.06667   -919.72479     26011.38   -8273.3556    717.04063   -8990.3963   0.13442975 
   46800    294.44745   -636.34244    25918.222    -8261.374    701.27585   -8962.6499   0.14617032 
   47000    297.20099    104.45903    25790.096   -8253.1037    707.83387   -8960.9376   0.13310483 
   47200    291.72707    -564.8133    25923.388   -8253.4184    694.79681   -8948.2152    0.1409058 
   47400    304.31076   -1067.5461    26038.269   -8222.2366    724.76697   -8947.0035   0.14803458 
   47600    302.85427   -448.50667    25898.838   -8212.5908     721.2981   -8933.8889   0.14495019 
   47800    290.17587   -98.806965    25825.874    -8203.788    691.10236   -8894.8904   0.14843868 
   48000    312.39685   -752.93104    25974.693   -8194.4494    744.02533   -8938.4748   0.14778223 
   48200    299.58519   -932.98651    26020.208   -8200.6687    713.51223   -8914.1809   0.14962042 
   48400    307.84446   -250.10177     25871.93   -8195.4309    733.18306    -8928.614   0.14135715 
   48600    299.40333   -176.98089    25858.702   -8224.8188    713.07909   -8937.8978   0.14210871 
   48800    301.16018    -705.3713    25990.998   -8199.5583    717.26333   -8916.8217   0.14842182 
   49000    315.70926   -717.81506    25982.065    -8192.486     751.9144   -8944.4004   0.14549998 
   49200    306.61706   -170.44199    25844.497   -8202.8339    730.25979   -8933.0937    0.1525385 
   49400    300.64989   -359.11008    25877.502   -8200.7087    716.04798   -8916.7567   0.16492143 
   49600    297.24311   -934.94446    26006.905   -8210.1292    707.93417   -8918.0634   0.15060924 
   49800    305.65532   -653.83779    25944.111   -8195.8426    727.96926   -8923.8119   0.14946326 
   50000    291.77042   -76.864197    25817.917    -8192.476    694.90004    -8887.376   0.16408107 
   50200    304.49999   -485.00609    25909.019   -8233.5075    725.21764   -8958.7252    0.1386378 
   50400    306.82129   -917.89733    26019.262   -8223.1021    730.74621   -8953.8483   0.13862107 
   50600    300.69429   -448.50686    25910.956   -8233.2394    716.15373   -8949.3931    0.1453212 
   50800    295.63331   -58.431871    25817.361   -8236.8703    704.10016   -8940.9704   0.15065506 
   51000    297.55679   -520.49919    25938.464   -8205.5346    708.68125   -8914.2159   0.14074152 
   51200     299.2201   -863.71458    26026.643   -8210.7298    712.64271   -8923.3725   0.14263045 
   51400    290.97785   -396.01436    25864.984   -8202.3927    693.01242   -8895.4051   0.16951433 
   51600    299.16543    53.547098    25793.127    -8208.411    712.51249   -8920.9235   0.15107024 
   51800    301.77013   -753.02157     25986.26   -8192.2769    718.71604   -8910.9929   0.14731937 
   52000    299.52475   -1098.7117    26029.221    -8178.857    713.36828   -8892.2253     0.170162 
   52200    297.62933    -103.8943    25821.117    -8189.347    708.85402   -8898.2011   0.15527754 
   52400    306.80523   -158.24393    25821.905   -8192.3315    730.70795   -8923.0395   0.14821299 
   52600    300.68238   -964.18099    26029.842   -8190.0072    716.12536   -8906.1326   0.15758685 
   52800    290.45991     -876.047    25984.277   -8195.6915    691.77885   -8887.4704   0.16691961 
   53000    302.40083    203.25187    25772.614   -8195.9402    720.21815   -8916.1583   0.13986235 
   53200    303.90785   -232.54199    25861.854   -8198.7225    723.80737   -8922.5298   0.15166811 
   53400    290.43332   -1237.3193    26074.454   -8220.0862    691.71551   -8911.8017   0.16300995 
   53600    299.91222    -647.6275    25937.507    -8223.447    714.29109   -8937.7381   0.14701099 
   53800    289.57358    331.42996    25732.434   -8236.3869     689.6679   -8926.0548   0.13755487 
   54000    295.36656   -579.60948    25915.101   -8233.1979    703.46487   -8936.6628   0.15422404 
   54200    285.95876   -1273.3656    26102.439   -8231.8111     681.0586   -8912.8697   0.14356177 
   54400    298.19443   -250.48637    25840.287   -8251.0901     710.1999     -8961.29   0.13906913 
   54600    288.41551    439.11924    25661.197   -8241.9001    686.90977   -8928.8099   0.16633447 
   54800    299.04214   -971.37766    26001.867   -8223.6464    712.21887   -8935.8653   0.15447205 
   55000    295.12424   -1605.0453    26160.036   -8217.9113    702.88773   -8920.7991   0.14501073 
   55200    291.91105    204.00081    25743.376   -8243.3602    695.23498   -8938.5952   0.15161278 
   55400     291.7676     601.8765    25652.408   -8244.5428    694.89333   -8939.4361   0.15064731 
   55600    294.08335   -1521.3683    26144.126   -8247.3277    700.40867   -8947.7364   0.14813415 
   55800    292.54343   -1392.5846    26133.978   -8239.6583    696.74109   -8936.3994   0.14131659 
   56000    300.65077    668.25896    25629.079   -8234.7587    716.05009   -8950.8088     0.160982 
   56200     290.8091    159.19564    25742.916   -8245.9592     692.6105   -8938.5697    0.1537073 
   56400    289.55518    -1660.061    26187.209   -8238.5838    689.62407   -8928.2079   0.14625812 
   56600    277.03672   -999.79872    25998.583   -8237.3657    659.80928    -8897.175   0.16525989 
   56800    301.00833    637.64813     25649.91   -8220.2942    716.90168   -8937.1959   0.16220947 
   57000    289.07895   -301.71142    25864.305   -8208.5392    688.48985   -8897.0291   0.15427728 
   57200    294.07741    -1378.939     26104.52   -8225.0593    700.39452   -8925.4538   0.15515465 
   57400    292.57329   -488.93262    25904.442   -8236.3399    696.81222   -8933.1521   0.15374243 
   57600    300.22502    254.04953    25760.273   -8218.0684    715.03609   -8933.1045   0.14130606 
   57800     311.7754    -718.1059    25946.466   -8222.0022    742.54525   -8964.5474    0.1427076 
   58000     297.5999   -1064.1846    26030.022   -8216.5879    708.78394   -8925.3719   0.16092289 
   58200     289.1759   -273.34256    25845.434   -8235.3164    688.72077   -8924.0372    0.1573514 
   58400    294.53307   -56.517431    25791.862   -8239.6831    701.47977   -8941.1628   0.14559187 
   58600    299.84022   -785.93656    25965.805   -8226.1995    714.11963   -8940.3191   0.15789674 
   58800    289.79447   -901.47215    25979.624   -8244.0738    690.19399   -8934.2677   0.15596287 
   59000    297.11051    -134.5487     25811.27   -8250.1584    707.61836   -8957.7768   0.14370504 
   59200     295.4439   -123.44002    25833.027   -8258.2699    703.64905   -8961.9189   0.13939173 
   59400    287.48498   -944.34691    26002.733   -8252.0788    684.69356   -8936.7724   0.16053549 
   59600    298.31915   -755.46542    25962.631   -8249.9649    710.49693   -8960.4618   0.15299898 
   59800    294.57016   -51.672106    25797.512   -8240.3809    701.56809    -8941.949   0.14606694 
   60000      296.891   -409.11092    25862.372   -8234.1333    707.09556   -8941.2289   0.16195743 
   60200    304.44929    -821.3022     26002.62   -8210.5377    725.09691   -8935.6346   0.16181143 
   60400     299.5128   -578.85347    25941.442   -8203.9478    713.33982   -8917.2876   0.15183619 
   60600    287.18063   -125.78422    25831.593   -8220.6976    683.96869   -8904.6663   0.15764156 
   60800    300.07069    -522.5673    25902.056   -8191.0622    714.66853   -8905.7308    0.1720848 
   61000    306.57256   -763.36132    25993.267   -8204.6261    730.15382   -8934.7799    0.1457519 
   61200    287.98788   -442.30089    25913.735   -8213.9855    685.89129   -8899.8767   0.14551182 
   61400    304.37769   -96.069407    25835.174    -8216.671    724.92637   -8941.5974   0.14781131 
   61600    298.47376   -497.10825    25942.731   -8205.6529    710.86518   -8916.5181   0.14587925 
   61800    307.98806   -812.25795    26018.991   -8199.3782    733.52508   -8932.9033   0.13798916 
   62000    299.80273   -465.61988    25904.526   -8204.3595    714.03033   -8918.3898   0.15006976 
   62200     300.8332   -128.75584    25853.438    -8204.387    716.48456   -8920.8715   0.14834519 
   62400    307.27436   -606.64808    25979.954   -8190.1926    731.82527   -8922.0178   0.13795441 
   62600    301.24122   -766.82587     26007.61    -8202.905    717.45635   -8920.3614    0.1452587 
   62800    304.94015   -193.99403    25867.016   -8195.6694    726.26596   -8921.9353   0.15241904 
   63000    311.14314   -213.51047    25879.643   -8168.6504    741.03942   -8909.6898   0.13888462 
   63200    300.75543   -913.93883    26033.469   -8177.6592    716.29935   -8893.9585   0.14496359 
   63400    304.36063   -723.36355    25972.129   -8164.6405    724.88573   -8889.5262   0.15730387 
   63600    309.86501   -26.850967    25824.589   -8154.5585    737.99535   -8892.5539   0.15401682 
   63800    306.64483   -466.66623    25934.737   -8174.8712    730.32594   -8905.1971   0.14608339 
   64000      315.857   -1149.3618    26062.359   -8172.9363    752.26626   -8925.2025    0.1578945 
   64200    304.46256   -382.62292    25888.338   -8178.0669     725.1285   -8903.1954   0.16549668 
   64400    309.41186    83.030384    25777.417   -8176.2732    736.91609   -8913.1893   0.14763529 
   64600    306.71337   -823.73402    26000.202   -8199.1272    730.48918   -8929.6164   0.14421663 
   64800    304.84342   -1134.5963     26065.38   -8203.6375    726.03559    -8929.673   0.14981938 
   65000    306.78815   -18.312456     25819.04   -8200.3704    730.66729   -8931.0377   0.13824236 
   65200    299.97253     35.14229    25795.157   -8213.1756    714.43473   -8927.6103   0.14308198 
   65400    295.32495   -1352.7024    26066.655   -8216.5467    703.36575   -8919.9125   0.15906135 
   65600    301.38435   -906.31751    26004.039   -8230.4346    717.79724   -8948.2318    0.1408449 
   65800    294.75483     438.6357    25695.358   -8233.0972    702.00792   -8935.1051   0.13658246 
   66000    297.32966   -115.85124    25831.692   -8223.5748    708.14031   -8931.7151   0.14223988 
   66200    293.96502   -1717.1982    26154.432   -8237.1392    700.12685    -8937.266   0.15921129 
   66400    297.77646   -574.65301    25929.127   -8229.8425    709.20443   -8939.0469   0.13946626 
   66600    294.42211    591.75763    25638.572   -8254.0677    701.21548   -8955.2832   0.13984002 
   66800    286.67217   -674.44514    25922.487   -8244.5529    682.75771   -8927.3106   0.15445573 
   67000     305.0803    -1564.354    26163.688     -8223.48    726.59975   -8950.0798   0.13867751 
   67200    295.11409   -317.30396    25846.292   -8240.2071    702.86356   -8943.0707   0.14486224 
   67400    292.71769    556.51969    25662.214   -8249.4894    697.15614   -8946.6456   0.15271799 
   67600    284.35474   -813.49527    25995.359   -8239.1389    677.23836   -8916.3772   0.14748143 
   67800    288.68961   -1434.0462    26121.921   -8224.5146    687.56259   -8912.0772   0.14703783 
   68000    285.80748   -35.792261    25809.132   -8214.0054     680.6983   -8894.7037   0.15425636 
   68200    291.90411    148.78804     25744.22   -8227.9189    695.21845   -8923.1373   0.15384583 
   68400    304.38253   -793.86454    25992.447   -8228.3439     724.9379   -8953.2818    0.1441745 
   68600    292.74219   -991.96742    26014.582   -8222.2221    697.21449   -8919.4366   0.15201428 
   68800     297.5762   -74.726526    25823.249   -8205.6476    708.72747    -8914.375   0.15522626 
   69000    294.44024   -235.68027    25854.034   -8219.4573    701.25868    -8920.716   0.14743624 
   69200    303.84322   -819.45877    25999.757   -8220.8099    723.65344   -8944.4634   0.14075721 
   69400    297.32503   -587.49559    25948.364   -8215.5733    708.12929   -8923.7026   0.14615616 
   69600    292.55113   -146.23429    25837.296   -8242.8713    696.75944   -8939.6308    0.1383565 
   69800    303.87253   -363.65066    25897.237   -8219.9444    723.72324   -8943.6677   0.13349345 
   70000    291.92937   -855.94485    25971.596   -8217.7081    695.27862   -8912.9867   0.15525695 
   70200    304.90682   -400.71549    25888.196   -8217.7867    726.18659   -8943.9733   0.14443898 
   70400    303.48121   -319.15654    25844.415   -8218.7737    722.79126   -8941.5649   0.14528799 
   70600    302.36375   -669.02057    25939.762   -8218.3941    720.12984   -8938.5239   0.14821378 
   70800    298.19948   -795.78309    25977.863    -8219.907    710.21193   -8930.1189   0.14759308 
   71000    289.86058    -370.8588    25873.214   -8244.4991    690.35145   -8934.8506   0.13897319 
   71200    285.04982   -264.83122    25851.553   -8237.6149    678.89381   -8916.5087   0.14332947 
   71400    307.37031   -708.76683     25963.21   -8222.8259    732.05379   -8954.8797   0.13793141 
   71600    290.75297   -787.18604    25972.228   -8208.4113    692.47681   -8900.8881   0.15258397 
   71800    295.25855   -246.22089    25843.937   -8223.9733    703.20762   -8927.1809   0.13287709 
   72000    301.81986    -261.1466    25826.801   -8229.2026    718.83448    -8948.037   0.14687904 
   72200    295.45246   -735.37223    25947.091   -8248.1244    703.66944   -8951.7938   0.14214118 
   72400    287.99899   -758.44172    25938.726   -8250.3682    685.91776   -8936.2859    0.1448238 
   72600    302.66831   -112.18469    25810.209   -8240.0602     720.8552   -8960.9154   0.14277625 
   72800    277.43666   -350.94985    25845.154   -8272.1241     660.7618   -8932.8859   0.15518946 
   73000    289.00816   -895.62519    25972.821   -8263.2085    688.32126   -8951.5298   0.14673937 
   73200     293.5602   -606.50364     25910.36   -8270.0389     699.1627   -8969.2016   0.13457405 
   73400    288.33054   -49.489416    25786.915   -8272.1124    686.70739   -8958.8198   0.13715203 
   73600    289.51783   -402.19755    25871.806   -8263.4714    689.53513   -8953.0065   0.14465905 
   73800    285.51148   -954.65033    25986.258   -8263.7229    679.99332   -8943.7162   0.13673946 
   74000    288.85515    -566.7788    25876.943   -8282.1881    687.95683    -8970.145   0.14277859 
   74200    292.28331    20.279413    25774.718   -8290.8311    696.12158   -8986.9527   0.13227775 
   74400    292.87373   -623.67873    25912.589   -8277.6097    697.52778   -8975.1375   0.13559833 
   74600    278.09141   -1013.4057    26011.395   -8282.3573     662.3212   -8944.6785   0.13512139 
   74800    279.41733   -299.91658    25857.012    -8280.598     665.4791   -8946.0771   0.14176181 
   75000    292.05248   0.16233288    25794.346    -8267.103    695.57183   -8962.6748   0.13470988 
   75200    303.86268   -702.32939    25995.028   -8245.2835    723.69979   -8968.9833   0.12643609 
   75400    302.15353   -965.37708    26041.017   -8248.7831    719.62915   -8968.4122   0.13247755 
   75600    297.64049    28.008811    25801.993    -8234.266    708.88059   -8943.1466   0.14777506 
   75800     293.2212    5.0951626    25795.066   -8237.3392    698.35532   -8935.6945   0.13714669 
   76000    303.92125   -1224.6327    26079.106   -8226.7517    723.83928    -8950.591   0.13867092 
   76200    292.24548   -933.66787    26023.014   -8229.3123    696.03148   -8925.3438   0.14689642 
   76400    291.97606    421.54771    25710.232   -8217.5881    695.38981   -8912.9779   0.14137492 
   76600    306.29309   -215.78125    25857.907   -8218.6434    729.48823   -8948.1316   0.12834574 
   76800    302.02373   -1547.2689    26165.398    -8216.026    719.32001   -8935.3461   0.14663541 
   77000    296.40718   -602.16445    25942.101   -8215.0767    705.94327     -8921.02   0.14835639 
   77200    295.07993    679.08339    25662.524   -8233.0233    702.78221   -8935.8055   0.13253676 
   77400    287.15821   -669.35033    25949.894   -8229.1548     683.9153   -8913.0701   0.14905197 
   77600    291.81045   -1649.2043    26183.318   -8235.0314    694.99538   -8930.0268    0.1556708 
   77800    287.26157   -122.49015    25857.429    -8242.212    684.16147   -8926.3735   0.13726769 
   78000    300.32779    476.97985    25709.874   -8238.2435    715.28085   -8953.5244   0.13145166 
   78200    291.43138   -919.68537    26031.111   -8235.1369    694.09257   -8929.2294   0.15206819 
   78400    286.32109   -1384.4883    26088.478   -8246.0466    681.92156   -8927.9682   0.15195392 
   78600    309.18873     110.7677    25784.578   -8256.5556    736.38467   -8992.9403   0.12639328 
   78800    299.99493    81.337651     25786.21   -8250.4019    714.48808   -8964.8899   0.13657798 
   79000    297.30305    -868.2528    26009.936   -8245.6038    708.07692   -8953.6807   0.14228179 
   79200    286.49718   -820.95771    25968.264   -8250.9342    682.34095   -8933.2752   0.14329428 
   79400    297.08646   -41.287589    25804.909   -8237.6447     707.5611   -8945.2058   0.14119177 
   79600    284.67009   -362.32595     25880.22   -8223.8175    677.98942    -8901.807   0.15416288 
   79800    297.68803    -947.5608    26013.077   -8240.7023    708.99383   -8949.6962   0.14728254 
   80000    292.02286   -490.74909    25915.397   -8226.0605    695.50127   -8921.5618   0.14143232 
   80200    306.38628   -23.158789    25821.649   -8213.1535    729.71016   -8942.8636    0.1434161 
   80400    292.72637   -670.23082     25941.32   -8203.3217     697.1768   -8900.4985   0.15893937 
   80600    313.52837   -852.31828    26002.216   -8211.9029    746.72024   -8958.6232   0.14277911 
   80800    297.16324    -341.8646    25869.027   -8192.3495    707.74396   -8900.0934   0.16140553 
   81000    299.40239   -162.71398    25829.165   -8205.1211    713.07686   -8918.1979    0.1572112 
   81200    296.64036   -633.26262     25961.68   -8198.7539    706.49864   -8905.2525   0.15112744 
   81400    305.08798    -706.8857    25978.968   -8188.5185    726.61805   -8915.1365   0.15099203 
   81600    302.75825   -288.71412    25853.553    -8189.966     721.0694   -8911.0354   0.16166003 
   81800    297.25274   -233.69741    25855.831   -8192.4197    707.95712   -8900.3768   0.15438658 
   82000    309.77286   -795.47775     25991.38   -8181.5551    737.77586    -8919.331   0.15137763 
   82200    317.45386   -607.24282    25976.864   -8191.0635    756.06946    -8947.133   0.14923213 
   82400    305.01665    -175.9814    25858.168   -8190.2598    726.44815   -8916.7079     0.152764 
   82600    310.44079   -401.89624    25905.213   -8199.1854    739.36666    -8938.552   0.14003781 
   82800    299.85138   -839.14759    26010.959   -8214.6349    714.14621   -8928.7811     0.137077 
   83000    297.24765   -670.61769    25951.086   -8215.5731    707.94498    -8923.518   0.15589001 
   83200    318.04773   -148.66838    25856.657   -8224.6017    757.48385   -8982.0855   0.13050726 
   83400    298.03447   -545.10677    25924.972   -8243.1361    709.81894   -8952.9551   0.14097628 
   83600    282.53782   -886.60981    25997.493   -8269.0102    672.91107   -8941.9213   0.14906757 
   83800    287.68898   -414.13518    25890.348   -8252.8323    685.17941   -8938.0117   0.15056998 
   84000    286.64233   -143.04196    25833.748   -8265.9576    682.68665   -8948.6442   0.13681937 
   84200    300.71643   -737.83222    25955.698   -8250.1525    716.20647   -8966.3589   0.14856492 
   84400    287.40452   -953.37868    25983.331   -8258.1808    684.50192   -8942.6827   0.14672557 
   84600    296.68333   -124.48416    25822.878   -8257.9728    706.60096   -8964.5737   0.13743175 
   84800    289.14816   -189.50457    25830.347   -8249.3562    688.65471   -8938.0109   0.14459619 
   85000    300.53595   -902.49403    26004.039   -8224.7069    715.77663   -8940.4836    0.1521857 
   85200    310.62891    -692.8842    25963.209    -8222.834    739.81469   -8962.6487   0.13822534 
   85400    304.71477    -27.13299    25790.337   -8213.3675    725.72919   -8939.0967   0.15242308 
   85600    288.15821   -350.76559    25868.553    -8228.336    686.29695    -8914.633   0.15521078 
   85800    297.83037   -1067.5446    26031.139   -8233.2432    709.33283    -8942.576    0.1515837 
   86000    288.73333   -593.82202    25908.728   -8211.2336    687.66671   -8898.9003   0.15992486 
   86200    298.18898    118.18157    25763.663   -8205.3004    710.18692   -8915.4873   0.15343185 
   86400    296.34858   -658.54786    25940.383   -8208.9831    705.80371   -8914.7868    0.1567032 
   86600    310.11607   -1289.3926     26080.31   -8207.5908    738.59329   -8946.1841   0.15392833 
   86800    290.37038   -249.57441    25836.699   -8218.4395    691.56562   -8910.0051   0.15577508 
   87000    294.16232    252.14261    25725.877   -8242.8853    700.59676    -8943.482   0.14996309 
   87200    298.28323   -997.00041    26005.016   -8238.0491     710.4114   -8948.4605   0.15328124 
   87400    292.33716   -1217.8215     26072.23   -8224.4669    696.24984   -8920.7168   0.15634718 
   87600      295.207    133.62032    25759.963   -8232.7147    703.08484   -8935.7995   0.14931412 
   87800    298.81388    35.470502    25756.596    -8233.492    711.67523   -8945.1672   0.14892164 
   88000    296.27148   -1262.7605    26084.168    -8228.494    705.62009   -8934.1141   0.15602728 
   88200    291.80179   -1033.6968    26020.754   -8226.4106    694.97475   -8921.3853   0.15464075 
   88400    292.75802    395.77219    25695.089   -8222.0581    697.25218   -8919.3103    0.1538334 
   88600     281.9403   -171.97491    25809.655   -8224.3217    671.48796   -8895.8096   0.15688643 
   88800     301.0918   -1391.6419    26100.578   -8216.4437    717.10047   -8933.5441   0.15982587 
   89000    290.49917   -663.93218    25930.475   -8223.2094    691.87236   -8915.0818   0.15046893 
   89200    301.63132    359.05407    25707.873   -8207.8841    718.38544   -8926.2695   0.15964655 
   89400    296.91629   -527.43622    25923.376   -8196.5517    707.15579   -8903.7074   0.15270957 
   89600    308.74523    -1274.002    26088.693   -8189.2963     735.3284   -8924.6247   0.15808028 
   89800    303.09287   -228.40681    25862.676   -8217.7852    721.86635   -8939.6515   0.15085133 
   90000    294.08476    253.86495    25750.462   -8196.7547    700.41203   -8897.1667   0.15990113 
   90200     301.7283   -760.59914    25975.842   -8219.4826     718.6164    -8938.099   0.15528506 
   90400    303.06346   -1061.0765    26032.984   -8229.0927    721.79632    -8950.889   0.16222976 
   90600     293.5379   -148.30042    25815.102   -8230.8836     699.1096   -8929.9932    0.1509807 
   90800    288.59923   -158.54148    25810.427   -8231.6041    687.34733   -8918.9514   0.15802469 
   91000    295.81683   -811.60544    25975.006   -8233.8616    704.53724   -8938.3989   0.15876273 
   91200    301.75818   -731.68028    25959.477    -8229.901    718.68758   -8948.5885    0.1540647 
   91400    313.47753   -224.07079    25840.731   -8234.4278    746.59916    -8981.027   0.14254022 
   91600    288.64931   -437.87283    25865.966   -8233.0668     687.4666   -8920.5334   0.16299867 
   91800    296.66967   -695.26084    25954.035   -8231.9021    706.56844   -8938.4705   0.15470017 
   92000    301.83912   -574.69968     25924.42   -8231.7335    718.88034   -8950.6139   0.14968708 
   92200    306.27915   -243.02636    25858.808     -8251.29    729.45501    -8980.745   0.14582792 
   92400    289.25629   -382.90619    25898.852   -8224.8362    688.91222   -8913.7484   0.15660909 
   92600    286.32795   -800.81625    25978.918    -8244.849    681.93789   -8926.7869   0.15306246 
   92800    290.25993   -495.50641    25925.817   -8227.1887    691.30256   -8918.4912   0.15421507 
   93000    298.23891    -210.7722    25852.781   -8211.1199    710.30583   -8921.4258   0.15843598 
   93200    300.58821    -495.5805    25930.891   -8207.6428    715.90109   -8923.5439   0.15277867 
   93400    303.11681    -762.3321    25989.524   -8206.3704    721.92337   -8928.2937   0.15573356 
   93600    301.74991   -444.80029    25882.199     -8196.84    718.66788   -8915.5079   0.15977045 
   93800    312.23944   -202.22675    25836.409   -8190.3603    743.65044   -8934.0108   0.15915938 
   94000    313.47179   -724.16789    25951.832   -8192.3488    746.58548   -8938.9343   0.15620306 
   94200    281.36342     -932.627    25981.325   -8233.2833    670.11403   -8903.3973   0.17736403 
   94400    298.76846    -253.1543    25850.347   -8225.4698    711.56704   -8937.0369   0.15367068 
   94600    294.12365   -160.11726    25834.966   -8251.3977    700.50466   -8951.9024   0.14834729 
   94800    286.47905   -729.64225    25971.041   -8258.9897    682.29777   -8941.2875   0.14732085 
   95000    291.94814   -685.82616    25960.458   -8263.1683    695.32332   -8958.4917   0.15148751 
   95200    289.46451   -188.63575    25817.729   -8273.4356    689.40815   -8962.8437   0.14535517 
   95400    284.80172   -396.68389    25861.749    -8287.411    678.30293   -8965.7139   0.15033429 
   95600    286.96117   -922.41548    26005.284   -8267.6799    683.44602   -8951.1259   0.14619734 
   95800    293.32165    -541.0264    25926.621   -8265.3001    698.59456   -8963.8946   0.14109155 
   96000    296.32785    26.728184    25790.622   -8255.6184    705.75434   -8961.3728   0.14655447 
   96200    283.34332   -570.95867    25922.096   -8254.5216     674.8295   -8929.3511   0.14638841 
   96400    285.60881   -1066.7866    26039.044   -8254.0338    680.22513   -8934.2589   0.14919554 
   96600    289.54526   -229.02068    25874.652   -8242.2205    689.60045    -8931.821   0.15129791 
   96800    289.17756   -36.088404    25784.446   -8270.0733    688.72471   -8958.7981   0.15387875 
   97000    279.46493   -740.79786    25943.517   -8273.3703    665.59246   -8938.9628   0.14756601 
   97200     282.1942   -1043.7397    26020.986   -8263.8128    672.09268   -8935.9054   0.15916135 
   97400    283.92217   -234.07638    25852.848    -8248.754    676.20813   -8924.9621   0.15610167 
   97600    305.49392     46.44889    25803.238   -8229.7589    727.58486   -8957.3438    0.1428837 
   97800    294.04816   -888.04356    25999.749   -8220.3077    700.32486   -8920.6325   0.14567898 
   98000    299.80437   -997.99943    26014.457   -8220.5915    714.03423   -8934.6257   0.16027977 
   98200    297.62071    138.48895    25777.365   -8227.1306     708.8335   -8935.9641    0.1546512 
   98400    297.27456   -91.277193    25810.793   -8202.9728    708.00909   -8910.9819   0.15369606 
   98600    298.82543   -1143.4457    26056.014   -8221.4906    711.70273   -8933.1933   0.15140699 
   98800    298.09995   -683.95638    25966.529   -8208.4371    709.97487    -8918.412   0.16106734 
   99000    302.75734    267.21441    25723.023    -8211.036    721.06724   -8932.1032   0.15561346 
   99200    310.24217   -266.17531    25863.607   -8233.3215    738.89361   -8972.2151   0.13992518 
   99400    294.29403   -1352.2875    26115.174   -8273.7001    700.91044   -8974.6106   0.14448391 
   99600     297.6365   -449.94016    25900.986   -8280.3174    708.87111   -8989.1885   0.13692375 
   99800    283.18981    455.89708    25677.693   -8268.1538    674.46389   -8942.6177   0.13899472 
  100000    291.33092   -784.81825    25963.807   -8273.0131    693.85331   -8966.8664   0.14060767 
  100200    288.56096   -1378.8628     26136.63   -8246.2762    687.25617   -8933.5324   0.14860286 
  100400    292.90446   -92.288858     25825.64   -8245.6111    697.60095   -8943.2121   0.14108439 
  100600     294.3606    396.43796    25726.843   -8230.7511      701.069   -8931.8201   0.14338062 
  100800    289.92809   -1176.5882    26068.096   -8238.2046    690.51222   -8928.7168    0.1519775 
  101000    295.69336   -1170.6951    26103.529   -8227.2064    704.24318   -8931.4495   0.14476185 
  101200    298.97881     173.7289    25790.489   -8224.0899    712.06804   -8936.1579   0.13733636 
  101400    291.18185    45.029031    25830.649   -8233.9875    693.49828   -8927.4858   0.13618745 
  101600    293.02842    -1224.048    26080.115   -8245.2913    697.89618   -8943.1875   0.13938083 
  101800    297.22883   -744.72777    25993.137   -8235.4126    707.90016   -8943.3128   0.13718049 
  102000    290.43728   -10.939262    25809.043   -8234.1952    691.72494   -8925.9201   0.13942658 
  102200      297.615   -440.06685    25912.176   -8230.1133    708.81989   -8938.9332   0.14293138 
  102400    310.84851   -884.73155     26026.26   -8211.8013     740.3377    -8952.139   0.13297426 
  102600    292.27148   -430.88458    25933.356   -8216.3974    696.09341   -8912.4908   0.14704634 
  102800    293.25187   -216.50462    25862.838   -8220.9687    698.42837   -8919.3971    0.1534297 
  103000    291.53176   -541.61854    25943.621   -8227.1572    694.33164   -8921.4888   0.14256712 
  103200    297.49092   -746.87991    25990.958   -8217.8541    708.52437   -8926.3785    0.1479717 
  103400    295.64945   -465.51176    25913.282   -8231.6573    704.13861   -8935.7959   0.15345046 
  103600    286.41627   -334.91529    25879.541   -8239.2082    682.14824   -8921.3565     0.149443 
  103800    302.35618   -615.65194    25953.616   -8232.6048    720.11181   -8952.7166   0.13789614 
  104000    298.34505   -651.01885     25965.53   -8236.4802    710.55863   -8947.0388    0.1477056 
  104200     298.9507   -265.88612    25891.803   -8246.9281    712.00109   -8958.9292   0.13607093 
  104400    287.88083   -366.06849    25906.548   -8250.3745    685.63634   -8936.0109   0.14332865 
  104600    306.72051   -755.84041    25980.191   -8251.0891    730.50619   -8981.5953   0.13569781 
  104800     304.4114   -571.36917    25928.298   -8239.8902    725.00667   -8964.8969   0.14775329 
  105000    296.65714   -155.79612    25859.244   -8243.8666    706.53858   -8950.4052    0.1393416 
  105200    288.68268   -523.18341    25921.937   -8245.4889    687.54609    -8933.035   0.14605234 
  105400     286.5075   -711.85928    25975.297   -8231.9401    682.36551   -8914.3056    0.1552714 
  105600    288.87613   -555.35714    25912.406     -8235.84    688.00681   -8923.8468       0.1577 
  105800    289.67481   -309.31565    25853.438   -8238.2992    689.90901   -8928.2082   0.15740614 
  106000     289.0886   -536.52492     25919.27   -8225.0797    688.51284   -8913.5926   0.16077219 
  106200    301.98473   -735.18498    25984.749    -8203.672    719.22713   -8922.8991   0.15973322 
  106400    295.77547    -555.3844    25929.336   -8222.7622    704.43874    -8927.201     0.160857 
  106600    302.85357   -265.00207    25861.074   -8237.5074    721.29642   -8958.8038   0.14763954 
  106800    292.34567   -482.30014    25928.851   -8242.1445    696.27011   -8938.4146   0.15193423 
  107000    304.74245   -740.32136    25983.137   -8224.7736    725.79512   -8950.5688   0.14930287 
  107200    306.76804   -299.45576    25891.169   -8219.8556    730.61938   -8950.4749    0.1465105 
  107400    299.20198   -98.660992    25850.135     -8227.79    712.59956   -8940.3896   0.14592523 
  107600    298.81386   -777.21668    25981.152   -8207.3969    711.67519   -8919.0721   0.16135529 
  107800    308.19586    -803.8713    25996.258   -8222.7054    734.01999   -8956.7254   0.14627636 
  108000    303.93713   -155.15901    25820.926   -8223.4673     723.8771   -8947.3444   0.15233215 
  108200    294.06379   -171.40227    25829.347   -8239.1063     700.3621   -8939.4684   0.15211032 
  108400    292.63258   -1025.9361    26034.378   -8226.7614    696.95343   -8923.7148   0.15425363 
  108600    300.12207   -677.69763    25977.928   -8220.2964    714.79091   -8935.0873   0.14378946 
  108800    296.91219    158.56412    25761.357   -8224.2063    707.14604   -8931.3523   0.14592831 
  109000    298.75528   -333.48627    25871.357   -8241.5833    711.53566    -8953.119   0.15126596 
  109200    294.36782   -1246.4135    26076.591   -8244.0588    701.08619    -8945.145   0.14926554 
  109400    283.62755   -548.86134    25903.895   -8247.4187    675.50645   -8922.9252   0.15696808 
  109600    299.17258    237.52113    25716.541   -8226.1195    712.52954    -8938.649   0.15895872 
  109800    287.10054   -811.58603    25944.432   -8243.9116    683.77796   -8927.6895   0.16137483 
  110000    295.93078    -1266.383     26097.26    -8209.291    704.80864   -8914.0997   0.15755008 
  110200    307.81454   -231.20284    25845.383   -8207.7864     733.1118   -8940.8982   0.16052161 
  110400    297.65074    222.71207    25756.119    -8223.345    708.90501     -8932.25   0.14614395 
  110600    295.78619   -1073.3154    26031.553   -8240.8287    704.46429    -8945.293   0.15125054 
  110800    289.05188   -1117.0967     26050.22   -8242.4682    688.42539   -8930.8935   0.15065079 
  111000    298.72433    152.68198     25768.02   -8242.6142    711.46195   -8954.0761   0.14559216 
  111200    286.78146   -16.942085    25811.464   -8240.0673      683.018   -8923.0853   0.14725571 
  111400    302.09479   -1164.1941    26074.074   -8257.1513    719.48925   -8976.6406   0.14510653 
  111600    293.34249     -809.983    25970.929   -8270.8435     698.6442   -8969.4877   0.14451372 
  111800    298.39447    339.98327    25722.123   -8275.4189    710.67633   -8986.0953   0.13693246 
  112000    287.18671   -460.13403     25863.88   -8287.6012    683.98319   -8971.5844    0.1464404 
  112200     286.2831   -1248.6895    26065.278   -8276.1226    681.83107   -8957.9537   0.15273668 
  112400    289.57323   -435.71406    25884.957   -8270.1966    689.66706   -8959.8637   0.14577535 
  112600    300.23794    200.59216    25728.135   -8261.9736    715.06687   -8977.0404   0.14530758 
  112800    293.90739   -672.91016    25930.741   -8266.9373    699.98961   -8966.9269   0.15024632 
  113000     288.2275   -1160.0962    26045.832   -8256.7663    686.46199   -8943.2283   0.15150466 
  113200    289.75175    -213.6684    25839.403   -8277.1919    690.09225   -8967.2841   0.13656896 
  113400    290.34116    78.687994    25760.385   -8255.7641    691.49601   -8947.2601   0.15656271 
  113600    296.84366   -769.44538    25955.591   -8257.7285    706.98281   -8964.7113   0.14867631 
  113800      298.563   -885.58994    26001.296   -8245.9163    711.07772    -8956.994   0.14687191 
  114000    287.77847   -246.17585     25834.11   -8247.2765    685.39255   -8932.6691   0.14463349 
  114200    299.97482   -59.920445    25828.733    -8256.319     714.4402   -8970.7592   0.14383164 
  114400    303.18363   -738.96648    25970.629   -8232.0363    722.08251   -8954.1188   0.14699469 
  114600    295.69621   -658.31001    25945.476   -8223.3885    704.24996   -8927.6385    0.1489589 
  114800    300.17475   -237.84954    25843.405   -8216.3382    714.91636   -8931.2546   0.15202862 
  115000    290.43083   -459.77997    25887.491   -8223.8264    691.70959    -8915.536   0.15926161 
  115200    298.46725   -800.23123    25968.704   -8233.8195    710.84966   -8944.6691   0.14701527 
  115400    296.01442   -548.94182    25916.624    -8239.117    705.00783   -8944.1249   0.15190681 
  115600    309.23989   -186.17892    25845.548   -8226.4233    736.50652   -8962.9299   0.14911418 
  115800    295.55797   -433.95631    25900.844   -8229.5748    703.92072   -8933.4955    0.1533697 
  116000    300.34526   -804.78277    25963.761   -8224.7274    715.32247   -8940.0498   0.14458747 
  116200    294.29331   -525.68897     25902.85   -8234.0437    700.90873   -8934.9525   0.15127042 
  116400    298.12472   -248.77725    25860.106   -8250.5262    710.03388   -8960.5601   0.13859311 
  116600    296.17938     -576.726    25928.086   -8262.7777    705.40073   -8968.1785   0.14515474 
  116800    296.04191   -686.89283    25962.493   -8245.3506    705.07333   -8950.4239   0.14567735 
  117000    294.53011   -480.38154    25890.963   -8242.7663    701.47271    -8944.239   0.15688798 
  117200    314.72413   -301.49093    25866.286   -8233.6274    749.56815   -8983.1956   0.13443266 
  117400    299.76787   -654.17555    25949.645    -8244.807    713.94732   -8958.7543   0.14755263 
  117600    295.66942   -695.57266    25973.102   -8246.9925    704.18617   -8951.1787    0.1346496 
  117800    312.34038   -285.89166    25876.931   -8227.4118    743.89084   -8971.3027   0.14317174 
  118000    285.71213   -278.81971    25858.326   -8222.5414    680.47121   -8903.0127   0.15169025 
  118200    294.16668    -689.6406    25960.966   -8218.3193    700.60715   -8918.9265   0.15795493 
  118400    293.43602   -731.58148    25951.878    -8244.473    698.86695   -8943.3399   0.14975977 
  118600    299.94873   -202.00316     25843.15   -8255.9286    714.37805   -8970.3067   0.13860447 
  118800    289.92027   -290.50962    25871.141   -8267.1651    690.49359   -8957.6587   0.13899748 
  119000    278.46994   -901.99279    25968.286   -8262.8458    663.22273   -8926.0685   0.16040309 
  119200     278.3744    -485.6077    25907.824   -8253.3507    662.99519   -8916.3459   0.14111058 
  119400    299.28716   -133.30703    25825.887   -8278.6518    712.80242   -8991.4542   0.12611589 
  119600    288.41978    -482.1137    25909.971   -8251.4123    686.91993   -8938.3322   0.14177058 
  119800    295.19644   -892.42257    25985.566   -8244.9725     703.0597   -8948.0322   0.14592102 
  120000    296.05467   -342.92035    25878.368   -8257.1329     705.1037   -8962.2366   0.13325833 
  120200    292.65516   -164.11731    25812.995    -8253.783     697.0072   -8950.7902   0.14164285 
  120400    286.05611   -681.65911    25943.913   -8252.1787    681.29047   -8933.4691   0.15075606 
  120600    291.72489   -945.65543    25991.492   -8255.6326     694.7916   -8950.4242    0.1441353 
  120800    284.87078   -179.09473    25839.015    -8249.538    678.46741   -8928.0054   0.13354908 
  121000    296.96017    -69.58811    25825.811   -8244.1941    707.26032   -8951.4544   0.13569782 
  121200     295.2517   -896.24779    26014.674   -8240.5422     703.1913   -8943.7335   0.14696788 
  121400    281.14427   -848.78021    25993.841   -8241.7097     669.5921   -8911.3018   0.15033436 
  121600    304.70507   -3.7709283    25799.821   -8232.8812    725.70608   -8958.5873    0.1424109 
  121800     286.0457    -389.6731    25866.844   -8240.8006    681.26568   -8922.0663   0.15583639 
  122000    309.30473   -1113.5732    26062.367   -8238.7672    736.66094   -8975.4281   0.14316221 
  122200    307.21319   -553.30118    25940.057   -8233.5015    731.67958   -8965.1811   0.13356165 
  122400    299.90819    261.93935    25758.814   -8221.7594     714.2815   -8936.0409   0.14193491 
  122600    308.35899   -530.12685    25940.131   -8180.1967     734.4085   -8914.6052   0.14925326 
  122800    296.64755   -1240.6557    26113.127   -8189.4027    706.51575   -8895.9184   0.15248447 
  123000    304.74921   -332.06331    25884.496   -8199.9209     725.8112   -8925.7321   0.14545181 
  123200    300.97689    293.17182    25748.841   -8226.3668    716.82679   -8943.1936   0.14213673 
  123400    298.79362    -865.7531     25997.27   -8247.9876    711.62698   -8959.6145   0.13555637 
  123600    286.05512   -1274.2197    26069.908   -8239.2873    681.28811   -8920.5754   0.15075524 
  123800    297.96912    39.828481    25794.954   -8234.0558    709.66328   -8943.7191   0.14009279 
  124000    287.21735    47.520993    25795.328   -8232.5267    684.05615   -8916.5828   0.14283454 
  124200    302.61127   -1135.7419    26072.839   -8228.2084    720.71935   -8948.9278   0.13618473 
  124400     299.0475   -904.59459    26016.637   -8235.0784    712.23162     -8947.31   0.14260339 
  124600    296.30234     124.5147    25763.277   -8232.3604    705.69357    -8938.054   0.14590047 
  124800    286.91578   -245.24657    25863.111   -8240.1957    683.33792   -8923.5336    0.1394591 
  125000    298.39005   -1246.9858    26094.274   -8237.3834     710.6658   -8948.0492   0.14856857 
  125200    286.15393   -593.15529    25951.306   -8237.1751    681.52344   -8918.6986   0.14761647 
  125400    293.97864    195.42883    25752.475   -8260.6652     700.1593   -8960.8245   0.13423665 
  125600    289.28298   -536.99152    25913.337   -8259.3094    688.97579   -8948.2852   0.13943349 
  125800    284.38721   -1184.9844    26055.886   -8256.3875    677.31569   -8933.7032   0.14670206 
  126000     300.5259   -345.71836     25881.92   -8249.4903    715.75269    -8965.243   0.12895651 
  126200    302.35444    147.31021    25789.937   -8243.0623    720.10767     -8963.17   0.13055766 
  126400     293.8579   -722.71852    25963.215   -8254.7317    699.87173   -8954.6035   0.13627564 
  126600    301.52675   -984.12748    26009.172   -8253.7143    718.13639   -8971.8507   0.13475398 
  126800    294.42957   -209.64364    25861.951   -8246.2183    701.23326   -8947.4515   0.12565761 
  127000     292.5273   -286.72756    25861.991   -8261.0002    696.70269   -8957.7029   0.13482408 
  127200    291.21418   -785.96878    25982.121   -8271.7537    693.57526   -8965.3289   0.13158606 
  127400    284.64686   -686.52316    25952.578   -8272.6934    677.93409   -8950.6275   0.13267833 
  127600    283.05587   -305.22683    25855.383   -8282.3179     674.1449   -8956.4628   0.13877429 
  127800    284.72912   -466.65528    25900.731   -8264.7828    678.13001   -8942.9129   0.14092787 
  128000    290.79577   -843.76561     25974.97   -8275.0291    692.57876   -8967.6079   0.13195168 
  128200    297.27634   -508.37833    25929.029   -8260.6246    708.01333   -8968.6379   0.12757551 
  128400    293.76481   -423.51053    25890.233    -8271.995    699.65002    -8971.645   0.13363308 
  128600    288.46844   -564.67963    25934.455   -8275.0414    687.03584   -8962.0772   0.12430574 
  128800    284.49758   -586.65181    25944.592   -8291.6288    677.57857   -8969.2074   0.11955289 
  129000     282.2973   -380.34562    25889.627   -8308.5072    672.33822   -8980.8454   0.12069932 
  129200    288.81006   -381.89427    25885.674   -8296.3497    687.84946   -8984.1992   0.12255158 
  129400    277.16444   -640.26456    25933.514   -8297.7874    660.11345   -8957.9009   0.12959873 
  129600     287.6996   -595.32415    25927.731   -8300.1026    685.20471   -8985.3073   0.12486231 
  129800    283.42887   -414.18276    25896.867   -8299.3475    675.03325   -8974.3807   0.12939311 
  130000    273.14671   -524.25059    25906.935   -8313.6813    650.54457   -8964.2259   0.13113575 
  130200     272.3129   -604.63874    25916.431   -8312.5152    648.55872   -8961.0739   0.13140276 
  130400    276.91967   -532.87131    25901.015   -8307.6883     659.5305   -8967.2188   0.13447671 
  130600    287.94615   -456.33055    25898.836   -8287.6821     685.7919    -8973.474   0.13550055 
  130800    276.85477   -571.03259    25923.482   -8277.3616    659.37593   -8936.7375   0.14074876 
  131000    287.78831   -593.23216    25911.974   -8287.7612    685.41599   -8973.1772   0.13028527 
  131200    287.06463   -370.00919    25880.056   -8274.7265    683.69242    -8958.419   0.13186283 
  131400    293.45167   -422.51896    25900.539   -8282.1714    698.90422   -8981.0757   0.12757128 
  131600    287.08303   -630.72014    25929.127    -8277.153    683.73625   -8960.8892   0.13205255 
  131800    288.22271    -454.6845    25894.591    -8268.954    686.45059   -8955.4046   0.12992039 
  132000    287.10292   -437.35849    25881.956   -8249.0334    683.78362    -8932.817   0.14307058 
  132200    302.83585   -572.03764    25923.971   -8258.6397    721.25421   -8979.8939   0.13283053 
  132400    287.32437   -556.76271    25927.682    -8255.847    684.31105   -8940.1581   0.13871309 
  132600    292.38962   -367.37227    25877.886   -8236.5626    696.37479   -8932.9374    0.1462861 
  132800    295.61903   -486.24444    25891.597   -8225.6815    704.06616   -8929.7476   0.15160321 
  133000    296.77676   -685.55498    25961.842    -8222.622    706.82348   -8929.4455   0.14044439 
  133200    297.37611   -593.92443    25946.743   -8216.3681    708.25095   -8924.6191   0.14300033 
  133400    313.57078   -141.76601    25861.982   -8202.8192    746.82125   -8949.6405   0.13838183 
  133600    297.18727   -370.75783    25897.681   -8201.5891    707.80118   -8909.3903   0.13767277 
  133800     298.8207   -892.21083    25991.173   -8215.1413    711.69147   -8926.8328   0.14295269 
  134000    292.63444   -590.87842    25920.374   -8194.9208    696.95786   -8891.8787   0.15611638 
  134200    305.93532   -148.81463    25830.634   -8202.7308    728.63614   -8931.3669   0.14717527 
  134400    308.42182   -571.75631    25932.772   -8207.0852    734.55814   -8941.6433   0.14328672 
  134600    301.44001   -909.86749    26010.766   -8220.7797     717.9298   -8938.7095   0.14564271 
  134800    291.03631   -345.90161    25874.619   -8237.3555    693.15163   -8930.5071   0.15320587 
  135000    283.40887   -1.2462794     25806.43   -8257.4668    674.98562   -8932.4525   0.13598913 
  135200     287.2888   -772.21186    25971.166   -8250.6725    684.22633   -8934.8988   0.14341408 
  135400    293.70094   -793.95807    25991.682   -8261.3004    699.49791   -8960.7983   0.13361814 
  135600    290.15563   -44.982128    25781.978   -8247.6396    691.05416   -8938.6937    0.1502956 
  135800     293.2283   -223.25954    25807.369    -8274.529    698.37222   -8972.9012   0.13741996 
  136000    277.58161   -1037.9994    26002.795   -8283.0384    661.10703   -8944.1454   0.14702671 
  136200     273.7051   -788.71633    25933.851    -8283.434    651.87447   -8935.3085   0.15145591 
  136400    301.01814    155.88106    25746.478   -8270.4986    716.92504   -8987.4236   0.13850846 
  136600    283.63788     -491.218    25868.122   -8251.5058    675.53104   -8927.0368    0.1480256 
  136800     299.0641    -1203.789    26048.594   -8248.6484    712.27117   -8960.9196   0.14887207 
  137000    289.55736   -450.75661    25890.664   -8255.5724    689.62928   -8945.2017    0.1376786 
  137200    296.20123    138.99602    25740.011   -8266.5999    705.45277   -8972.0527   0.13959129 
  137400    291.40435   -615.63857    25918.819   -8252.4073    694.02819   -8946.4354   0.14145278 
  137600    282.22747   -1191.1384    26044.793   -8245.5721    672.17192    -8917.744   0.15243086 
  137800    297.45294   -288.09301    25850.447   -8229.2097    708.43391   -8937.6436   0.13500256 
  138000    285.15876    39.743846     25765.27   -8227.9967    679.15328     -8907.15   0.15529636 
  138200    293.41756    -884.7496    25988.023   -8245.9616      698.823   -8944.7846   0.14617665 
  138400    303.65305   -1103.4219    26038.891   -8234.7576    723.20052   -8957.9582   0.14669602 
  138600    287.40322   -144.69579     25793.93   -8253.4093    684.49883   -8937.9081   0.14340963 
  138800     297.8335    64.597598    25774.849   -8234.7672    709.34029   -8944.1075   0.14919415 
  139000    295.56216   -1010.1646    26023.327   -8242.5864    703.93072   -8946.5171   0.14505372 
  139200    295.04238   -819.10932    26001.164   -8243.0745    702.69276   -8945.7673   0.13688755 
  139400    291.14969    108.47676    25778.831    -8240.277    693.42168   -8933.6987   0.14064172 
  139600    289.99775   -232.33226    25853.329    -8237.896    690.67814   -8928.5741   0.14290938 
  139800    299.27936   -1111.1861    26054.741   -8229.9076    712.78384   -8942.6914   0.14574295 
  140000    299.42682   -595.43368    25941.314   -8220.8171    713.13503   -8933.9521    0.1409659 
  140200     287.2664    97.230232    25768.045   -8227.1469    684.17297   -8911.3199   0.14393825 
  140400     299.4008   -457.21063    25914.397   -8242.4313    713.07308   -8955.5043     0.135007 
  140600    297.21115   -1093.4036    26048.563   -8252.1948    707.85805   -8960.0529   0.13368167 
  140800    293.04945   -445.22464    25879.669   -8236.4068    697.94626    -8934.353   0.14414729 
  141000    293.13442    18.911358    25786.464   -8247.6662    698.14865   -8945.8148   0.14008921 
  141200     304.8918   -722.47789    25947.953   -8241.9876     726.1508   -8968.1384   0.14161161 
  141400    296.79503   -855.97433    26007.771   -8235.6158      706.867   -8942.4828   0.13820254 
  141600    296.40954   -309.60808    25856.655   -8226.4477    705.94889   -8932.3966    0.1471323 
  141800    301.32329   -39.538762    25822.446   -8247.0923     717.6518   -8964.7441   0.13058569 
  142000    285.12788   -691.50998    25947.714   -8247.4887    679.07972   -8926.5684   0.14412757 
  142200    293.98898   -741.05377    25957.342   -8244.3791    700.18391    -8944.563   0.13932891 
  142400    306.37812   -212.35904    25859.674   -8254.7481    729.69072   -8984.4389    0.1354827 
  142600    290.31386   -491.99242    25882.249   -8254.0418    691.43101   -8945.4728   0.14526349 
  142800      276.905   -733.51035    25962.892   -8255.4701    659.49556   -8914.9657   0.14852916 
  143000    284.83819   -593.08103    25930.244   -8260.8729    678.38978   -8939.2627   0.14038481 
  143200    287.55598   -289.68094    25857.678   -8266.2648    684.86266   -8951.1274   0.14192938 
  143400     289.6504   -559.73103    25895.498   -8254.0953    689.85087   -8943.9462   0.14911673 
  143600    281.65163   -770.04703    25942.233   -8242.4269    670.80046   -8913.2274   0.15456923 
  143800    292.35949   -531.32835    25905.325   -8239.2628    696.30302   -8935.5658   0.14101423 
  144000    297.31959   -312.15055     25871.09   -8249.2349    708.11633   -8957.3513   0.14068041 
  144200    300.77612   -502.21266    25912.712   -8235.9898    716.34863   -8952.3384   0.14128608 
  144400    299.25591   -486.65669    25929.928   -8232.0179    712.72799   -8944.7459   0.12910495 
  144600    307.35727   -449.37679    25888.514   -8226.8413    732.02275   -8958.8641    0.1396239 
  144800    299.66115   -359.50454    25875.083   -8222.5913    713.69314   -8936.2844   0.14487701 
  145000    293.14671   -621.64139    25917.109   -8247.3615    698.17791   -8945.5394   0.15262766 
  145200    281.66627   -595.75675    25907.952   -8237.6287    670.83532    -8908.464   0.15118467 
  145400    300.04217   -408.61269    25879.426   -8234.1154     714.6006    -8948.716   0.15157584 
  145600    296.92556   -543.83304    25910.945   -8233.1946    707.17789   -8940.3725   0.14576046 
  145800    282.25421   -535.29318    25926.672   -8248.8596     672.2356   -8921.0952   0.14557845 
  146000    296.96963   -441.28959    25882.063   -8241.3491    707.28284   -8948.6319    0.1434409 
  146200    287.67557   -388.63115    25881.365   -8247.9425    685.14749     -8933.09   0.14738528 
  146400     289.8994   -649.96393    25926.567   -8252.2631    690.44391    -8942.707   0.14312874 
  146600     286.6798   -594.18613    25908.851   -8229.9608    682.77588   -8912.7367   0.14949374 
  146800    300.04772   -357.07808    25871.507   -8204.0681    714.61381    -8918.682   0.14922948 
  147000    303.81439   -528.56486     25915.08   -8192.8674    723.58478   -8916.4522   0.15591448 
  147200    297.66836   -694.50457    25963.441   -8195.5584    708.94697   -8904.5054   0.15265685 
  147400    295.49738   -531.74152    25913.519   -8220.3274    703.77643   -8924.1039   0.15397941 
  147600    309.90479   -357.75849    25866.066   -8238.5358    738.09009   -8976.6259   0.13944895 
  147800    298.89132   -498.58051    25894.361   -8244.4458    711.85966   -8956.3054   0.13988106 
  148000    299.30391   -560.28057    25921.233   -8254.4663    712.84231   -8967.3086   0.13464518 
  148200    292.00039   -388.60282    25883.961   -8250.2655    695.44776   -8945.7132   0.14010624 
  148400    292.89718   -324.20333     25859.94   -8257.0582    697.58363   -8954.6418   0.13804326 
  148600    297.43954   -477.10297    25900.456   -8262.9431      708.402   -8971.3451    0.1340084 
  148800    292.76495    -677.7112    25923.764   -8265.2753     697.2687    -8962.544   0.14638651 
  149000    292.57639   -271.54087    25874.062   -8257.1145     696.8196   -8953.9341   0.14108475 
  149200    295.93177   -470.19743    25868.578   -8263.3961    704.81101   -8968.2071    0.1460556 
  149400    288.07075   -610.64357    25926.788   -8271.6796    686.08866   -8957.7683   0.14114833 
  149600    293.96809   -588.88462    25905.429    -8268.767    700.13417   -8968.9011   0.15256023 
  149800    286.60099   -142.94184    25827.677   -8264.9538    682.58818    -8947.542   0.14298712 
  150000    295.49813   -382.93227    25877.028   -8254.6286    703.77821   -8958.4068   0.13789747 
  150200    294.95019   -837.10108     25975.43   -8218.1661    702.47319   -8920.6393   0.15343043 
  150400    300.24108    -528.5335    25909.392     -8206.26    715.07435   -8921.3343   0.15353537 
  150600    290.18507   -212.78687    25820.252   -8230.1401    691.12428   -8921.2643   0.14916534 
  150800    295.67091   -460.30367    25913.693   -8228.2119    704.18971   -8932.4016     0.140988 
  151000    294.61059   -916.67244    25989.596   -8226.9963     701.6644   -8928.6607   0.15902458 
  151200    288.63529   -384.03098    25868.777   -8244.3299    687.43322   -8931.7632   0.14165777 
  151400     295.8597   -120.50946    25804.483   -8205.5901    704.63934   -8910.2294   0.14919881 
  151600    298.34287    -564.4889    25945.738   -8187.3498    710.55343   -8897.9032   0.14673921 
  151800    288.61425   -961.09327    25988.463     -8201.33     687.3831   -8888.7131   0.16445587 
  152000    309.18577   -195.25746    25827.487   -8200.4059    736.37762   -8936.7835   0.14416245 
  152200    306.88801   -147.77207    25821.364   -8210.6546    730.90512   -8941.5597   0.14845955 
  152400    307.03023    -851.4461      25994.1   -8216.4316    731.24384   -8947.6755   0.14060875 
  152600    303.52898   -698.66103    25978.954   -8224.9591    722.90503   -8947.8641   0.13686398 
  152800    306.24997    3.9755658    25818.781   -8187.5542    729.38552   -8916.9397   0.14431431 
  153000    298.75583   -464.30625    25883.039   -8200.1227    711.53696   -8911.6596   0.16081004 
  153200     306.3558   -910.09796    26022.947   -8195.1347    729.63757   -8924.7722   0.14813246 
  153400    316.85679   -519.20113    25941.599   -8191.0198    754.64743   -8945.6672   0.14199131 
  153600    301.28845   -205.60875    25832.811   -8194.8844    717.56884   -8912.4532   0.15206323 
  153800    305.65657    -454.1605    25929.218   -8202.6321    727.97225   -8930.6044   0.14585006 
  154000    296.45853   -879.08462    26007.574   -8208.4706    706.06557   -8914.5362   0.14753073 
  154200    286.92934   -436.97034    25876.573   -8215.9979    683.37021   -8899.3681   0.15870275 
  154400    297.08979   -144.03944    25810.026   -8190.8959    707.56901   -8898.4649   0.16347637 
  154600    291.14233   -831.21042    25953.219   -8202.1441    693.40414   -8895.5482   0.16364444 
  154800    301.65791   -900.43365    25968.715   -8217.1244    718.44875   -8935.5732   0.15555235 
  155000    302.76009    -116.8219    25810.876   -8211.6512    721.07378   -8932.7249   0.14875101 
[...]
  163200    296.77786     -521.355    25916.394   -8241.8135     706.8261   -8948.6396   0.13870086 
  163400    303.38362   -213.22814    25833.492   -8259.4571    722.55883   -8982.0159   0.14609924 
  163600    284.67222   -505.97754    25902.992   -8260.1392     677.9945   -8938.1337   0.15106147 
  163800    290.50997   -807.65187    25976.117   -8268.4732    691.89808   -8960.3713   0.14358017 
  164000    287.06329   -395.05196    25879.849   -8276.0731    683.68924   -8959.7623   0.13794847 
  164200    269.16881   -132.65475    25805.961   -8274.1696    641.07054   -8915.2402   0.15332074 
  164400     289.7027   -571.86981    25922.702   -8263.3453    689.97544   -8953.3208   0.14222944 
  164600    300.94975   -792.15537    25978.185   -8252.4462    716.76216   -8969.2084   0.14000811 
  164800    289.53226   -210.34867     25853.93   -8263.4437    689.56951   -8953.0132   0.13393321 
  165000      292.237   -159.00756     25823.48   -8262.5926    696.01128   -8958.6039   0.14442934 
  165200    290.16235   -789.50401    25953.521   -8264.6104    691.07017   -8955.6806    0.1414565 
  165400    288.43757   -677.97512    25961.692   -8255.6511    686.96231   -8942.6135    0.1390101 
  165600    289.27939   -181.40955    25825.153   -8251.2117    688.96725    -8940.179   0.14912997 
  165800    285.05266   -325.29858    25850.072   -8257.0924    678.90058    -8935.993   0.14572949 
  166000     303.7473   -775.10334    25995.381   -8246.0783    723.42499   -8969.5033   0.13373779 
  166200    277.16479   -697.91099    25940.083   -8262.3372    660.11429   -8922.4515   0.14606096 
  166400    299.79811   -28.300711    25806.059   -8240.1997    714.01934   -8954.2191   0.14157473 
  166600    296.69083   -382.44814    25890.897   -8253.0388    706.61883   -8959.6576   0.13412137 
  166800    282.94805   -959.84062    25993.597   -8282.9393    673.88811   -8956.8274   0.13875363 
  167000    279.48372   -404.26835    25869.153   -8283.6182    665.63722   -8949.2554   0.14659618 
  167200    282.69248     48.12045    25800.006   -8266.1083    673.27942   -8939.3877   0.13982186 
  167400    296.25856   -703.78707     25963.03   -8267.6378    705.58931   -8973.2271   0.13460969 
  167600    284.06039   -923.67993    26017.315   -8257.5523    676.53733   -8934.0896    0.1425079 
  167800    275.83312   -229.80115    25840.495   -8289.2215    656.94271   -8946.1643   0.14605325 
  168000    274.63693   -149.16001    25811.063   -8294.1754    654.09378   -8948.2692   0.13774256 
  168200    280.21391    -839.1541    25987.765   -8288.8971    667.37629   -8956.2734   0.13510802 
  168400    281.27319    -841.2407    25975.753   -8277.8267    669.89913   -8947.7258   0.15139491 
  168600    286.57979    41.282161    25783.857   -8250.2642     682.5377   -8932.8019    0.1455955 
  168800    287.32695   -266.34136    25837.121   -8282.1545    684.31719   -8966.4717   0.13464515 
  169000    281.83143   -1135.8389    26043.289   -8274.3252    671.22868   -8945.5539   0.15184845 
  169200    287.36137   -632.04043    25948.981   -8282.6796    684.39915   -8967.0788    0.1405584 
  169400    297.04264    198.74427    25749.989   -8282.5714    707.45673   -8990.0281   0.12773759 
  169600    292.57115   -453.18285     25897.89   -8278.9166    696.80713   -8975.7237   0.12968418 
  169800    300.13288    -1274.592    26073.212   -8277.9852    714.81665   -8992.8018    0.1482729 
  170000    297.46893   -321.49769    25867.323   -8280.5927      708.472   -8989.0647   0.13194286 
  170200    298.84537    348.70867    25716.664   -8285.9629    711.75022   -8997.7131   0.12470771 
  170400    289.08618   -754.74477    25951.734   -8287.5365    688.50708   -8976.0436   0.15082455 
  170600    287.07619    -1152.601    26062.472   -8281.7586    683.71996   -8965.4786   0.14110184 
  170800    295.10409    -86.28229    25806.478   -8283.5484    702.83975   -8986.3881   0.12688984 
  171000    290.81072    149.36062    25744.768   -8279.2739    692.61435   -8971.8883     0.138836 
  171200    274.65193   -1036.3262    26023.813   -8280.8724    654.12951   -8935.0019   0.14853641 
  171400    289.54107    -1025.409    26038.947   -8275.3294    689.59048   -8964.9199   0.13725321 
  171600    285.90231     91.79802    25762.716   -8281.0483    680.92415   -8961.9725   0.13727822 
  171800    291.52528    36.838092    25801.193   -8261.1645     694.3162   -8955.4807   0.13873873 
  172000    282.59212   -1186.5772    26063.806   -8270.0289    673.04038   -8943.0693   0.14392736 
  172200    279.93078   -902.36293    25978.045   -8294.1439    666.70195   -8960.8459   0.14009756 
  172400    297.49806    286.27847    25740.133    -8269.296    708.54139   -8977.8374   0.13569703 
  172600     291.0844   -416.87547    25890.488   -8261.3135    693.26618   -8954.5796   0.14434788 
  172800    293.49601    -1306.481    26092.205   -8251.8776    699.00982   -8950.8874   0.13926481 
  173000    302.17425   -417.52103    25899.913   -8268.1335     719.6785    -8987.812   0.13233787 
  173200     296.1817    252.15303    25734.919   -8267.8924    705.40626   -8973.2987   0.13527735 
  173400    295.26319   -620.99717    25944.432   -8277.3514    703.21866     -8980.57   0.12987604 
  173600    285.28254   -1101.3072    26061.893    -8254.148    679.44807   -8933.5961   0.14456366 
  173800    302.35553    -210.4658    25859.285   -8247.8151    720.11027   -8967.9254   0.13630137 
  174000    293.31076    66.669959    25789.735   -8234.1885    698.56862   -8932.7571   0.13839701 
  174200    294.87563   -722.65634      26002.3     -8219.17    702.29563   -8921.4656   0.14037967 
  174400     296.8558   -913.39931    26040.144   -8221.1683    707.01172     -8928.18   0.13947253 
  174600    302.82284   -85.789688    25832.521   -8223.8486    721.22324   -8945.0718   0.13703278 
  174800    298.82646   -121.52498    25820.225   -8211.1676     711.7052   -8922.8728    0.1441272 
  175000    301.30678   -909.81145    26016.659   -8220.7516    717.61249   -8938.3641   0.14322039 
  175200    294.78825   -887.17321    25992.965   -8233.6748    702.08753   -8935.7624    0.1414206 
  175400    304.15727   -23.802122    25808.234   -8252.1191     724.4014   -8976.5205   0.12956867 
  175600    297.00028   -298.56956    25871.701   -8260.7557    707.35583   -8968.1115   0.12937341 
  175800    287.84423   -992.25324     26044.52   -8244.1707    685.54917   -8929.7199   0.14131685 
  176000    303.29057   -560.89451    25956.168   -8239.2689    722.33722   -8961.6061   0.11974817 
  176200    302.48653   -69.770267    25832.484    -8217.181    720.42226   -8937.6033   0.13534163 
  176400    297.96224   -465.41246    25953.632   -8225.2493     709.6469   -8934.8962   0.13077525 
  176600     284.9186   -931.92539    26033.577   -8227.1007    678.58129    -8905.682   0.13477523 
  176800    294.04598   -384.05681    25906.806   -8228.5089    700.31968   -8928.8285   0.13790882 
  177000    299.36262   -88.397388    25847.247   -8227.8516    712.98214   -8940.8337     0.128586 
  177200    297.17404   -616.00498    25966.664   -8219.5977    707.76967   -8927.3674   0.12829529 
  177400    303.94141   -804.64295    26004.164   -8238.6416    723.88731   -8962.5289   0.13165978 
  177600    294.91359   -298.06841    25886.207   -8231.2633    702.38603   -8933.6493   0.13170473 
  177800    295.65345   -187.12345    25881.598   -8235.2935    704.14814   -8939.4416   0.12521177 
  178000    293.40811   -776.60239    26002.482   -8236.5583    698.80048   -8935.3587   0.12721995 
  178200    297.43392   -609.59712    25983.231    -8225.537    708.38862   -8933.9256    0.1330944 
  178400    287.14153   -305.19529    25865.651   -8241.5763    683.87557   -8925.4519   0.14228634 
  178600     296.9084   -346.60474     25880.59   -8230.2624    707.13701   -8937.3994   0.13730069 
  178800    297.86657    -836.1117    25978.276   -8223.0601    709.41906   -8932.4792   0.14701227 
  179000    301.83867    -501.3016    25939.503   -8202.6145    718.87926   -8921.4937   0.14612853 
  179200    288.71743   -220.51326    25857.099   -8224.8428    687.62884   -8912.4717   0.14051729 
  179400    302.69838   -440.64969    25898.479    -8235.554    720.92681   -8956.4808   0.13468781 
  179600    289.83016   -749.62683    25966.956    -8238.056    690.27899    -8928.335   0.14128573 
  179800     293.6138   -458.86785    25910.047   -8240.4037    699.29037   -8939.6941   0.13169685 
  180000    282.70605   -252.56338    25857.122   -8234.8634    673.31174   -8908.1751   0.13692692 
  180200     301.6099   -499.05354    25926.357   -8224.7784    718.33441   -8943.1128   0.13119194 
  180400    302.47524   -756.83354    25976.123   -8214.9083    720.39536   -8935.3036     0.135249 
  180600    293.65161   -436.06813    25898.813   -8220.3074    699.38042   -8919.6878   0.13461481 
  180800    285.94577   -231.91798    25855.044   -8237.7382    681.02768   -8918.7659   0.13763776 
  181000    295.74546   -646.02613    25948.434   -8233.3205    704.36728   -8937.6878   0.13783113 
  181200    289.82119    -726.9917    25987.723   -8239.0817    690.25762   -8929.3394    0.1261418 
  181400    290.66605   -385.12993    25877.392   -8250.2861    692.26982   -8942.5559   0.13357229 
  181600    294.34999   -190.89504    25847.732   -8251.1678    701.04372   -8952.2115   0.13357013 
  181800    285.15436   -851.24474    25978.169    -8251.174     679.1428   -8930.3168   0.13680903 
  182000     289.6206   -771.82589    25978.192   -8241.4292     689.7799   -8931.2091   0.13596259 
  182200    291.51501   -180.96582    25835.673     -8247.38    694.29175   -8941.6718   0.13636216 
  182400     296.7904   -285.09271    25871.699   -8255.4183    706.85597   -8962.2742   0.13236461 
  182600    289.28412   -1012.6423    26030.031   -8241.4192     688.9785   -8930.3977   0.13581718 
  182800    297.52704   -650.70388     25956.47   -8227.8211    708.61039   -8936.4315   0.13370708 
  183000    301.35828    43.214528    25797.551   -8225.0225    717.73514   -8942.7576    0.1318996 
  183200    307.57094    -446.7608    25912.754   -8215.1405    732.53163   -8947.6722   0.13149086 
  183400     296.0719   -1038.2042    26064.301   -8221.1373    705.14473   -8926.2821   0.13377255 
  183600    289.24658   -380.64307    25898.826    -8238.501    688.88911   -8927.3901   0.14274105 
  183800    292.10257    177.67145    25760.012   -8250.2765    695.69111   -8945.9676   0.13433698 
  184000    286.05811   -703.29081    25950.236    -8253.704    681.29522   -8934.9992   0.14008266 
  184200    294.13331   -1134.4808    26054.039   -8262.7189    700.52766   -8963.2466   0.14103008 
  184400    294.50171   -176.01662    25832.498   -8260.0467    701.40508   -8961.4518   0.13819857 
  184600    281.14415    79.667364     25770.89   -8280.2293     669.5918   -8949.8211   0.13100084 
  184800    292.61195   -955.03188    26010.368   -8263.2384     696.9043   -8960.1427   0.13771708 
  185000    295.02159   -1008.0889    26045.859   -8265.3724    702.64325   -8968.0157   0.13346306 
  185200    289.16403   -79.208639    25799.337   -8269.2703    688.69249   -8957.9628   0.13765773 
  185400    288.89303   -40.920302    25792.494   -8279.5031    688.04706   -8967.5502   0.13642142 
  185600    289.74209   -1019.4113    26038.326   -8266.1653    690.06923   -8956.2346   0.13991142 
  185800    283.93959   -1040.8259    26013.875   -8267.9373    676.24962   -8944.1869   0.14041382 
  186000    287.02898     156.2712    25772.179   -8255.4209    683.60751   -8939.0284    0.1296248 
  186200    294.48062   -213.66994    25840.907   -8251.1597    701.35483   -8952.5146   0.13947727 
  186400    287.62801   -1141.4257    26072.065   -8253.2498    685.03421    -8938.284     0.134803 
  186600    293.08853   -657.81167    25954.959   -8241.6519    698.03936   -8939.6913   0.13457263 
  186800    289.44113    273.34068    25756.935    -8254.173    689.35245   -8943.5254   0.13233558 
  187000    299.46603   -426.13562    25896.537   -8249.2055    713.22842   -8962.4339   0.13863951 
  187200    295.18163   -1135.5352    26066.423   -8250.5519    703.02443   -8953.5763   0.13772197 
  187400    293.36551   -488.82961    25902.503    -8245.225    698.69903    -8943.924   0.14857508 
  187600    286.91785    97.896578    25772.343   -8254.9669    683.34283   -8938.3098   0.14395607 
  187800    298.93049   -647.04114    25935.766    -8254.853    711.95295   -8966.8059   0.13734277 
  188000    290.94231   -1017.9277    26024.018   -8253.5355    692.92777   -8946.4632   0.13880521 
  188200    286.69226   -336.28398    25869.377   -8245.7097    682.80556   -8928.5153   0.14874713 
  188400    284.74746   -148.26204    25822.263   -8238.3266     678.1737   -8916.5003   0.14972201 
  188600    288.46829   -669.09862    25968.169   -8242.4505    687.03548    -8929.486   0.13978907 
  188800    279.09109   -847.83756    25984.409   -8261.2513    664.70209   -8925.9534   0.14122625 
  189000    299.62257    -166.1263    25844.692   -8255.2627    713.60125   -8968.8639   0.13432001 
  189200    299.60295   -216.15815    25869.949   -8246.1039    713.55454   -8959.6584   0.12410719 
  189400    293.67465   -815.45863    25994.157   -8253.8084     699.4353   -8953.2437    0.1312457 
  189600    281.79567   -749.25306    25945.368   -8251.9645    671.14352    -8923.108   0.14566482 
  189800    302.94619   -101.30483    25837.744   -8255.1709    721.51702   -8976.6879   0.12482124 
  190000     289.7913   -468.39903    25889.951   -8265.8943    690.18644   -8956.0807   0.13510489 
  190200     287.6969   -729.37203    25957.877   -8271.0308    685.19829   -8956.2291   0.13671195 
  190400    290.84091   -599.14639    25898.266    -8256.821    692.68626   -8949.5073   0.14960159 
  190600    289.68679   -335.65555    25851.065   -8246.7579    689.93753   -8936.6954   0.14955915 
  190800    293.67437   -630.93062    25913.106   -8244.1238    699.43462   -8943.5585   0.14878754 
  191000    291.96372   -661.51638    25929.129   -8245.3028    695.36043   -8940.6632   0.14759265 
  191200    285.94448   -276.68616    25869.447   -8255.4375     681.0246   -8936.4621   0.13309565 
  191400    294.98874   -337.09952    25890.095   -8266.9522    702.56501   -8969.5173   0.12833448 
  191600    299.44856   -624.24472    25944.615   -8253.0422    713.18683    -8966.229   0.13353523 
  191800    281.86173   -499.32114    25917.922   -8243.2341    671.30084   -8914.5349    0.1380569 
  192000    302.26271   -309.86211    25883.299   -8263.5621    719.88919   -8983.4513   0.12493576 
  192200    301.86209   -544.78642     25917.94   -8247.1152    718.93505   -8966.0503   0.13907881 
  192400    298.60398   -646.21923    25941.666   -8246.3709    711.17531   -8957.5462   0.12845132 
  192600    288.51828   -365.26312    25902.043   -8243.9814    687.15454   -8931.1359   0.13203045 
  192800    294.31119   -375.42925    25890.126   -8251.1106    700.95133   -8952.0619    0.1347538 
  193000    300.90066   -523.36351     25937.13   -8235.5379    716.64524   -8952.1832   0.13700816 
  193200    290.91553   -628.85525     25943.21    -8220.185    692.86397   -8913.0489   0.14376219 
  193400    299.02509   -326.47125    25895.623   -8207.2352    712.17826   -8919.4134    0.1356426 
  193600    293.85329   -515.83801     25920.75   -8212.6075    699.86076   -8912.4683    0.1450175 
  193800     292.4443   -667.14311    25963.131   -8227.9072      696.505   -8924.4122   0.13646057 
  194000    296.84432   -571.32493    25904.026    -8239.275    706.98439   -8946.2594    0.1423954 
  194200    285.50336   -262.97051    25849.286   -8252.0995    679.97401   -8932.0735   0.14043297 
  194400    286.25715   -487.62435    25919.208   -8254.4427    681.76926    -8936.212   0.13710884 
  194600    286.18984   -794.28496    25974.728   -8257.5174    681.60896   -8939.1264    0.1343435 
  194800    295.36507   -413.00726    25891.619   -8258.5666    703.46131   -8962.0279    0.1298105 
  195000     294.8856   -233.61438    25840.115   -8254.9761    702.31936   -8957.2954   0.14103695 
  195200    283.90609   -649.40128     25927.57   -8243.6963    676.16983   -8919.8662   0.14464745 
  195400    302.48567   -781.30414    25954.707   -8243.5908    720.42021    -8964.011   0.14437779 
  195600    298.27551   -178.58649    25844.235    -8239.198      710.393    -8949.591   0.13596523 
  195800    283.81089   -392.53838    25850.233   -8255.4713    675.94309   -8931.4144    0.1455186 
  196000    299.16587   -798.00427    25964.911   -8261.9104    712.51356    -8974.424   0.13560284 
  196200    288.20927    -761.4677    25938.009   -8238.2471    686.41856   -8924.6656   0.14544702 
  196400    286.41892   -121.81595    25819.716   -8245.5284    682.15455   -8927.6829   0.14305542 
  196600    294.83347   -393.83177    25884.549   -8270.3019    702.19522   -8972.4971   0.13670788 
  196800     285.7678   -1006.3955    25998.365   -8257.2613    680.60381   -8937.8651    0.1462281 
  197000    298.77451   -464.90686    25894.231   -8263.1069    711.58147   -8974.6884   0.13965123 
  197200    283.45705  -0.75490694    25778.064    -8277.085    675.10038   -8952.1853   0.13546805 
  197400    285.76007   -607.67676    25920.462   -8284.2849     680.5854   -8964.8703   0.13736408 
  197600    300.82019   -969.14156    26026.454   -8250.9547    716.45358   -8967.4083   0.13731046 
  197800    309.98167    -318.2792    25879.584   -8229.5231    738.27319   -8967.7963    0.1394618 
  198000     292.6577   -18.970291    25814.697   -8241.0507    697.01325   -8938.0639   0.13259951 
  198200     294.9753   -712.06062      25984.1    -8250.823    702.53302    -8953.356   0.13884344 
  198400    299.62761   -821.31461    26026.389   -8231.2816    713.61326   -8944.8948   0.13677507 
  198600    298.80382   -209.78989    25854.484   -8226.0927    711.65128    -8937.744   0.14283732 
  198800    299.59463   -155.78849     25848.11   -8236.9011     713.5347   -8950.4358   0.13423499 
  199000     305.9796   -854.58163    26024.301   -8243.9761    728.74159   -8972.7177   0.14045559 
  199200    294.28321   -838.32245    25992.737   -8256.3484    700.88469    -8957.233   0.13778086 
  199400     284.8148   -140.79292    25807.519   -8254.0884    678.33407   -8932.4224   0.13918828 
  199600    299.08013   -186.89853    25857.029   -8248.8693    712.30935   -8961.1786    0.1370588 
  199800    286.81307    -1022.369    26033.398    -8247.203    683.09329   -8930.2963   0.14360972 
  200000    301.40546   -680.06948     25959.03   -8235.8487    717.84751   -8953.6962   0.13699033 
Loop time of 42.1327 on 4 procs for 200000 steps with 800 atoms

Performance: 2050.665 ns/day, 0.012 hours/ns, 4746.909 timesteps/s
99.5% CPU use with 4 MPI tasks x no OpenMP threads

MPI task timing breakdown:
Section |  min time  |  avg time  |  max time  |%varavg| %total
---------------------------------------------------------------
Pair    | 26.445     | 26.927     | 27.099     |   5.4 | 63.91
Neigh   | 3.8686     | 3.8892     | 3.9035     |   0.7 |  9.23
Comm    | 5.6525     | 5.8595     | 6.3679     |  12.2 | 13.91
Output  | 1.185      | 1.1879     | 1.196      |   0.4 |  2.82
Modify  | 3.4912     | 3.5347     | 3.5708     |   1.6 |  8.39
Other   |            | 0.7346     |            |       |  1.74

Nlocal:        200.000 ave         204 max         194 min
Histogram: 1 0 0 0 1 0 0 0 0 2
Nghost:        643.500 ave         649 max         639 min
Histogram: 1 0 0 1 0 1 0 0 0 1
Neighs:        0.00000 ave           0 max           0 min
Histogram: 4 0 0 0 0 0 0 0 0 0
FullNghs:      5693.00 ave        5820 max        5515 min
Histogram: 1 0 0 1 0 0 0 0 0 2

Total # of neighbors = 22772
Ave neighs/atom = 28.465000
Neighbor list builds = 10424
Dangerous builds = 0
write_data		data.${NAME}
write_data		data.ice_294K_500atm_ML
System init for write_data ...
Total wall time: 0:01:02
