LAMMPS data file via write_data, version 29 Oct 2020, timestep = 200000

4608 atoms
1 atom types

-0.009804813832548831 57.28031481383363 xlo xhi
-0.008715390073650298 50.915835390074335 ylo yhi
-0.008715390073650298 50.915835390074335 zlo zhi

Masses

1 18.015

Atoms # atomic

29 1 5.011701486369883 1.4079328924946442 1.5478352234134227 0 0 0
285 1 11.351963126917555 1.2859678732640285 1.5218089660607361 0 0 0
640 1 16.00357999270363 22.112688812588935 0.19879347270329442 0 0 0
2527 1 18.86637259097922 38.295438372614385 24.996948522025598 0 0 0
541 1 17.927642867959726 1.5308625997623209 1.483993468878063 0 0 0
30 1 1.7376970323367777 4.758125211302394 1.6215389589923361 0 0 0
672 1 15.355252141668835 28.537231749871605 0.14115595520916652 0 0 0
286 1 8.508422597821738 4.789468882085404 1.663561506202912 0 0 0
542 1 14.423779199645185 4.749237686072269 1.773292659159152 0 0 0
447 1 6.361100814770867 31.500664716990112 0.028081330032592153 0 0 0
2 1 -0.0016836481068895296 3.290753212911633 22.16586498431034 0 0 0
61 1 4.988865428788335 7.709688624333906 1.7857326174134938 0 0 0
194 1 0.17215784812661108 41.15095732247019 21.89890327172951 0 0 0
317 1 11.357160866367026 8.137113038009756 1.4708511893804779 0 0 0
50 1 0.5449209519828015 9.543122175576876 9.962580579871975 0 0 0
573 1 17.453603968248178 7.92037563961451 1.1821510529067054 0 0 0
62 1 1.9430529325410255 11.04030480466969 1.3575278995115323 0 0 0
384 1 9.338396465065411 21.881028694873603 0.381625321004916 0 0 0
318 1 8.199363551685911 11.051184567529765 1.6902924034812672 0 0 0
574 1 14.497946424466285 11.349624419019504 1.3446603624324778 0 0 0
2559 1 19.01278685326867 44.766736140881335 25.228792124451093 0 0 0
93 1 4.869323858982047 14.425573691108957 1.6633395077861797 0 0 0
345 1 9.627571155165809 12.513887633012766 3.370857184146375 0 0 0
349 1 11.135109337595818 14.222468487738027 1.7679223443227805 0 0 0
143 1 0.14398218739291432 25.29150670461319 12.887174668244992 0 0 0
605 1 17.820345976902118 14.536210246883373 2.007812588769654 0 0 0
94 1 1.1219689105308766 17.422426779182032 1.6076326360882303 0 0 0
106 1 0.01624039511942499 22.2907993695762 15.973351947936074 0 0 0
350 1 8.075412151054211 17.205470242914956 1.5346128324765544 0 0 0
606 1 14.567092608295471 17.376423198481522 1.7765227374610326 0 0 0
125 1 4.815615402118884 20.450660160395334 1.7884938106782653 0 0 0
381 1 11.15845288529205 20.32280086206967 1.7830592082110361 0 0 0
633 1 15.846953117548297 19.21606261568214 3.21067615354298 0 0 0
637 1 17.80191974348646 20.76402795194722 1.8409684231956858 0 0 0
126 1 1.8894389106694394 23.56747630637047 1.3145157691857836 0 0 0
378 1 6.189890612018245 21.89684190814804 3.2980167389146344 0 0 0
135 1 0.07126594728983703 25.4614328108662 18.766480879069036 0 0 0
382 1 7.882681401314299 23.520883849303214 1.7158472330537649 0 0 0
409 1 9.556310206642554 25.143670365686052 3.255440466168605 0 0 0
634 1 12.68888555554224 21.975555513049006 3.2106652462377028 0 0 0
638 1 14.489128489459322 23.688462615444074 1.819037316781048 0 0 0
231 1 0.40596340235195655 44.57895548523322 19.49388874619882 0 0 0
157 1 4.934283078219138 26.805772453455926 1.3837170538761332 0 0 0
210 1 0.03721564521569576 41.29117925962696 9.434914540339053 0 0 0
413 1 10.935556541617167 27.053390737590252 1.7522186074952109 0 0 0
666 1 12.37426279319492 28.5153744339817 3.3960693717923434 0 0 0
665 1 15.954787229618054 25.774027933262477 3.2999603298558142 0 0 0
669 1 17.348369220312446 27.552400721858685 1.6502830385107379 0 0 0
215 1 0.1835050053123693 37.843507653738726 5.938451098442277 0 0 0
158 1 1.672459471815873 29.50187138939982 1.687705327661802 0 0 0
414 1 7.966953664883581 30.05746688680636 1.8492546765371183 0 0 0
670 1 14.238195141984415 30.10061685287817 1.9987927631725553 0 0 0
697 1 15.798852147909129 31.577955838452066 3.7542306679633732 0 0 0
185 1 2.8614897747277435 31.230683486479926 3.4413780366897635 0 0 0
1791 1 18.85302113140445 44.736344242991095 0.23512386180914852 0 0 0
189 1 4.4052774538641595 33.07314689387219 1.7202792826332516 0 0 0
442 1 6.038467846626826 34.8343068297804 3.284538891839565 0 0 0
445 1 10.819492165091505 33.244825729482685 1.7689712068907217 0 0 0
698 1 12.428966816160294 34.72385385030057 3.3699439987976327 0 0 0
701 1 17.190627355937725 33.39046108350128 2.2443799190129834 0 0 0
740 1 17.357923595701653 49.16070549536995 23.58410766413571 0 0 0
190 1 1.5239776708711137 36.66562955458697 1.3585702891134714 0 0 0
446 1 7.680179804247858 36.501473713941834 1.8878627508223291 0 0 0
473 1 9.59297114539644 38.08475147739172 3.509079200319499 0 0 0
74 1 0.22764643492802508 15.655709773387297 15.86341265939857 0 0 0
10 1 0.06505829658342124 3.148749931964362 16.13344250943869 0 0 0
702 1 13.591270878555854 36.418998014897014 1.5048202870297196 0 0 0
226 1 0.35081128861652894 47.94171233208982 21.992622335730918 0 0 0
111 1 0.12785293508343845 18.999551347701974 12.764063396129002 0 0 0
1504 1 15.853331965555965 41.61184019312158 25.277241806549764 0 0 0
221 1 4.593862522109261 40.027834644322965 1.5087166010667845 0 0 0
477 1 11.311617059112764 39.81127425100581 2.078177428799084 0 0 0
319 1 6.554855171542987 6.140563162825337 0.29083650521356647 0 0 0
733 1 17.37272388009511 39.85839866370752 1.7223561848853983 0 0 0
222 1 1.2927659193069996 43.01356919472941 1.4380233730401988 0 0 0
512 1 9.145751866155988 47.52869320355465 0.09263962992570851 0 0 0
478 1 7.741072639652492 42.969475693395026 1.8386084003843077 0 0 0
505 1 9.339091600006164 44.53269876201479 3.3335505360166544 0 0 0
734 1 14.319646696437637 43.282734133199384 1.49947074652189 0 0 0
761 1 15.96564821315995 44.70960627859175 3.1780937203628654 0 0 0
249 1 2.8282696422106746 44.41430769534064 3.068229108567664 0 0 0
253 1 4.5961877274258045 46.091530895787784 1.5812656277512236 0 0 0
509 1 11.005642265955906 45.90182950094783 1.5845526014676685 0 0 0
762 1 13.020242600745108 47.766881132025816 2.8494894098685704 0 0 0
765 1 17.28639550861014 46.39804109835596 1.5523122830277258 0 0 0
71 1 0.12830148636909855 12.790183441834758 19.0387068231546 0 0 0
254 1 1.5720221239435357 49.51801776710441 1.5419374302066988 0 0 0
25 1 3.201161790729727 50.74110749732911 3.229599533858044 0 -1 0
506 1 6.015088732131843 47.592340569489096 3.2129626705474994 0 0 0
510 1 7.764660547730459 49.16273173547005 1.904081764248607 0 0 0
281 1 9.485863494774218 0.07894256989578707 3.1312725664414125 0 0 0
34 1 0.020246903013455653 9.644134102852385 22.202476465225345 0 0 0
42 1 0.13736235070259317 9.373669454879284 16.344742639217408 0 0 0
766 1 14.292653273881225 49.341612974039066 0.9221691668983205 0 0 0
537 1 15.951866407783147 0.13818413219045014 2.6954929669470724 0 0 0
27 1 1.3806420063995544 1.3842480989906063 4.8580666513432655 0 0 0
283 1 8.043150749112918 1.8734014661525122 4.789096579260261 0 0 0
539 1 14.55010661743553 1.6110143276436335 4.667132091711742 0 0 0
535 1 12.81509075471342 50.834118550931045 6.128310634652976 0 -1 0
484 1 11.210420235636157 48.62696037394345 23.702918261090304 0 0 0
57 1 3.3160714318175772 6.049436695791459 3.238861805719517 0 0 0
24 1 2.9705531198170387 3.2203921251807497 6.420588531081151 0 0 0
28 1 5.070535457547615 4.5659900978153525 4.7422159918183695 0 0 0
282 1 6.386484432231637 3.1505976343096953 2.9745261520386306 0 0 0
311 1 6.362688755065676 6.106736403757133 6.360933976406007 0 0 0
284 1 11.2559120839779 4.7164877894668695 4.601576790125892 0 0 0
538 1 12.656614316181221 3.0278634628128613 3.2294552846861313 0 0 0
536 1 16.258867420094507 3.271737931693309 6.2914510173280345 0 0 0
540 1 17.70357125161844 5.002067674734822 4.641154588630286 0 0 0
59 1 1.8726379392224666 7.897003312971343 4.771095857789751 0 0 0
315 1 7.975392145859125 7.657326422630667 4.861725271301026 0 0 0
314 1 6.602727145550476 9.357586224756526 3.295957093802495 0 0 0
313 1 9.97199524772027 6.684277702068924 2.8879827880026787 0 0 0
570 1 13.266015818176584 9.501789312366332 3.05034389086427 0 0 0
571 1 14.753222283955262 7.759876154225545 5.078837363910547 0 0 0
569 1 16.106948605551747 6.487454522727541 3.0504422063057874 0 0 0
568 1 16.28430087961457 9.658562575006936 6.427559383954713 0 0 0
89 1 3.3465503458533314 12.565042185079195 3.1335960450666986 0 0 0
60 1 4.757544492114317 10.974277168540139 4.864902476649593 0 0 0
316 1 11.559755936928358 10.723862639128862 4.699374479253918 0 0 0
601 1 15.917365842263239 12.765927975181327 3.4161946605875 0 0 0
572 1 17.535905258197413 11.294149869771106 4.550221582845505 0 0 0
91 1 1.667298453717788 14.13874060456767 4.699763413931856 0 0 0
347 1 7.983344094466258 14.156436795275383 4.986167702129235 0 0 0
602 1 12.745262776644648 15.97295212969489 3.163629775556942 0 0 0
603 1 14.472668548727295 14.418804015849885 5.010600726674076 0 0 0
1056 1 9.73678887499322 2.8116842514685554 24.988198209152035 0 0 0
346 1 6.477717500897339 15.918844003105814 3.2055171584814346 0 0 0
92 1 4.75398339479584 17.5248113992028 4.6925513253245645 0 0 0
377 1 9.490985310759246 18.726801490027828 3.2857749663278795 0 0 0
348 1 10.872965768667465 17.315325732075273 4.83772077492323 0 0 0
604 1 17.371925668936658 17.43738843522477 4.742068336356974 0 0 0
121 1 3.061747132136503 18.72081638492869 3.0751092472338386 0 0 0
123 1 1.638895640760161 20.36987110615544 4.476785300939795 0 0 0
170 1 0.08596181859750797 35.26044069585389 16.134290384981107 0 0 0
379 1 7.748308101964904 20.235406287048168 4.704337446753494 0 0 0
635 1 14.155939883687736 20.60110174859834 4.874974898967496 0 0 0
146 1 0.24102662508430867 28.541315673185178 9.72369318668713 0 0 0
153 1 3.52798172811286 25.45635752706566 2.9060796738225076 0 0 0
124 1 4.620898849077836 23.613507994388822 4.7675374512040944 0 0 0
380 1 11.044673016087252 23.59903105802226 4.970475009298518 0 0 0
663 1 12.66438684838404 25.338851601330653 6.455806326468596 0 0 0
632 1 15.778332785362423 22.21745298418669 6.283929146183678 0 0 0
636 1 17.328663661508564 23.987374933343506 4.871790122587428 0 0 0
155 1 1.9571446189513615 26.416314666509827 4.853162167305904 0 0 0
410 1 6.517110519319715 28.456287588430403 3.123837453528716 0 0 0
411 1 7.833055527546714 26.46318523639462 4.883730602739059 0 0 0
408 1 9.358221590122495 28.04412866284308 6.364392233068573 0 0 0
667 1 14.279330828478987 26.90813952093364 4.917254036628327 0 0 0
664 1 15.870279086234898 28.46882267045816 6.465489175839887 0 0 0
156 1 4.62745835440415 29.685980019181738 4.663118629801957 0 0 0
441 1 9.31690944852107 31.566180561686647 3.311547820726785 0 0 0
412 1 10.897572794893678 30.144952043434035 5.196735169982891 0 0 0
695 1 12.4418376729417 31.48099890819889 6.652926509483951 0 0 0
668 1 17.601532578875176 30.010522464388796 5.096491870383512 0 0 0
187 1 1.579147930749972 33.28825004850475 4.7453549494912055 0 0 0
443 1 7.6189797223786275 33.3432197619926 4.7556064099911115 0 0 0
699 1 13.967509215686022 33.19079235624335 5.182944452306801 0 0 0
696 1 15.82637422281775 34.85532454318741 6.6164135212741515 0 0 0
217 1 3.090866455581251 38.07436597760115 2.853597140863463 0 0 0
188 1 4.6924958898762235 36.59609293041197 4.771712004236765 0 0 0
471 1 6.378726536924938 37.831280894463106 6.42571801598245 0 0 0
440 1 9.252234707904725 34.86592445502845 6.425172708737523 0 0 0
444 1 11.032108425112439 36.38032477173063 4.951596185191507 0 0 0
727 1 12.898051473789343 37.94999038791231 6.463213120756111 0 0 0
729 1 15.515524935046253 38.09839496183341 3.2441072087340035 0 0 0
700 1 17.16141487733044 36.46901427776574 4.696193766924424 0 0 0
219 1 1.6434704451545392 39.67402968243191 4.418870834920779 0 0 0
474 1 6.131708800914072 41.30131661254666 3.121383011036779 0 0 0
475 1 8.020264613039675 39.745909125946994 4.965564535923896 0 0 0
730 1 12.814773961652644 41.663703305541304 3.384328020445637 0 0 0
731 1 14.28753268832567 39.897790798005076 4.945580877242106 0 0 0
216 1 2.9923103264601534 41.20146368049771 6.504348030765148 0 0 0
220 1 4.395149855732387 42.837591690850815 4.657266637471361 0 0 0
472 1 9.701078057860363 41.5037826310205 6.591123224351316 0 0 0
476 1 11.123529180128513 43.104999697450964 4.760794134973084 0 0 0
732 1 17.609781090646916 42.97022177298912 4.675394526340108 0 0 0
251 1 1.3471662033830758 46.057879302303476 4.469567936966731 0 0 0
503 1 6.044015056550605 44.49460593879263 6.101766520321931 0 0 0
507 1 7.837168986445154 46.13377071840786 4.934448124789041 0 0 0
759 1 12.950885125943312 44.64585435006772 6.0879514552955705 0 0 0
763 1 14.52699124580119 46.31791692393652 4.6166094013971755 0 0 0
252 1 4.5294486849130875 49.32829800492122 4.7213448258726025 0 0 0
279 1 6.442158823209553 0.054467453979814145 5.9063543647077354 0 0 0
508 1 11.268957443858962 49.171572744944356 4.422129952325883 0 0 0
504 1 9.58510955824077 47.80290297253906 6.094231767511598 0 0 0
760 1 16.071319574975913 48.045483340461644 6.378555270196589 0 0 0
764 1 17.459711891630814 49.68518362997635 4.727381093593222 0 0 0
21 1 4.742850395275541 1.5742178179841415 7.700310176844704 0 0 0
17 1 3.2681010091756253 0.03360196774708892 9.446644436106348 0 0 0
274 1 6.223199856232178 3.3309500703031336 9.531730763730833 0 0 0
280 1 9.668048511705083 3.335392910393573 6.369892532738833 0 0 0
277 1 11.19839468931057 1.5263387587023967 7.77516042074852 0 0 0
273 1 9.528633939609334 0.11456412756971955 9.80017115723604 0 0 0
533 1 17.484058326950567 1.3910000782015064 8.116791140600993 0 0 0
529 1 15.672931720766073 0.08882243678591806 9.581819803143118 0 0 0
22 1 1.5090306788859127 4.693347661229149 8.167308238635353 0 0 0
49 1 3.411197053004966 6.301946508578845 9.489858017547606 0 0 0
278 1 7.819862915795496 4.864873900137537 7.9054267155722355 0 0 0
530 1 12.455236339492634 3.413210836400449 9.458973784078566 0 0 0
534 1 14.226458576942424 4.521497470824814 7.976596500429486 0 0 0
567 1 12.722954755382792 6.185653396880518 6.178487590964511 0 0 0
167 1 0.24563846233636788 32.01571663871678 18.93700833802994 0 0 0
56 1 3.1576177100741987 9.473948286627284 6.58524814373955 0 0 0
53 1 5.022959557518434 7.655293030837704 7.700721774119166 0 0 0
305 1 9.520445977788091 6.294324510391298 9.697039928323962 0 0 0
309 1 11.443249341104544 7.513447568452381 7.936562188751212 0 0 0
565 1 17.726673794776136 8.048763050816138 7.99056999218885 0 0 0
242 1 0.005988137790481574 47.902580817059416 9.341865219753954 0 0 0
54 1 1.690599920894455 11.031184504174071 8.139691726916793 0 0 0
81 1 3.1974754657001156 12.772756978036053 9.39254441730464 0 0 0
310 1 8.016131062855095 10.881976835839913 8.30038762030954 0 0 0
312 1 9.775297120689519 9.273506774157692 6.470914023616802 0 0 0
337 1 9.508469410481622 12.466323435981083 9.734273957225923 0 0 0
599 1 12.911200443337533 12.805535464128896 6.551820590618624 0 0 0
566 1 14.420829885966008 11.01141253594863 7.983126081638117 0 0 0
562 1 13.002875107187648 9.21258114522141 9.774630751141608 0 0 0
85 1 4.948379923120995 14.147402370427816 8.034927844532714 0 0 0
343 1 6.51800430998412 12.152511532316858 6.536913313428708 0 0 0
344 1 9.47915938968643 15.6028405394974 6.663564492982989 0 0 0
341 1 11.027676116876572 14.20645149449149 8.077766079105333 0 0 0
597 1 17.63215787419916 14.346132561259004 7.8612609140209155 0 0 0
593 1 15.92885609710988 12.601000985985605 9.652402669648149 0 0 0
39 1 0.03559302925204122 6.68645614309565 19.1422015992706 0 0 0
88 1 3.3828946024532978 15.734166384515525 6.390035349041593 0 0 0
86 1 1.2146078506173563 17.210279274462508 7.893143159404647 0 0 0
342 1 7.8119996009502595 17.269744971663552 8.02753124249856 0 0 0
369 1 9.61688356117389 18.81767590204084 9.60490756418288 0 0 0
600 1 15.929716308028498 15.872133402038747 6.574019084340427 0 0 0
594 1 12.738110425019665 15.646154656174117 9.671914273180882 0 0 0
598 1 14.322825889081173 17.297451552506708 8.216443480918329 0 0 0
228 1 4.595417885960902 49.36952027417931 24.04086947040939 0 0 0
375 1 6.322233606507595 19.031070503475277 6.415645077949309 0 0 0
117 1 4.674170181649 20.37368872583578 7.84361094820357 0 0 0
376 1 9.325247956201133 21.961564238320783 6.364186064121743 0 0 0
631 1 12.457314522673737 18.925007290621714 6.349003104655806 0 0 0
373 1 10.88907399294224 20.46022800150955 7.916006244535471 0 0 0
629 1 17.717324007042517 20.669931962783114 7.803802217362861 0 0 0
120 1 2.9422229610592674 22.111770760247982 6.274661115157988 0 0 0
118 1 1.4125398898192782 23.818869914516565 7.9244521760133395 0 0 0
407 1 6.104228057289236 25.2402951442718 6.4922324197270305 0 0 0
374 1 7.872682524202399 23.855337870860623 7.9604807674573195 0 0 0
401 1 9.447751959521938 25.211602102886516 9.877200556932756 0 0 0
630 1 14.232589076084654 23.81726528520177 8.041144846084071 0 0 0
152 1 2.9852581721446785 28.29878619460112 6.2947302500035995 0 0 0
149 1 4.713990036943625 27.059266205144056 8.1138237108711 0 0 0
402 1 6.247286579827983 28.60261393430076 9.66560528485315 0 0 0
405 1 11.023382511244506 26.579872522510748 8.302596437275742 0 0 0
657 1 15.830279344705337 25.25071104691924 9.560283409332635 0 0 0
661 1 17.549455312498875 26.984741628258796 8.036327084528136 0 0 0
150 1 1.6094023520527456 30.074398636968233 7.9159945893189905 0 0 0
439 1 6.4054883777555816 31.34319083910081 6.428061844743292 0 0 0
406 1 8.081427757475861 29.6789576834585 8.071736214633908 0 0 0
662 1 14.224083048517373 29.835659176322157 8.236498540046307 0 0 0
689 1 15.743596911149485 31.46581973170184 10.04931826308572 0 0 0
184 1 3.182092788127632 34.687114419610936 6.424663086387306 0 0 0
181 1 4.740169982632554 32.898777878378866 7.959550322459345 0 0 0
433 1 9.20440853597491 31.57920441790243 9.7535008597181 0 0 0
437 1 10.599777656497116 33.01102421044186 7.965881425186236 0 0 0
693 1 17.350680655875376 33.02053511764086 8.177623022253044 0 0 0
182 1 1.4866142327755925 36.366955153495724 7.881517572556749 0 0 0
209 1 3.287709962576067 37.965624575750596 9.476688368651612 0 0 0
434 1 6.012175241928396 34.715620734086755 9.414602110025909 0 0 0
438 1 7.812548057822382 36.435039450341336 8.070565207892887 0 0 0
694 1 14.337648652346958 36.2990531460527 8.087431063353508 0 0 0
213 1 4.704029463615369 39.592470268263696 7.914509436451252 0 0 0
466 1 6.246172813995127 41.230276327101336 9.523449553434435 0 0 0
469 1 11.063775889787042 39.43820275954235 7.765780442625546 0 0 0
465 1 9.5338696764915 38.06893343130841 9.513451059500403 0 0 0
721 1 15.961837587908343 37.78681431552535 9.5554703474997 0 0 0
725 1 17.56015740625005 39.80658559143865 7.981198294215514 0 0 0
214 1 1.3999347247605696 43.14524558022251 7.789831312628451 0 0 0
202 1 -0.007587856510947133 41.57731644285927 15.877394494461319 0 0 0
470 1 7.681126481742188 42.80160829965418 7.779868366291322 0 0 0
722 1 12.83597078315784 41.179116198188595 9.239096664716477 0 0 0
726 1 14.643650629562988 43.105379696340236 8.151201209381522 0 0 0
753 1 15.922989942031087 44.75055811208283 9.976025338003085 0 0 0
728 1 15.97191906485233 41.55515522040503 6.36614569052064 0 0 0
248 1 2.863727515160199 47.65127138194502 6.190198328228849 0 0 0
234 1 0.0006231817344022512 47.485021890294405 16.178075506695386 0 0 0
245 1 4.870262845166368 46.26571988068008 7.7514077628199365 0 0 0
497 1 9.699164218312315 44.71392378777085 9.207688893966706 0 0 0
501 1 11.31612713819144 46.31401773826518 7.568168338986938 0 0 0
757 1 17.475639847378005 46.0759162347146 7.891961453870365 0 0 0
351 1 6.384932121555549 12.694166240137951 0.1401485317276586 0 0 0
246 1 1.6641173749539506 49.436923190080606 8.0269331564767 0 0 0
502 1 8.023000433217295 49.60415714294376 7.8120787040457085 0 0 0
498 1 6.544236839085569 47.895992189186856 9.361425211943542 0 0 0
754 1 12.730912740756697 47.6257249663506 9.527863474701418 0 0 0
758 1 14.278449589601598 49.20684340970807 8.145356831860349 0 0 0
19 1 1.5277495744840204 1.303524391370693 11.156481448020402 0 0 0
275 1 7.781061172111274 1.840543187914235 11.082896091958919 0 0 0
271 1 6.434768952724755 50.89612281757708 12.472243882846465 0 -1 0
272 1 9.442404255805432 3.024462299737167 12.878586909182832 0 0 0
531 1 14.375132188594318 1.8731007578695849 11.10188204723836 0 0 0
16 1 3.126809643007934 3.1532893993623934 12.473860010197928 0 0 0
20 1 5.121927936324948 4.773857853633019 11.226528647565724 0 0 0
276 1 10.97181869686634 4.736714603902209 11.412114297912382 0 0 0
528 1 16.322826078900572 3.410493191313954 12.779554287950782 0 0 0
559 1 12.833443868711816 6.31178886381346 12.91857634814562 0 0 0
532 1 17.53688406420398 4.73863730274901 11.01625292707108 0 0 0
51 1 1.7828698628802224 7.763394206320251 11.425869535950756 0 0 0
307 1 8.35189295224331 7.969315218533269 11.5081728147779 0 0 0
563 1 14.762287935616227 7.728636121990614 11.375742126429481 0 0 0
561 1 15.616258399705913 6.164678483579669 9.38572630933306 0 0 0
52 1 4.824547278930423 10.925355498106915 11.260446904426626 0 0 0
306 1 6.4381464855972315 9.330419915149337 9.781707784641553 0 0 0
308 1 11.42257655956244 10.939443598845278 11.150857682348635 0 0 0
564 1 17.783826649515124 11.136840426460797 11.431736573406582 0 0 0
83 1 1.9757963163144334 14.300455724607675 11.494026636683115 0 0 0
338 1 6.697102885299892 15.766975514734701 9.585310961776338 0 0 0
339 1 8.107484705603133 14.067791550397551 11.358587101642996 0 0 0
595 1 14.755256080439777 14.25636876231029 11.306796131748703 0 0 0
591 1 12.907648491075761 12.457120550736077 12.488654538711668 0 0 0
82 1 0.2708003498661787 15.819420645225557 9.992707145710714 0 0 0
84 1 5.079475073365355 17.18900040565526 11.36663721168001 0 0 0
336 1 9.580174389532703 15.406717250428262 12.99062759683385 0 0 0
340 1 11.002007853352213 17.16470346550764 11.245773588253767 0 0 0
592 1 16.03297763967472 16.123348857146055 12.366044587981866 0 0 0
596 1 17.93391419925522 17.484268698102376 10.988588755651328 0 0 0
115 1 1.4475771026262803 20.360869618820225 10.941709737263158 0 0 0
113 1 3.1918394328286523 18.639184782350185 9.67873504780735 0 0 0
370 1 6.129156824746836 22.02785491614096 9.458080405640054 0 0 0
371 1 8.023082982702165 20.670432999175155 10.838888741268578 0 0 0
625 1 16.287077225918 19.03584814385059 9.394015870896302 0 0 0
627 1 14.456678710098751 20.391765173328135 11.05761098399065 0 0 0
116 1 4.515022149813085 23.64416092721959 11.276886859353176 0 0 0
626 1 12.777946557634566 22.070610839274792 9.53415753018163 0 0 0
372 1 11.359146360633359 23.629615794955534 11.17125517365943 0 0 0
628 1 17.561145532765167 23.748103371410103 11.088384968083306 0 0 0
145 1 3.1652985079771008 25.168315359620514 9.447849320212336 0 0 0
147 1 1.66461514279716 26.785024284723292 11.19334949459658 0 0 0
403 1 7.866510252424768 27.030010568042055 11.145702721772967 0 0 0
659 1 14.454457906283766 26.837448845602243 11.133542285455194 0 0 0
177 1 3.2463275610618445 31.600022292056995 9.729773654324703 0 0 0
148 1 4.833130424964892 30.01567646460479 11.33532934541851 0 0 0
431 1 6.367509655886139 31.958695782327737 13.360497993788094 0 0 0
658 1 12.630421128109743 28.509222053917494 9.688145775575457 0 0 0
400 1 9.389164216786622 28.595693529417165 13.275633043090128 0 0 0
404 1 10.986022663235369 30.20567918140871 11.543841406060686 0 0 0
656 1 15.639526358488242 28.75753605132154 12.937879419242615 0 0 0
660 1 17.66901413103422 30.29580674034327 11.576982815312173 0 0 0
179 1 1.5909500233139329 33.26106895508889 11.251923724421875 0 0 0
435 1 7.493234920048547 33.34845831805852 11.319964688806845 0 0 0
690 1 12.434079046980417 34.80974531291437 9.231574163034123 0 0 0
691 1 14.048034194726064 33.59307381973804 11.360739029783101 0 0 0
739 1 14.439766832496025 46.0927704966213 24.08921756209104 0 0 0
176 1 3.029440582773187 35.258831296186045 12.473173455652052 0 0 0
180 1 5.008460971879754 36.701291967479904 11.000101782424581 0 0 0
432 1 9.323894282638742 34.937274924480604 12.70504966018484 0 0 0
436 1 11.019813884817221 36.624841819004246 11.388354863387619 0 0 0
692 1 17.65919001295792 36.26082848243411 11.315171707924401 0 0 0
688 1 15.745308444647726 34.87042003231589 12.990784428587679 0 0 0
211 1 1.7344674247585958 39.554868436135834 10.956790164914985 0 0 0
463 1 6.591985339267118 38.24876203787831 12.650410677403505 0 0 0
467 1 8.133252651608894 39.90666355440041 10.883007444700294 0 0 0
719 1 13.009109193751856 38.14966598999354 12.617764579332913 0 0 0
723 1 14.532795446820904 39.68864363243148 11.024228670954686 0 0 0
64 1 3.539367906948832 9.093235883540208 0.08574161347983006 0 0 0
241 1 3.134525671881942 44.553697311829424 9.393045456583117 0 0 0
212 1 4.371854521348785 42.758482869476865 10.969615748724662 0 0 0
208 1 2.8099771732134666 41.03333168545376 12.676803814237825 0 0 0
464 1 9.69637142128141 41.47047189400874 12.591167348202472 0 0 0
468 1 11.131139879850274 42.81366331896645 10.655688017066812 0 0 0
751 1 12.716390219932437 44.37884620748319 12.584821725624378 0 0 0
720 1 15.891784725978894 41.2834934117045 12.880705323962932 0 0 0
724 1 17.462540148072204 42.94995088609316 11.453111434346368 0 0 0
243 1 1.515340821789161 46.326460351253516 10.896162398147704 0 0 0
240 1 3.1995710277669995 47.711296961187685 12.44660646385792 0 0 0
495 1 6.13766328549131 44.336141993353806 12.105707434581118 0 0 0
499 1 7.8338355766636205 46.097849417348826 10.904596332481804 0 0 0
755 1 14.00904893258306 46.25541698114725 11.441892287531525 0 0 0
483 1 8.286114862344709 46.04237068242304 23.75223154713565 0 0 0
244 1 4.8521608796652504 49.40831258089027 11.029629521028511 0 0 0
500 1 11.179379635452346 49.07208420974385 11.332954357837876 0 0 0
527 1 12.879147181610875 50.83143617452929 12.569745811528522 0 -1 0
752 1 15.996341211791261 47.820474207474035 12.744794556877087 0 0 0
756 1 17.65796979566776 49.39315363283279 11.075115801554135 0 0 0
13 1 4.6174156973700065 1.2411584485665421 13.833585883727999 0 0 0
266 1 6.172378581315012 2.989807712790619 15.589066686191384 0 0 0
269 1 11.313983050820145 1.3114035369638881 14.085449031701565 0 0 0
265 1 9.572470530417485 50.607669013785454 15.651138182974716 0 -1 0
525 1 18.194869398957884 1.9982027797026092 14.178157121936753 0 0 0
14 1 1.919992936966936 4.4669447405338945 14.5184660233614 0 0 0
270 1 7.98961321822344 4.755631990206152 14.362480746526739 0 0 0
303 1 6.618172893750569 6.459057538767315 12.763043745075187 0 0 0
297 1 9.779570705846663 6.519659222161546 15.684026382707167 0 0 0
526 1 14.863723027326914 4.832114310775934 14.500792707282335 0 0 0
114 1 0.014049071272078998 22.262930676090885 9.62773379169497 0 0 0
45 1 4.904105038059905 7.958368654259232 14.41605952572347 0 0 0
301 1 11.66620070082017 8.152454593917952 14.482022066537226 0 0 0
304 1 10.182361538028985 9.380318998641979 13.032742257956599 0 0 0
554 1 13.163521116726434 9.597421940827573 16.056232980135764 0 0 0
557 1 17.731309969460135 7.882179887897703 14.362038616536191 0 0 0
46 1 1.5808167823140042 10.814623225405386 14.72517256634879 0 0 0
48 1 3.2746365626734244 9.623302823396287 12.897544036603207 0 0 0
73 1 2.9600560586993283 12.355157895812814 16.33056025046947 0 0 0
302 1 8.409720162747519 11.244153769016945 14.33196436721407 0 0 0
335 1 6.240147860252588 12.651215428738961 13.010775562223964 0 0 0
329 1 10.037820943614168 12.76445696539276 16.070876213735335 0 0 0
558 1 14.447464348580326 11.333952242482432 14.482561025957484 0 0 0
560 1 16.12847739517293 9.605157841274487 13.101618261122299 0 0 0
7 1 0.24604287919491696 50.874892173997964 18.996741649376247 0 -1 0
80 1 3.503963585047874 15.977462408749615 13.329944294921416 0 0 0
77 1 4.616711472976629 13.83934920962333 14.744220357289123 0 0 0
333 1 11.425230328705448 14.055430018361204 14.453777054491383 0 0 0
589 1 17.470772389136208 14.644431515355295 14.19609435954931 0 0 0
585 1 15.752449657378627 13.019019150841618 15.957077324888113 0 0 0
78 1 1.5835772596565407 17.547737684028903 14.633185110922486 0 0 0
367 1 6.746083692336995 18.817653879488116 12.611793161525323 0 0 0
334 1 7.825255598196328 17.18915562637332 14.396540978024365 0 0 0
590 1 14.421969314964034 17.26369081793494 14.318220333493402 0 0 0
586 1 12.673865800817152 15.873804091513403 16.085256418258734 0 0 0
47 1 0.26088148560198476 6.347106241898331 13.049791672576992 0 0 0
109 1 4.770324844857865 20.559632333037396 14.097261602377472 0 0 0
623 1 12.870064356639327 18.61546022186129 12.785706035552819 0 0 0
365 1 10.95764901139 20.2407157175252 14.41296661532401 0 0 0
368 1 9.777163269135883 22.12818833380669 12.653651350055425 0 0 0
621 1 17.676165438253626 20.409354086132595 14.47494243222136 0 0 0
800 1 3.2206567335758742 3.4125103898420246 24.83507641668935 0 0 0
110 1 1.5572936089331983 23.677659240217803 14.366740034101994 0 0 0
112 1 2.8348702137195985 22.154009334743243 12.726857127268447 0 0 0
366 1 8.259387886760054 23.563359199332055 14.532998513797915 0 0 0
622 1 14.517842672220004 23.722178860252686 14.264654884976355 0 0 0
618 1 12.888710860399788 22.039552268161387 15.779381012666432 0 0 0
624 1 16.099414695778062 22.046678005462304 12.711101669663021 0 0 0
199 1 0.00601323278928656 38.43274083691169 19.008301895858033 0 0 0
144 1 3.0286869972797845 28.553580724222844 12.887834258535557 0 0 0
141 1 5.084493859318486 26.921885159168838 14.346321810228437 0 0 0
399 1 6.474185183948938 25.050027509426627 12.684211286020679 0 0 0
397 1 11.1266084159139 27.017687383664768 14.710707202370811 0 0 0
655 1 12.904908814112142 25.484732805191047 12.881278771378009 0 0 0
653 1 17.43896508202751 27.204301772316875 14.50179811625946 0 0 0
142 1 1.848385647535983 30.37530052917148 14.571823813399194 0 0 0
169 1 3.3505413621368 31.870020606609224 16.24299572536779 0 0 0
398 1 7.981239593782071 30.364870550826627 14.673518751243906 0 0 0
650 1 12.687630770085876 28.57690170325058 16.292918781290275 0 0 0
654 1 13.947853777974716 30.08946181407249 14.616876707391976 0 0 0
173 1 4.442052227633637 33.729457756500295 14.259469482469408 0 0 0
429 1 10.564052011568956 33.23741044168513 14.433550493276528 0 0 0
425 1 9.320243399099056 31.806004893994086 16.476122381889013 0 0 0