LAMMPS data file via write_data, version 29 Oct 2020, timestep = 100000

8546 atoms
1 atom types

-0.2697482914518332 104.54884236020327 xlo xhi
-0.13563455931373625 51.0427545593152 ylo yhi
-0.13563455931373625 51.0427545593152 zlo zhi

Masses

1 18.015

Atoms # atomic

302 1 1.4844364067554074 0.16261589900406215 1.0516247634400366 0 0 0
396 1 2.983638961645456 2.0317954100969056 2.5306349676834246 0 0 0
303 1 8.086203425734002 0.36956334437840366 1.134338290904388 0 0 0
392 1 9.925796158857867 1.7876004090157303 2.666507097620332 0 0 0
304 1 14.528551641617693 0.12768455964940173 1.001247489007644 0 0 0
402 1 15.901551004395532 2.013559982560565 2.735726419871792 0 0 0
1033 1 22.421260410973204 1.642052426763148 2.341491081506188 0 0 0
1029 1 26.803348513095354 0.7337363363263264 0.8104930551775158 0 0 0
1035 1 28.509343304356932 2.04323596898548 2.57257896601992 0 0 0
1031 1 33.01367722450298 0.15764511969026546 0.5903564057201045 0 0 0
750 1 0.17976925872382793 5.036311457762886 2.574840056839719 0 0 0
306 1 4.541275357461562 3.3403382920357503 0.8853775668429367 0 0 0
399 1 5.963932136511777 5.074800938067627 2.64443090677229 0 0 0
308 1 11.172193151869061 3.354496616271791 0.7752420867105794 0 0 0
314 1 12.664667567760592 4.879738575411743 2.1197073206253645 0 0 0
309 1 17.565151506867842 3.5528773874269493 1.0575210457104842 0 0 0
919 1 19.310176047646223 5.4027521921856545 2.3713474022104193 0 0 0
1032 1 23.828286406172175 3.609879509523474 0.7627671073358422 0 0 0
1034 1 25.12564888991163 5.329229932655045 2.1880020904446877 0 0 0
1036 1 30.391298199877085 3.656843092098605 1.0523483749554694 0 0 0
1118 1 32.07669325421319 4.941007875154452 2.444588375463454 0 0 0
310 1 1.6783245207175477 6.732262031372033 1.120121599819121 0 0 0
404 1 3.21410908669711 8.417627917191565 2.9651905668238943 0 0 0
312 1 7.840576902599956 6.49843812012935 0.9840069533448892 0 0 0
317 1 9.320607350398749 7.844037824542147 2.6241825119037303 0 0 0
313 1 14.521484735480474 6.687955313355824 0.9319578263620227 0 0 0
319 1 15.80557522115108 8.564241550671188 1.9964862087617155 0 0 0
1038 1 20.784454313158662 6.923885227813816 0.5994659665840262 0 0 0
1044 1 22.269161160874788 8.554362858939024 2.266158562270233 0 0 0
1040 1 26.979991914881882 7.062038724672157 0.8323297329205833 0 0 0
1041 1 28.87635268504678 8.622706407226987 2.7622759087407753 0 0 0
1042 1 33.54769347653842 6.696215849861907 0.5976360963147002 0 0 0
69 1 -0.17883011265632726 11.454780750144966 2.3964889800747313 0 0 0
316 1 4.797473864092905 9.635204942177396 0.9920971899319397 0 0 0
410 1 6.472389854582528 11.271976596445183 2.2434597397895835 0 0 0
318 1 10.749528080349515 9.610786891587086 0.8706311101093613 0 0 0
416 1 12.62689609157889 11.068775085016172 2.4182394993226963 0 0 0
320 1 17.715987182485858 9.931945027928286 0.6121643148862528 0 0 0
888 1 19.111928680656145 11.06926442475507 2.3253517001005157 0 0 0
1043 1 23.884243143596372 9.84908552008208 0.4745425144663843 0 0 0
1045 1 25.47682035915948 11.207851536203997 2.201305609770381 0 0 0
1046 1 30.28851683460218 9.799824185463496 0.5520393026212351 0 0 0
1132 1 31.466118295219598 11.623973256630089 2.3520930879459128 0 0 0
321 1 1.1474723473763455 12.822884643577204 0.5650516235063532 0 0 0
422 1 2.541680554880168 14.62496243748372 2.359097252975037 0 0 0
324 1 7.755754471163845 13.13399107247937 0.4617181063331046 0 0 0
418 1 9.518578140084326 14.599012729276152 2.2855265744997104 0 0 0
326 1 14.221419077418805 12.853934199957873 0.6815305911846278 0 0 0
426 1 15.87234343917337 14.517096104832843 2.343263260771106 0 0 0
1047 1 20.53930083958456 12.867846048005527 0.8476923863871348 0 0 0
1048 1 21.770501750095058 14.535231189777006 2.6009695446582026 0 0 0
1049 1 26.98719662917389 13.013338813845877 0.4536996293933918 0 0 0
1055 1 28.340452595484198 14.446961572380346 2.3672962848835075 0 0 0
1051 1 33.22663460294629 13.27976612893042 0.9880304489866385 0 0 0
25 1 -0.1626204625319575 17.778098965817282 2.520213912207818 0 0 0
327 1 4.230207370463296 16.122541834399186 0.9018994683116688 0 0 0
430 1 6.199136041836633 17.535416094275018 2.316238839415888 0 0 0
329 1 11.108446778991434 16.107924200519026 0.7957412512857106 0 0 0
432 1 12.661914234612057 17.972288220543224 2.514288626674411 0 0 0
330 1 17.341360414598284 16.227002389733915 0.7124579711711139 0 0 0
741 1 18.4803913412712 17.9027937739341 2.559379646442756 0 0 0
1053 1 23.469903762334837 16.20834970911489 1.0994567391232413 0 0 0
1057 1 25.1067199958614 17.587937307586902 2.7212609666168768 0 0 0
1054 1 30.013274551248543 16.127096918126103 0.8699249867945824 0 0 0
1141 1 31.37968666459072 18.07931405997798 2.255194806264043 0 0 0
332 1 1.365592234606415 19.27906112845563 0.8179457034974149 0 0 0
428 1 2.7364634369046588 21.056433108223544 2.5208767902902474 0 0 0
333 1 7.598401289000344 19.525268569549176 0.7700614307364603 0 0 0
334 1 14.219187203792742 19.33174700461882 0.7578403795498678 0 0 0
1056 1 20.472151873689686 19.373200457697376 1.1064489783070228 0 0 0
1058 1 26.74195905151426 19.43232746862114 0.7427632197572509 0 0 0
1061 1 33.216537169620565 19.246455627179 0.7011680150414901 0 0 0
336 1 4.54990128701558 22.525816805943627 0.9606332665895607 0 0 0
339 1 9.128645069010776 21.098755828762197 2.9106085953156144 0 0 0
340 1 10.733463210510369 22.716766609626866 1.1701846757231316 0 0 0
341 1 15.410162744077466 21.261405070336874 2.571171405930558 0 0 0
342 1 17.449766694305822 22.807343418078347 1.2034912815275527 0 0 0
1142 1 22.154807034763646 21.131561654993035 2.5522589358857264 0 0 0
1062 1 23.720636753530968 22.823872115319244 0.9931087025789913 0 0 0
1059 1 28.38441680606931 21.419823812037933 1.951453687333287 0 0 0
1063 1 30.564917579927165 22.700355962795644 0.8641348084274141 0 0 0
682 1 -0.23619141792186255 24.32818515807583 2.629647778901983 0 0 0
343 1 1.291559924225102 25.787386268532735 0.8768119022248557 0 0 0
337 1 6.091928779308314 24.478521290990827 2.995896563551514 0 0 0
344 1 7.2232653297023 25.87521123221562 0.9451920233635926 0 0 0
442 1 12.356960077091387 24.55909109925777 2.8491077782662253 0 0 0
346 1 13.810737634017858 26.12104604347338 0.9861696079781159 0 0 0
1065 1 20.518275819617884 26.028495181781402 0.901338723540946 0 0 0
774 1 18.925521901403908 24.61601945229375 2.663247641589686 0 0 0
1068 1 26.95996273675547 26.049116723576113 0.30235161919351394 0 0 0
1067 1 25.364185247741258 24.695986371762324 2.1031827828474854 0 0 0
1150 1 32.293468499847926 24.279871276050716 2.3262501977049266 0 0 0
1070 1 33.38916944796731 25.887041358740106 0.7181971985015745 0 0 0
348 1 2.737220778717754 27.795106648837702 2.1041490706125257 0 0 0
349 1 4.72610578596415 29.244757404571253 0.6237347294527267 0 0 0
350 1 9.06304979057563 27.47194744836603 2.3371810844669403 0 0 0
351 1 10.767422867697915 29.167926182951064 1.0139230953708305 0 0 0
353 1 15.516472111255384 27.40475931153423 2.6243401254012326 0 0 0
352 1 17.43989360696543 28.802098386771746 0.9403751514059291 0 0 0
1071 1 23.495969993464964 29.281940590437102 0.7159825078824656 0 0 0
1156 1 22.025788915843677 27.6072321326855 2.401014992981352 0 0 0
1158 1 28.370944630164928 27.195079448931693 2.475537386306721 0 0 0
1075 1 30.12541304652653 28.782183818521233 0.8702799068806326 0 0 0
354 1 1.4357927020091892 32.112557800554335 0.5802072210050643 0 0 0
356 1 7.866473291418087 32.46610647554082 0.5060567237003526 0 0 0
355 1 6.317523383398811 30.79994098889383 2.2822697484026593 0 0 0
358 1 14.297915225362505 32.24699981223006 0.6479818807870914 0 0 0
357 1 12.766634011102111 30.7003509871936 2.2494609227052758 0 0 0
1268 1 19.12925092861174 30.530680937542183 2.1183085034072056 0 0 0
1077 1 20.586240886484877 32.6647746257316 0.897450059878464 0 0 0
1079 1 26.927099654824797 32.345067004401635 0.5176937559078459 0 0 0
1161 1 25.35186588653982 30.687395499297885 2.1976584289249432 0 0 0
1080 1 33.306135439550815 32.05169556161507 0.48898488374458293 0 0 0
1164 1 31.48364939068973 30.728840728193102 2.0375952556978363 0 0 0
362 1 2.516663432610918 33.59839059263805 2.3087944443746893 0 0 0
361 1 4.086326109136702 35.33214095924616 0.593096735175231 0 0 0
364 1 10.879303777897444 35.38759646101451 0.2776042004394439 0 0 0
363 1 9.43738357746681 34.0377097687553 2.222731115109602 0 0 0
367 1 17.24226352184931 35.52456336667188 1.0790024517076309 0 0 0
366 1 15.663678517748334 33.84979927415784 2.5137123208552508 0 0 0
1081 1 23.82223122566621 35.77705246522228 0.8344133176152223 0 0 0
1078 1 22.366323980792757 34.08402697374398 2.391800981215399 0 0 0
1083 1 30.316201707146096 35.495440841224145 0.8002715419394251 0 0 0
1082 1 28.711672556884263 33.89269467027374 2.1975962825853523 0 0 0
368 1 1.2155738413377843 38.91790336915124 0.5192772492828182 0 0 0
370 1 5.86093671749582 36.9176640772971 1.7348513796926792 0 0 0
371 1 7.56556374316403 38.68815290198246 0.5277532233765756 0 0 0
372 1 13.771558046073196 38.84650587651345 1.067727381972795 0 0 0
365 1 12.472455951304594 36.96058115470654 2.2163538621623067 0 0 0
1086 1 20.583196010029084 38.839828822713265 0.9380608514583806 0 0 0
992 1 19.190221549747594 36.9869192137389 2.6689396197990236 0 0 0
1089 1 27.04476476240564 38.77997632109608 0.967501012798444 0 0 0
1088 1 25.367137241204595 37.16580899648881 2.474667772511687 0 0 0
1091 1 33.446155007082425 38.578815319488335 0.5759553020364544 0 0 0
1173 1 31.998307636745047 37.32745759274343 2.421386796310017 0 0 0
374 1 4.5690266008543725 42.015117388678526 0.653409651919496 0 0 0
369 1 2.9081992553352514 40.309642830829354 2.077449653084143 0 0 0
472 1 9.212291298507777 40.08571214361724 2.1961002375463847 0 0 0
375 1 10.927783989217476 41.67721305476514 0.9582464406538636 0 0 0
378 1 17.43866730738527 41.99988287938368 0.699122663200371 0 0 0
377 1 15.768756175457145 40.419364281642004 2.377124093432798 0 0 0
1092 1 24.28623810211324 41.87925363761354 0.4760604685542219 0 0 0
1087 1 22.369145254396756 40.199668232775615 2.2218919578181073 0 0 0
1095 1 30.16330808805293 41.87466677318801 0.6808173081030859 0 0 0
1093 1 28.317813796375702 40.465950793708956 2.469269014142477 0 0 0
291 1 1.2280444466580696 44.84893535810195 0.7808938845844648 0 -1 0
293 1 6.159523336603927 43.51034375909052 2.1032148642617345 0 -1 0
376 1 12.636024190767449 43.44533467922801 2.2012028007181783 0 -1 0
1021 1 20.802587863563247 44.8803513516647 0.7946743278241266 0 -1 0
796 1 19.03704740524225 43.47507054276017 2.459066856936264 0 -1 0
1023 1 27.16098749053478 44.8640275527647 1.042309861231687 0 -1 0
1094 1 25.427822552123846 43.37148084591791 2.6605980129487348 0 -1 0
1025 1 33.24889005039968 44.87910544948612 0.7250649104704274 0 -1 0
1096 1 31.77012528285062 43.38412062148847 2.4115002127443628 0 -1 0
296 1 2.835075184430987 46.70792069830863 2.1048390473558576 0 -1 0
292 1 7.512526279498432 45.38863097666645 0.7069417352134366 0 -1 0
294 1 9.182150488142193 46.57845144757035 2.5115833466314736 0 -1 0
295 1 14.139466079407079 45.421350832972394 0.72602232782001 0 -1 0
299 1 16.096868437896447 46.96640654738901 2.412057087741094 0 -1 0
1022 1 22.266723453822753 46.67445304888869 2.3235350264603887 0 -1 0
1024 1 28.709437096078943 46.8229200825565 2.2166891768161046 0 -1 0
1103 1 34.571925701436335 46.73789546106909 2.004075720443994 0 -1 0
414 1 -0.04513846848812603 49.91765742916143 2.683641496693758 0 -1 0
297 1 4.840138337445262 48.336567032453196 0.8512902411568425 0 -1 0
386 1 6.343841472275613 50.03016675806844 2.395464246471139 0 -1 0
298 1 10.719188443100212 48.29923863860777 1.0378009610901988 0 -1 0
300 1 12.590093065294289 49.88216400819088 2.551772116812622 0 -1 0
301 1 17.316978012406466 48.3011709213342 0.6399663810386731 0 -1 0
745 1 18.75631251304692 49.86151118514773 2.0071940590991706 0 -1 0
1028 1 20.66972907201056 -0.046293104231590165 0.6744108097158754 0 0 0
1026 1 23.945413235149065 48.19709599466699 0.5212544427480064 0 -1 0
1111 1 25.265921292252727 50.12749071638477 2.3063430753992065 0 -1 0
1027 1 30.313657788954803 48.3991390857071 0.691223167557969 0 -1 0
1108 1 31.742756251446508 50.00327842802966 2.4314377888478806 0 -1 0
93 1 -0.16927329643719144 1.7809177199605946 5.99501646444818 0 0 0
390 1 4.621229679919841 0.35856221589864945 4.05671964382303 0 0 0
490 1 6.596518029480128 2.0455183161890074 5.405557455404692 0 0 0
391 1 11.417031661173004 0.5536155956556005 4.1230109812878615 0 0 0
393 1 12.921815615209589 2.005785521771222 5.7050687011246 0 0 0
394 1 17.51237305235217 0.28199367927772323 4.002429462199593 0 0 0
949 1 19.170103927159804 2.0970695532892862 5.388705848402318 0 0 0
1112 1 23.84011214409281 0.3600914673695431 4.407627406893962 0 0 0
1116 1 25.419229540161986 2.1553221604981516 5.721094750032419 0 0 0
1113 1 30.215560259395303 0.4100397726174835 4.16680852376114 0 0 0
1119 1 32.01990680516226 1.8121899100576309 5.6506344923802665 0 0 0
395 1 1.2813761731074889 3.229054063633222 4.367373488234707 0 0 0
397 1 2.6674904007867744 4.777267677794294 5.980763382214512 0 0 0
398 1 8.144318881550758 3.660725643697108 3.972205304878889 0 0 0
400 1 9.78053508790007 5.188606938090902 5.719784925335003 0 0 0
401 1 14.212158786026512 3.7509717263204334 4.1235526272032255 0 0 0
408 1 15.523648920049991 5.444438013322952 5.605418794942427 0 0 0
1114 1 20.724277824350406 3.589714671128261 3.738567782955678 0 0 0
1115 1 22.136081989838203 4.834401473804422 5.6283807115909985 0 0 0
1117 1 26.62321497715685 3.860601142136455 3.952436737244512 0 0 0
1196 1 28.607996000829687 5.314507196327968 5.574950974975001 0 0 0
1120 1 33.57997325811933 3.5739820502918196 4.0319315291524696 0 0 0
65 1 -0.07853918247994221 8.09427147476369 5.511287248887296 0 0 0
405 1 4.332403573873071 6.268857086458597 4.386516224726592 0 0 0
501 1 5.682277103840325 8.179609445158597 5.762068190632791 0 0 0
406 1 11.17486014898042 6.486014970843481 4.094625179252646 0 0 0
413 1 12.429719565117678 8.313452905068058 5.7342368093759095 0 0 0
407 1 17.250536797313266 7.077952402648383 3.835658040048001 0 0 0
690 1 18.822984923346826 8.361815665954095 5.705613990411689 0 0 0
1121 1 23.418709242588545 6.677259955429347 4.031443390722545 0 0 0
1126 1 25.369553829729465 8.304304302862313 5.820592230306783 0 0 0
1122 1 30.349762027212456 6.404676284126034 3.8575520957071854 0 0 0
1207 1 31.91130044137092 8.37305209697842 5.460644711695901 0 0 0
409 1 1.2841504103156833 9.995730381139936 4.274927512457843 0 0 0
504 1 2.9577048881506633 11.73833233336789 5.612032414824729 0 0 0
411 1 7.556940996965979 9.635360936608608 4.037103804038984 0 0 0
516 1 8.914096176559497 11.197745884833687 5.744614537511975 0 0 0
412 1 14.18653666995372 9.71026765602656 3.958392762696181 0 0 0
519 1 15.70463511752659 11.369922172735885 5.620525301378392 0 0 0
1124 1 20.535320670493167 9.660263089058072 4.090858834134027 0 0 0
1131 1 22.236169027753323 11.372075791879277 5.3247127370658225 0 0 0
1127 1 26.757310276135875 9.439435124988185 3.9057388588115316 0 0 0
1134 1 28.513595390655883 11.07919767482572 5.539726312340588 0 0 0
1128 1 33.28774010720756 9.814226489417443 3.6519539974562942 0 0 0
6972 1 -0.015460821180989792 42.76759601157681 1.7945955385467312 1 -1 -2
415 1 4.486782646432744 13.022638109727852 3.7363326414585765 0 0 0
513 1 5.796485562578625 14.723294332003292 5.396735581797435 0 0 0
417 1 10.70494812745881 12.702131823563548 4.053611316513255 0 0 0
425 1 12.645635540636526 14.509934848606271 5.426836738302418 0 0 0
419 1 17.456953647907497 12.871610786396335 4.115896057851752 0 0 0
894 1 18.92905431750684 14.83974973922223 5.854388401589637 0 0 0
1130 1 23.7666902866613 12.988631435816052 3.9319095781589333 0 0 0
1139 1 25.003786043099463 14.436476544692308 5.886887707306479 0 0 0
1133 1 29.790964255137496 12.822958172213193 4.010435824943555 0 0 0
1213 1 31.564100590421663 14.677803732157967 5.329545825682581 0 0 0
421 1 1.257735746198488 16.156207122972194 4.007154314435636 0 0 0
525 1 2.7581180115067467 17.919011855368836 5.433811130994406 0 0 0
423 1 7.9932372598230135 16.041337342499425 4.1742415255698 0 0 0
528 1 9.331630335437833 17.784214382950125 5.785720149297692 0 0 0
424 1 14.282887917212115 16.20094865534821 3.9045603120307923 0 0 0
1136 1 20.242582477053748 16.358502204923106 4.014104958885512 0 0 0
1137 1 21.66547790885614 17.586987852660283 6.01399939215013 0 0 0
1138 1 26.797619017003107 15.965854583757043 4.393639225426949 0 0 0
1140 1 33.05271424859058 16.3922857576728 3.83037064331289 0 0 0
1221 1 34.442372476485424 17.849006600043676 5.592311564638833 0 0 0
429 1 4.802517666668889 19.41660419914036 3.9866343139541947 0 0 0
534 1 6.157658163045361 21.064801594559512 5.8656598087049705 0 0 0
431 1 10.874749726442342 19.5128839590705 4.352836020252889 0 0 0
437 1 12.443553147204444 21.079870332923893 5.9429342854990495 0 0 0
530 1 15.71125656288586 18.21757445974398 5.655379660672483 0 0 0
433 1 17.21857094361237 19.700428545153915 4.1428856066392665 0 0 0
1143 1 23.28197158867413 19.23027562917114 3.977844996056855 0 0 0
1223 1 24.943093771062337 20.992916841863117 5.552817036577877 0 0 0
1145 1 28.216886919296254 18.107649198186465 5.565247597181037 0 0 0
1144 1 30.100321836546875 19.921261582178474 3.778894997056071 0 0 0
434 1 1.5502787611631164 22.887233451369536 4.213260353624847 0 0 0
436 1 7.71370250983294 22.876751483790738 4.315462199702212 0 0 0
438 1 13.710057858310051 22.599969945606077 4.258537818116133 0 0 0
581 1 18.447343522214542 21.436655347905315 6.070706264069279 0 0 0
1146 1 20.144188526759667 22.628272872032298 3.985873091886564 0 0 0
1149 1 26.83675252406491 22.602588942309648 4.00545158131308 0 0 0
1151 1 33.55684641337019 22.87287754494826 3.9705540684118485 0 0 0
1225 1 31.738483088420566 21.614396503444947 5.599735779729577 0 0 0
435 1 3.0599221159081647 24.38940410530179 5.892762383286574 0 0 0
439 1 4.156873722663962 26.258109799133553 3.8993490623846645 0 0 0
441 1 9.059380708854723 24.325069300186993 6.127051082127441 0 0 0
440 1 10.30938920540329 25.7636098269868 4.074297796791448 0 0 0
536 1 15.336820871124015 24.512903706535248 5.2267077540184665 0 0 0
443 1 17.398290804373076 26.13714815976384 4.1549087133038265 0 0 0
1148 1 21.823899853696574 24.180694191595258 5.500221448625776 0 0 0
1153 1 23.672568823433526 25.699910134276386 4.075699286670974 0 0 0
1232 1 28.137888819589346 24.437490428032532 5.525558912037007 0 0 0
1154 1 30.26389094641096 25.59021304532714 3.891715003407918 0 0 0
444 1 1.2039215139814834 29.199055225273764 3.9321401020712816 0 0 0
135 1 -0.22093003945593134 27.796724070713363 5.783515190638114 0 0 0
446 1 5.903738726186044 27.798356603784743 5.381129023338598 0 0 0
447 1 7.8040562808424045 29.174675238522664 3.8605880584255887 0 0 0
449 1 11.984262038686659 27.562112593745326 5.3406854955161975 0 0 0
448 1 14.045142209260579 29.172285413376237 3.8375814288018124 0 0 0
708 1 18.717533376930955 27.730546195026992 5.667741428037969 0 0 0
1155 1 20.43733640610379 29.17960484658166 4.026938876179282 0 0 0
1236 1 24.91959591071365 27.631897878220702 5.648786588070721 0 0 0
1157 1 26.91487230050653 28.964421302960638 4.139949874221899 0 0 0
1237 1 31.697450139897708 27.47091597469574 5.37121881838053 0 0 0
1159 1 33.06432486151646 29.18891751512935 3.594125538331699 0 0 0
445 1 2.7216310017429715 30.734136684863426 5.57469364873507 0 0 0
450 1 4.476392496176648 32.27432973809099 3.9131223585484882 0 0 0
451 1 8.948673746069751 31.015895907266245 5.508817213927591 0 0 0
452 1 10.846587286077803 32.118254889646934 3.7463345733419957 0 0 0
453 1 15.81965824621231 30.5306183839669 5.3136180844303444 0 0 0
454 1 17.358830166792313 32.11949973521155 3.9402360150434905 0 0 0
1241 1 21.90890366833965 30.767341067480476 5.691301564882629 0 0 0
1160 1 23.603670193635573 32.298442456216584 3.938270133605384 0 0 0
1163 1 28.58967043509869 30.467428490768516 5.395720307212092 0 0 0
1162 1 30.27339834651885 32.52368549140729 3.9589601323885546 0 0 0
456 1 1.1562055889931877 35.53190314421828 3.7376200996575113 0 0 0
7317 1 -0.1656892678630333 8.248516988718546 24.265302514788473 1 1 1
459 1 7.563737963355614 35.60572141261016 3.5367337729335047 0 0 0
458 1 6.138091999916344 33.828427785501724 5.141446952990723 0 0 0
460 1 12.255870701787712 33.66082956218826 5.426087603754445 0 0 0
461 1 14.115603692276977 35.20704112083579 4.0678661177528666 0 0 0
1165 1 20.701764964333844 35.469258377900566 4.344893643051386 0 0 0
1020 1 19.00948341806905 33.584427258765245 5.857232378311829 0 0 0
1167 1 27.02138088545627 35.63179670921666 3.832515839730901 0 0 0
1246 1 25.488597965431875 33.778209033224414 5.3898319251116495 0 0 0
1170 1 33.60046651590141 35.59583952989205 3.9342624210837487 0 0 0
1169 1 31.87366222623519 34.30355733670518 5.5736513495457025 0 0 0
463 1 4.480279390653866 38.49706364481564 3.5945379503657167 0 0 0
457 1 2.9949057867301185 36.994437027719776 5.172353729173168 0 0 0
555 1 9.230621426932746 36.87705798240554 5.316425016273372 0 0 0
464 1 10.830212149514496 38.44871605861932 3.81592018725449 0 0 0
466 1 17.330742446879672 38.57410354951934 4.016926582012811 0 0 0
462 1 15.669401860807083 36.9476235139215 5.375610118699639 0 0 0
1171 1 23.515015015971823 38.886417980594985 4.2522722267251805 0 0 0
1166 1 22.079718583665255 36.9711383687338 5.977623917141907 0 0 0
1172 1 30.07074697732514 38.82761519151897 3.7886701306663326 0 0 0
1168 1 28.35191277582703 37.23521264251993 5.3855958579977825 0 0 0
468 1 1.292970470874883 41.4633224130527 3.9332077554233438 0 0 0
4467 1 34.66870806205297 43.47201461567782 24.369633442530017 0 -1 0
470 1 5.83239607889822 40.193929901391606 5.495453623229975 0 0 0
471 1 7.474569817523774 41.551351616634655 3.7217935654933654 0 0 0
465 1 12.338404150992943 40.28408304064445 5.59403298873237 0 0 0
473 1 14.010350329715894 42.09041276295359 3.849700668472458 0 0 0
1174 1 20.83772475378273 41.92019159825841 3.8478334481801078 0 0 0
835 1 19.068530043477438 40.258115128921844 5.499317354580926 0 0 0
1176 1 27.031783281009805 41.99301972956768 4.206142737062316 0 0 0
1175 1 25.5219148055002 40.14151053771929 5.811023656474237 0 0 0
1178 1 33.45515754763838 41.83792889003878 3.904058427460792 0 0 0
1177 1 31.72461169859439 40.34332492240344 5.496352880367536 0 0 0
469 1 2.790706246990436 43.23204228615823 5.1275880553211355 0 -1 0
379 1 4.33311130854099 44.78625854623502 3.471342605740086 0 -1 0
381 1 11.063058348300903 44.85685377805224 3.7244611898841082 0 -1 0
382 1 9.312865090653474 43.22045212947529 5.297954669847655 0 -1 0
569 1 15.874805293970336 43.95218298386005 4.701389217078377 0 -1 0
1099 1 23.698589648921818 45.01029366144897 3.8613157137492404 0 -1 0
1097 1 22.20046390984947 43.391743343792854 5.6484551428482686 0 -1 0
1258 1 28.700068844100635 43.54898496139824 5.434519798442767 0 -1 0
384 1 1.6222429840397348 48.028124081318104 4.159636596531855 0 -1 0
66 1 -0.2419377570940937 46.703358603495886 5.782663088778163 0 -1 0
380 1 5.895825055062108 46.54362412149111 5.235573771697923 0 -1 0
484 1 12.370586094068543 46.826573933677324 5.266414432348739 0 -1 0
383 1 17.97824313856797 45.54707643790811 3.817631392542796 0 -1 0
942 1 19.17734496939917 46.99003788268899 5.708218381085741 0 -1 0
1100 1 25.36791173373722 46.90401504481695 5.413494403312183 0 -1 0
1101 1 30.301772061606947 45.27065451845998 3.824889490472271 0 -1 0
1102 1 31.940606282073063 46.97955480307167 5.5553233498640635 0 -1 0
488 1 3.2677952109492847 49.72180720720694 5.7824866968403175 0 -1 0
385 1 7.722117873413913 48.318250320453714 4.002873796030151 0 -1 0
387 1 9.520997576896159 50.09107051640288 5.331006803986046 0 -1 0
388 1 14.630492346333384 48.39511387453376 4.141875186103564 0 -1 0
492 1 16.046559536379394 50.069587355461046 5.66569554256664 0 -1 0
1104 1 20.484446280830404 48.5353221393592 3.855717159012793 0 -1 0
1105 1 22.091178476191846 49.93695085549426 5.674523371363385 0 -1 0
1106 1 27.169815715654927 48.48224984712771 3.7002751640819453 0 -1 0
1107 1 28.475965892776163 50.05437608973008 5.601282832975731 0 -1 0
1109 1 33.627387203778135 48.465176394663075 3.9497411909550397 0 -1 0
487 1 1.7011814023411818 0.13799306643234988 7.260627469335174 0 0 0
582 1 3.462217017985833 1.7276417352061075 8.650622927932623 0 0 0
489 1 7.869836091515099 0.31521065701419293 6.9756381184894325 0 0 0
496 1 9.259955252645067 2.0160556733865165 8.741111810104563 0 0 0
491 1 14.49125850300567 0.38503683327182237 7.202117608084862 0 0 0
595 1 16.00016948932655 1.8926722431623624 8.594717234609432 0 0 0
1188 1 20.830009231976945 0.7031383751441662 7.14588185081183 0 0 0
1189 1 22.44865961982914 2.062466099481434 9.20472980702631 0 0 0
1190 1 27.032406025128655 0.5163146720983885 7.206524997200421 0 0 0
1191 1 28.492374523824516 2.1895253246580535 8.661622899774502 0 0 0
1192 1 33.83909614436181 0.3804788519881106 7.364091148713738 0 0 0
86 1 -0.1783793255234996 5.21446165063772 8.702408972875421 0 0 0
494 1 4.829417711596952 3.472475324132557 7.07672754416748 0 0 0
495 1 6.213684033999771 4.976557066504169 8.971178969446472 0 0 0
497 1 11.362216095677118 3.3784413958849697 7.548899800368831 0 0 0
600 1 12.63874941581679 5.373775205093948 9.184981950495443 0 0 0
498 1 17.65344480337172 3.529817820112876 7.050505340364682 0 0 0
793 1 19.212638800090417 5.130659470236866 8.689765308034376 0 0 0
1195 1 23.840405997951542 3.3408417518470706 7.461255617893243 0 0 0
1200 1 25.12944568706638 5.285696350065784 9.375283839155667 0 0 0
1197 1 30.06294575990229 3.5579079803186273 6.983885860814874 0 0 0
1201 1 31.721351992153433 5.173845429826386 8.426392270053217 0 0 0
500 1 1.4944143453610488 6.81658658053553 7.279125622049076 0 0 0
596 1 2.611464292409046 8.100616913321373 9.51524126309832 0 0 0
502 1 7.828796436498532 6.692401585015076 7.215526708984821 0 0 0
506 1 8.949397729869233 8.438110426771274 8.80240375303638 0 0 0
503 1 13.966699971948012 6.787150691655258 7.177853159298799 0 0 0
508 1 15.660691477841159 8.561334629526817 8.661551865500766 0 0 0
1198 1 20.67386160713126 6.75386424609483 6.871226094718564 0 0 0
1203 1 21.821921730827132 8.263845727999303 8.8411898636984 0 0 0
1199 1 26.873985692817307 6.775971343447032 7.55567793228063 0 0 0
1205 1 28.52807192071902 8.120466011667368 9.050801230112038 0 0 0
1202 1 33.39018837879349 6.662496669265453 7.109389263496959 0 0 0
737 1 -0.24024894216977855 11.7600900772322 8.77448657218513 0 0 0
505 1 4.118638280918676 9.71478210933762 7.437822833366545 0 0 0
514 1 5.507476643619043 11.596290812567348 8.746983855109356 0 0 0
507 1 10.523401188922715 9.80875384604111 7.138557878853944 0 0 0
517 1 12.419835458118033 11.48573095371583 8.617192486040395 0 0 0
509 1 17.51714265403304 10.195657079913927 7.390796941887731 0 0 0
800 1 19.332963432067988 11.604986864846932 8.967077911633478 0 0 0
1204 1 23.67492272516009 10.077772177181712 7.1401772197188444 0 0 0
1211 1 25.690524421580715 11.614699270699472 8.32962148504499 0 0 0
1206 1 30.21195540149903 9.649967319740272 7.2768739024733735 0 0 0
1208 1 31.387440588099725 11.819899229030632 8.446345503244268 0 0 0
512 1 1.395811807398611 13.24474521275577 7.4481824805273495 0 0 0
610 1 2.868518317900115 14.791524300516713 9.136043657053037 0 0 0
515 1 6.994136627517402 13.03345483163492 7.007368822648895 0 0 0
618 1 9.214413358915458 14.342496843527512 8.294724604610169 0 0 0
518 1 14.193051196433117 13.310669878290499 7.339897751095653 0 0 0
621 1 16.453715071679234 14.618476418300881 8.711228244492844 0 0 0
1210 1 20.81956326150507 13.295241282880058 7.010429919127612 0 0 0
1216 1 22.045338979347267 14.65878568029942 8.815836852303605 0 0 0
1212 1 27.400910196832257 13.223378529833976 7.050145227353072 0 0 0
1220 1 28.380825634351478 14.89175376586484 8.497522355849695 0 0 0
1214 1 33.298193704811816 13.302085427941545 6.89496762613906 0 0 0
37 1 -0.2356991637526992 17.94887208514805 8.428826092296607 0 0 0
520 1 4.334346913908768 16.204030957124104 7.203301784325712 0 0 0
527 1 5.96948146606428 17.89256740830207 8.991668893605995 0 0 0
521 1 10.961044818917612 16.024888479795905 7.040285961561812 0 0 0
629 1 12.37709840147334 17.47506397550677 8.891093778372838 0 0 0
522 1 17.64943043726488 16.653609250472677 6.960933953513014 0 0 0
815 1 18.956455729864214 17.890211435568393 8.767382180053295 0 0 0
1217 1 23.548516306141984 16.35512898473333 7.087408695920236 0 0 0
1218 1 25.39341688731938 17.993714095165526 8.805894985938567 0 0 0
1219 1 30.195872701879907 16.7330364603861 6.955909020102364 0 0 0
523 1 1.3020132134658804 19.51179540426048 6.913888354639053 0 0 0
524 1 2.926408020872124 20.965047324047976 8.549740233252725 0 0 0
526 1 7.899391696702098 19.577839285912688 7.347182894027726 0 0 0
529 1 13.9192487234135 19.500788976776466 7.7208983934392466 0 0 0
635 1 15.873602572989714 20.982236815468337 8.679389414590906 0 0 0
1222 1 20.439757227293242 19.72352565645607 7.638453836930895 0 0 0
1224 1 26.716352359673436 19.729554911513194 7.0766816411028115 0 0 0
1294 1 31.740270761994303 18.271938524907554 8.724219091843748 0 0 0
1226 1 33.07730641939286 19.851330571845835 7.047388748729284 0 0 0
533 1 4.636399281857817 22.87056720964156 7.4165158816592545 0 0 0
633 1 9.174534834962975 21.12050964478817 9.388290506214863 0 0 0
535 1 10.491569109022265 22.63555783999218 7.541203331868044 0 0 0
537 1 16.670083173691516 23.209481502459212 7.202606555646647 0 0 0
1299 1 22.129088492395987 21.265246578683033 9.29031591065225 0 0 0
1228 1 23.550621257780115 22.770459608484508 7.194882235813136 0 0 0
1297 1 28.08817486504001 21.435793034281176 8.513879830187344 0 0 0
1229 1 29.871185533169303 22.95181356962289 7.063240945374204 0 0 0
538 1 1.27947145661377 26.039917893740082 7.2373909300312445 0 0 0
203 1 -0.06045747207443217 24.535826373343482 8.600203561836434 0 0 0
539 1 7.556334089496624 26.204689597562282 7.331370851203773 0 0 0
540 1 6.1258968018452 24.596855195712603 9.261301543195698 0 0 0
639 1 12.12391963155148 24.59221167340499 8.982892191155644 0 0 0
541 1 13.720171612644885 26.180468051709084 6.839676622764477 0 0 0