LAMMPS data file via write_data, version 29 Oct 2020, timestep = 200000

4608 atoms
1 atom types

0.02693650748997456 53.37306349250975 xlo xhi
0.010578676541921794 50.89654132345908 ylo yhi
0.010578676541921794 50.89654132345908 zlo zhi

Masses

1 18.015

Atoms # atomic

25 1 2.025800554739407 1.2582782804990986 3.773305053327603 -1 1 0
4269 1 6.466458042157269 18.073326485205424 2.1402475696668373 1 -1 1
3167 1 7.016611053244747 4.854308225615641 3.495738025725884 0 1 0
951 1 0.3495465627794275 25.654671197175322 2.531242885971389 0 0 0
1821 1 1.8836366775443945 35.55699724050075 4.659832160147713 1 -2 0
3732 1 4.544522939428726 30.228649658016298 14.18986932306117 1 0 0
1196 1 14.899046585095304 2.2296000952378066 1.1680825226065965 1 0 1
797 1 0.8535209615792875 26.649768625730868 16.010170740112244 0 -1 0
716 1 0.9040174928382397 16.64282658729862 25.222764903095005 0 1 1
511 1 3.4920867491152974 7.929485400718158 2.4320907699817425 0 -1 0
803 1 8.818267216624907 19.356627343899667 1.7373431484905373 1 0 1
1708 1 13.373027132461875 5.968921750313606 0.2629814268697808 1 1 0
158 1 10.877398647147903 3.5223373986678044 1.317140377760861 0 1 0
1219 1 6.900899894401234 31.76448831829535 23.862813756932788 1 0 0
1388 1 1.2312202326015944 4.930979716923515 4.287754039621472 0 2 1
1999 1 8.526208763806865 11.947235124534584 24.58015188383881 0 0 -1
1295 1 2.0171061747637395 6.38731444426567 0.46022494947668363 0 1 1
2869 1 7.488689855803671 21.860328583997664 1.4922146085437482 0 0 1
1639 1 4.104575410620877 34.14616488151509 4.626908296253268 2 -1 0
4510 1 12.948667254408306 13.659254045639008 2.1855172750247656 1 -1 1
3847 1 9.224716739125679 16.21772707783193 2.766154370983922 1 1 1
3302 1 4.413391606690398 13.94497059254871 24.4472940409154 2 0 0
3931 1 13.363691287337918 10.847843018691352 5.556767350261427 1 1 1
3469 1 12.84797255847799 10.575273776813233 1.4429173051548736 1 1 0
2338 1 17.25960512929739 12.171578368613217 2.6233373942391327 1 1 0
1164 1 2.0707547138487956 11.850266049112022 2.432256755684437 0 0 2
3740 1 3.87036411148158 13.34723814065138 4.1727235058282375 1 1 0
2386 1 3.637521112863697 12.55722268485661 7.421348412906015 0 0 -1
1612 1 6.84885672128679 14.951894802050456 7.08649259224087 0 1 1
3959 1 6.248548674094352 13.62911344197995 2.7990985101895816 2 1 0
1400 1 13.897255487041711 17.196752264875677 0.18835290431545593 0 1 0
3161 1 7.874964453005052 14.093908077925253 4.778454709948014 2 0 2
1518 1 15.072340054680467 16.021122638287302 3.549260512283965 0 0 2
975 1 2.655278910583107 22.08078825241419 13.875612684492175 0 1 1
2383 1 9.36212199985195 14.396493372712492 10.440663600708838 0 2 1
155 1 11.975614738192647 16.299093514048337 2.6562609265265396 0 0 0
2039 1 2.517009197663823 49.07458616562592 4.642386618919248 0 -1 0
3360 1 3.30022443443618 22.424654833052536 3.1607646737726407 -1 0 1
2314 1 7.925768125342171 27.049190302912024 2.2189826743552534 0 -1 2
3980 1 2.157364193007666 49.55298477931265 7.150638244977561 1 0 0
3345 1 10.268391417537119 19.655977604311584 3.998906649499349 0 0 1
1422 1 13.323163251964024 21.641891844248313 0.7512385783671636 -1 0 1
3766 1 0.8080219077077424 25.443247962480136 13.08032997049986 1 1 1
3646 1 3.2052166397614594 24.983423308577443 2.768728067424533 1 1 0
4587 1 2.98246105505846 40.139468436485416 22.295847889116214 1 -1 1
160 1 12.464733614139337 25.60734614598083 2.566913475854325 0 0 0
1432 1 1.7990805545726032 29.499411777466385 1.4833787971849164 -1 0 2
3199 1 1.437138366376105 3.3930455558652337 1.989053585741522 2 -1 1
1741 1 1.5992652589445635 22.26201890921741 21.91484102848049 1 0 0
577 1 5.203200452488992 26.24629484698259 1.263844982928505 -1 0 0
2714 1 1.850457435546899 41.71531606430645 8.324827522467489 1 0 1
550 1 9.068937768574733 33.51698944319433 24.78783012048172 0 0 0
4048 1 14.330705061568747 33.38190942316281 0.8957348900002581 1 0 1
1644 1 15.897192871424204 22.610204318860806 0.014364446540782247 0 -1 1
4121 1 15.574821919023947 18.191292363965314 22.097808935166825 1 0 1
3179 1 0.1791173120432189 23.398667708634626 8.01288954940766 2 1 -1
626 1 0.1275360035367364 44.413934412812395 11.589896643897893 -1 -1 0
2459 1 17.162902691019294 26.0577979348047 9.371795233821969 1 -1 0
3905 1 16.45036941662053 9.585321313230143 24.13462544175714 1 -1 1
982 1 0.5937145125264552 16.72972240986763 8.752715582583642 0 1 2
3641 1 0.25701616408549016 7.816543824639564 7.943396797723982 1 0 -1
2901 1 1.1537360988453869 30.297516665772037 4.042002494960065 0 0 2
2694 1 11.832136275787041 34.6435418960031 0.15337397713217463 0 0 1
2763 1 16.821633438204053 45.61949705506099 3.7080962716756773 0 0 0
1756 1 0.7454713325463116 45.58697570806805 20.67799249906224 0 0 0
3863 1 15.29609160974342 33.90918858698427 24.345880850880278 0 0 -1
2286 1 9.873492176037821 38.271609646532696 1.758153217235214 0 -1 1
225 1 0.23247801948077546 25.529799924529602 5.382207509979162 -1 0 1
2667 1 16.325968086503824 49.5275692334877 22.200501158268516 0 0 0
896 1 14.929849011109077 27.18156090169158 17.858183426236014 0 -1 1
2863 1 6.099091086173106 41.11261887327328 3.0928430743980386 1 1 0
40 1 1.5367141462222558 36.87833868375948 2.0302404822028253 0 1 0
2950 1 10.996797627204064 40.38801685204008 2.9459748092594724 0 0 1
3753 1 1.7814032057307587 0.37200809713389943 0.9286888361589959 1 0 0
3512 1 0.41078981570033446 37.54411074000346 14.233356801332386 1 -1 1
473 1 1.2705433597130031 20.085063171955234 24.481031788786208 0 0 -1
2678 1 13.441840489841129 15.234623461188349 25.060177463057236 0 0 0
1867 1 12.013236996407109 43.35142372786818 2.332549970421821 0 -1 -1
4457 1 5.41016579747945 48.609234541288075 0.7990575722661505 1 0 1
654 1 0.436647177630022 49.4509566169326 14.000341252666427 0 0 0
4371 1 7.082819428061026 45.35228138560841 0.8561058641493919 1 0 1
836 1 5.070076674025055 16.976314310320173 24.885412215888397 0 0 1
68 1 17.52996214840023 4.381861417665667 2.25503336309204 -1 -1 1
4385 1 0.03431124636904315 26.415558841858235 10.512154334610006 1 1 1
678 1 0.7900405278685958 12.358123659755103 25.309839373138026 0 0 0
1233 1 1.4920457078734182 22.732145290476748 5.437062502938955 0 0 2
414 1 15.479045424072236 48.56936575496627 2.771324963383879 0 -1 1
98 1 0.28896373773919043 49.038716998818515 1.7798683590807545 0 -2 1
1799 1 14.522892748840508 47.21014800670558 21.69464725933506 0 0 -1
477 1 9.220367455611536 1.2040347579901598 1.4909003763543351 0 2 0
1739 1 3.6040336717768944 3.650319807925811 23.612486946232437 0 1 0
2195 1 0.5058657831470543 19.044203256096488 1.9112366996735877 1 0 1
90 1 0.40492396861075336 6.400294610968899 24.8637612503317 1 0 0
2093 1 5.010205091470021 2.877319157152836 3.4941308202915033 1 0 -1
4270 1 6.400449718998527 0.38709027330103235 4.35534888257052 1 1 0
3932 1 7.0458279508861 50.40157226297687 7.152591257458796 0 -1 -1
1506 1 3.4876358218734187 6.023480892680666 7.096327312642638 0 1 1
4362 1 9.226776554493286 0.16467790278147496 4.089010084185377 0 0 1
2855 1 16.886642542826042 2.697116457071558 4.588276364558517 -1 0 1
2177 1 17.736866750835357 9.676391939739979 5.0388918083180885 0 1 0
3214 1 16.661049175586367 18.572877825403943 24.707813607103816 0 0 0
3257 1 3.808947928459941 22.432105087368043 25.074312166313977 2 0 -1
682 1 3.352274775548353 3.146183310808694 6.0287087441414595 2 0 1
4567 1 8.77334981728435 3.7824308993150204 5.69213469722764 1 0 0
179 1 15.1281628927985 10.44602534767249 3.304770084760361 1 1 -1
4332 1 14.132963508118067 4.402167048955913 2.5425318906177146 1 0 1
1356 1 8.791203400398086 7.624432610123831 0.9227641066538974 0 1 1
4220 1 6.2830464710226375 7.616322025029051 2.7205609324058475 1 0 1
2530 1 7.892219495467635 8.070608585824896 5.119216119395955 1 0 1
4096 1 16.60361045426464 16.81110447389951 1.0684328191435193 1 0 0
1364 1 2.1443110307357007 7.690001292685205 5.265727933248355 0 2 -2
1280 1 3.848275792706086 10.28848602247103 4.7185803072613295 0 -1 0
2295 1 6.124855183057503 9.592651678878394 6.611788231771073 1 1 2
3078 1 6.0122440876421015 10.859303194494014 2.5089762499870614 0 0 -1
3865 1 14.958408631737338 13.362063923268932 4.60345792770195 0 -1 0
3956 1 10.444370941785348 10.412562829582717 4.785461677926485 1 1 1
1536 1 13.21487538715222 14.01595387449473 6.7475852001012155 1 2 1
356 1 17.130439486067957 30.991082535219626 2.657483571674926 0 0 0
1032 1 3.8045607280136973 17.098685762187305 13.60098272318076 0 1 0
3033 1 8.893051786560376 16.076403502882307 8.187891575250465 1 0 0
3075 1 4.1803225674383935 18.684173601061804 11.1902565410577 0 0 0
601 1 10.198864882138134 13.690669548282441 6.958114889763941 0 -1 0
1399 1 14.471964146077914 18.968501496352545 3.0378186506339886 -1 1 1
3788 1 17.373875456039467 29.638143941983422 22.06792155732272 0 -1 -1
3311 1 1.383769879027782 29.076980133644017 15.257343558116323 0 0 0
691 1 2.7259169114420767 15.831238832078123 4.759488767714078 1 0 1
3036 1 6.3030361915420405 18.959622360600957 4.890242480516596 1 0 0
49 1 8.817087236358233 17.175734313589903 5.351253632536031 1 -1 0
2883 1 11.41008840669122 17.530082358016625 8.713843747996878 -1 0 0
3178 1 15.126163355247103 21.513924919563472 5.591077737075121 1 -1 0
1449 1 11.550758058348574 17.764572374202558 5.608759758646036 -1 1 0
1576 1 4.897059021862163 22.30741842509063 5.635223970158938 0 0 1
3085 1 4.939030610185102 19.82727115155341 7.179988855162411 1 1 -1
2324 1 8.392944416059395 20.62682794073437 5.951485331811372 0 0 0
2669 1 7.264725669077185 22.69833346453405 4.342635278924357 0 -1 -1
3924 1 12.594074544816195 21.103606106099356 3.526277539554506 0 0 0
4335 1 12.305873174644637 23.815652544552474 4.711595310704019 0 0 1
3203 1 16.720826476585877 29.150473698153263 0.3979827825100437 1 0 0
1605 1 6.212896581496575 25.3175909010567 4.0383636203993944 0 0 -1
2318 1 9.617161285739584 24.65040073037662 2.4740286194244305 -1 0 1
1823 1 15.34684803680815 41.8776557840491 0.7721870885881047 -1 -1 1
4120 1 9.686538561693169 24.06980170751789 5.47751866865232 1 0 0
2715 1 15.857794194232374 26.349694320915198 0.4008133947116953 0 0 1
1339 1 16.821693772674596 20.472547700594728 20.79244716524462 -1 -1 1
3442 1 4.483513423837502 28.860799815614207 1.8447293972710144 1 0 1
1473 1 8.748128816277536 30.42419829502654 6.018969446783526 -1 0 1
3332 1 8.3200776574197 31.464539485019195 3.262143679802902 1 0 0
1072 1 9.757856148042876 29.24367391630492 1.8811228382587568 -1 0 1
1832 1 7.427974809940478 25.702146993664872 6.800923491246705 0 0 1
728 1 11.36336436749373 27.789691586021814 3.64842586659785 0 -1 -1
3705 1 13.103014330511558 29.463328747088923 4.852354092412386 0 0 1
1943 1 15.121227622966183 26.257867785724642 3.4426728911706426 -1 0 1
2401 1 5.724488447944954 31.290953019083112 2.580891648286095 0 0 1
2376 1 15.052469595780758 17.47017397963083 7.731338767127237 0 2 1
1155 1 16.2654787159733 30.699379200293684 8.956913748871834 0 -1 1
611 1 3.30505627637584 33.140233370012496 2.166798053975611 1 0 0
3754 1 5.759309129629073 34.332717132179155 1.4441073236442505 2 0 1
2959 1 8.691505056403942 34.00720171430389 2.2259077895286037 0 -1 1
1198 1 2.035984709151182 34.499252934033734 9.16262345201737 -1 0 1
1244 1 11.217890139912809 32.362085219358875 1.6870549305211497 0 0 0
3038 1 11.624993940942455 33.12947040167326 4.490196051593513 0 0 0
4071 1 12.590928397146078 36.42008581695407 2.447454930329479 0 -1 2
2642 1 4.149435858967028 18.546422017325305 0.41519032085168117 1 0 0
3404 1 5.705685501878522 36.25473745129001 3.576232128797181 1 -1 0
4334 1 9.644865393182524 34.89648586375493 4.964145483322753 1 -1 0
1411 1 12.147388047030308 38.19611157236574 4.665090759554062 0 1 1
1614 1 11.216960574068933 36.37970090563202 6.911861966655094 -1 0 0
85 1 4.1314414697264565 38.845615840982305 2.574600550601535 0 0 1
4298 1 5.491135373548786 40.453703217999134 11.27041097206514 1 -1 1
2610 1 8.367146755962246 37.08303297814729 3.6903473903418194 1 0 0
231 1 8.814066834385981 41.86612529299194 4.121354941836352 0 -1 0
3136 1 14.751109013448593 38.878358556963946 4.116191722324264 2 0 0
783 1 15.595189596510805 37.39736464538005 1.6182347215391992 -2 1 0
2493 1 4.387888401338321 42.1958345869313 5.289328146464698 0 -1 1
842 1 7.59534547514913 39.335939082460214 5.430611287798979 1 -1 1
1843 1 8.842000829012242 43.243432373601266 6.65936475674866 1 -1 0
1403 1 12.14180812406528 45.60432237652623 3.918376656023979 -1 0 0
3256 1 14.244516666876837 41.666097944344074 3.4895757517673007 0 -1 0
782 1 11.182192329427195 41.43441256640254 7.691088543917214 -1 1 1
2183 1 3.138436092448792 44.220782090556625 20.326921324192607 0 0 -1
1429 1 9.485692456410533 45.02621264967648 4.418675831933098 1 -1 0
397 1 11.363692996347455 50.16618230639652 1.4474935501148687 0 -1 0
1240 1 14.21643545620381 45.996064690121116 2.163589136418344 0 -1 0
275 1 0.42390989712194166 13.73161334304037 8.946814834874061 0 0 0
684 1 2.367448006265453 46.90355738904938 0.7752109760688863 2 -2 0
1807 1 4.682371144630586 46.55961604846638 2.843457767283098 1 -1 1
2521 1 7.718009284474723 47.57080144201946 2.4084525432647617 1 -2 0
2205 1 7.056908187191771 46.93221736072074 5.412950469645591 0 -1 0
1191 1 12.068849558937078 48.57372882905314 6.744702420757383 0 -1 0
593 1 14.010866074669336 50.44804303510216 1.2187072051100654 0 -1 0
2692 1 1.3921653470441075 5.076527804911428 8.835745353613628 0 1 1
2482 1 1.740302580711584 1.446758114578729 7.614292408103667 0 0 1
1014 1 8.564254254341042 1.8703196667400779 7.813345117096883 -1 0 0
3623 1 11.439888281444427 3.821997779371846 4.143120903501967 1 2 1
2872 1 8.480893795384741 3.6818467721214843 10.251392089892093 0 1 0
770 1 13.980263366693483 3.284552977582644 5.536055102023694 0 0 0
949 1 0.036856413745909436 22.714746519875316 13.046960346786781 0 1 0
3132 1 1.11117187988846 7.066241444106017 10.947354026053569 1 0 1
3106 1 0.990117061753322 11.363937789552851 11.535657550836046 1 1 0
2423 1 5.6235219290692005 2.172103554408037 7.8176266685755005 1 0 0
317 1 11.117180896066856 1.3176172529273615 5.885446695744274 -1 1 0
3544 1 12.152185931626002 7.956710356046408 4.0813764387858145 0 0 -1
84 1 16.177765367935123 7.914967411139913 2.5743905283772572 0 0 1
2866 1 4.48960390054507 8.386432146913045 8.372822528722956 0 1 1
4305 1 12.035641398948222 8.699645094885543 11.222524275730247 1 0 -1
2065 1 10.43979458370981 6.312260048612678 5.363323266209769 1 0 -1
1503 1 14.913683082024896 6.216023900973978 4.60803054105075 -1 0 1
2741 1 15.781040629936122 10.378114166192425 7.1055372677207 0 0 2
644 1 4.808532789039682 33.32783772193942 24.938641085797528 -1 -1 0
3426 1 3.228799556174889 14.220744250398592 9.367731991384524 2 0 1
1838 1 6.67502903622572 6.482511071841109 9.420479218045948 -1 0 0
2 1 6.455316935629168 12.436784769402916 7.881975325805903 1 1 0
1692 1 13.524042701325437 15.719520288399377 9.727407138345932 1 0 0
2333 1 10.156145870383526 11.163331858837953 8.03822475887114 0 1 1
2418 1 14.808291792989335 13.4858899384031 8.994214639400013 1 0 0
2148 1 14.130028194019458 30.558977242718434 0.7705528630004831 1 1 -1
3495 1 4.718991695534912 16.66472216095115 6.317372960126027 1 0 1
643 1 8.446549282410738 10.349518116373087 12.167754393401436 -1 0 0
1934 1 7.995982860772805 9.63847354930756 9.029805239820204 1 0 0
1591 1 10.699194284038223 11.852639860968031 10.7172594659724 1 0 -1
724 1 12.775636547124817 11.738253792465194 12.590319662571197 0 1 -1
1582 1 0.5632089301900077 8.94652058068629 2.3765289041515385 0 2 0
4105 1 13.260015659279016 39.50768823929316 1.1818025132388068 1 0 1
1436 1 3.758661876342112 16.816179388127637 9.0121412094823 0 1 1
4188 1 6.8669344496573546 12.644040063614217 10.456817843902133 0 1 0
3668 1 6.614320564505626 15.094720337225512 12.38512577039728 1 1 1
3201 1 16.142850154497943 43.7223063636514 23.800583974821123 2 -1 -1
1150 1 2.1560561628045702 20.692503398680625 7.33806017444961 -1 -1 1
2623 1 1.4598048154317342 19.69978066712732 9.985594075848589 0 -1 1
2988 1 8.073763330482322 19.27353075957326 8.676132063784198 0 0 0
2116 1 9.871154979218403 24.002488347702464 10.212065308737483 1 -1 0
297 1 13.404953962514005 19.73697284733348 6.557161388950116 0 1 0
3507 1 12.920129488147984 20.375348741015664 9.230683398835868 0 0 1
2628 1 13.780984744690453 23.03684844813155 9.44075709404786 -1 0 0
3145 1 2.860185062256779 22.83061220860394 9.412733190432604 1 -1 2
3593 1 5.948080854968461 21.597541622058298 9.427216324766167 1 0 0
988 1 4.564667167155725 24.387804646680568 7.5284643306009205 -1 0 0
2674 1 13.365920931026887 26.02231958807772 6.055934191909439 1 -1 0
2303 1 1.6259170302312946 25.7432604469316 8.208270176184925 1 0 1
1408 1 4.82323178785851 28.68017477535499 4.9788146782652944 0 0 1
773 1 3.7533717772063175 28.108578118229797 8.39784965365439 0 1 1
2113 1 11.578107382252675 30.753136320126842 6.245849666088216 0 0 0
3749 1 10.974019484632104 27.956784308748855 8.812313443806984 1 -1 0
4078 1 8.093086812057821 23.09326390960887 8.100121955272105 0 0 1
706 1 2.0000462235973653 30.852163845631683 9.157222000520276 -1 -1 0
3877 1 3.783808996796039 31.16099125957413 4.651126613259927 2 0 1
3444 1 10.871070768735143 30.893617252972504 9.43852045108774 2 -1 1
2680 1 11.707127803886012 29.734991075289678 12.225562390262262 0 1 0
974 1 14.36157431488106 31.44126375535484 3.5746845187023384 0 1 1
3635 1 14.617032888141003 28.839656485150503 6.853462108241097 1 0 0
4477 1 17.126877050227375 41.128979723827015 24.8638615199215 1 -1 -1
3777 1 2.108400937502143 32.595971808138856 6.958849572469504 1 0 0
3553 1 6.803301379105641 28.978039341339006 6.992391607929528 1 0 1
1837 1 13.69886192056456 31.6770315128728 7.796329027273648 0 -1 0
2562 1 14.125490395467603 34.43032266670001 3.6682236185706327 0 0 1
4074 1 14.607387320782822 31.79121255123408 13.959592196262788 0 -1 0
2899 1 14.046187826606232 34.22720300320394 6.890040046326815 0 0 0
3855 1 2.3211024408175644 37.015306870427935 8.021538419228202 1 0 1
1192 1 5.591212621408686 33.44406151117461 6.916516747376107 0 0 1
787 1 5.5709573699336055 31.158614844650362 8.467620226998005 0 -1 1
355 1 6.455623458599917 35.410537988024345 8.602422442040712 0 -1 0
3204 1 9.298978701022092 34.946914857773066 8.813135397828187 1 0 -1
1431 1 10.303705897968316 35.45301287608824 11.467573995624905 1 0 -1
1524 1 13.889633688437428 36.38581611705192 8.83931026267468 1 -1 -1
2671 1 4.074341519357697 10.550894920822913 0.5880693392775915 0 0 1
436 1 3.729409223864742 37.682702009297486 5.525064236958513 0 -1 0
4536 1 5.563763339093895 38.06491347679608 7.910034545311517 0 0 2
2569 1 8.620395475696458 38.08197955134706 9.189466615873743 1 0 0
594 1 9.85676796062992 39.05888864089404 6.864248215896697 -1 0 0
3221 1 13.37131342038622 40.75164085249375 9.23115145465512 1 0 0
1594 1 15.24930140548566 38.81572100704602 8.706273920676761 0 -1 0
124 1 16.51159022098745 39.10245244983312 6.237220824471213 0 0 0
3687 1 8.306973015688964 4.64564998067505 1.0510178065129918 0 0 -1
2584 1 6.0828103498285575 43.34448724753332 7.531047308156992 0 -1 0
1545 1 7.1935323613980815 40.676816400733614 8.677000888077476 0 1 -1
663 1 9.1056188896159 42.46488182886692 9.705257892709861 1 -1 -1
1252 1 16.663199088322344 32.1351186040002 11.483493144104559 0 0 0
1480 1 16.545168740630174 49.54898212756801 6.23502876154025 0 -1 0
277 1 2.4237735447087063 43.60674088847722 3.6820695242890387 1 1 0
1466 1 10.434761449415054 48.46830531175324 3.5019641963156087 -1 1 0
4383 1 14.51159269269636 44.874158409224634 7.219232027293585 1 -1 0
2837 1 5.094935600769482 45.9306904042422 7.061866189608993 1 0 2
3392 1 14.752440691438432 24.986337568967343 19.82338950114594 0 0 0
34 1 9.44572480587556 48.8236375860951 6.220216507636808 0 -1 1
3726 1 2.2066807037257457 46.34976878433524 4.751957500905496 0 0 1
2786 1 9.37550125102367 50.107413673993165 9.182253807484958 2 -1 1
2028 1 11.935288915651519 49.571465036104016 9.46575627192678 0 1 0
3859 1 13.472283501584814 50.81317647892439 6.447778996604024 1 0 2
350 1 4.102862627362919 0.7895040844683768 9.413685853922228 -1 1 0
3636 1 4.071902938703701 47.244021618298106 10.693443984255113 0 -1 1
3387 1 10.009270962675902 3.3327630654900045 13.241226931480671 1 0 1
3463 1 5.8688033498874805 50.000080578904445 11.577276933462292 0 0 0
2542 1 4.469015886635312 49.170147049202455 8.649147145798839 1 -1 1
3040 1 11.309561369727172 1.750129247443549 11.422126592527865 0 1 0
4068 1 3.7667321709632624 43.286538897595875 23.15831204314709 0 0 0
4147 1 5.713310149499158 1.786257487566369 12.163187036424665 0 1 1
1441 1 3.246829402210213 8.969470283057824 11.086455752835047 0 -1 1
3963 1 5.504020236190821 3.9798392699883753 9.889933895858562 0 0 0
3013 1 11.454318428939668 2.660088573827918 8.538523095778631 0 -1 1
3020 1 16.35622957128341 36.77412374365113 24.678835780974953 0 -1 0
2410 1 15.899199274206257 6.129293537521101 7.061174262891872 0 1 0
3694 1 6.233494030896817 8.656832803053382 11.416500534400411 0 1 1
3768 1 6.584799816540346 5.949812351278257 6.4016950082543165 1 -1 0
3291 1 10.97041383726918 6.490688141541289 8.105887737789583 -1 0 0
3386 1 13.493513400403529 5.264838223366988 8.556035113311777 0 0 1
3533 1 13.906566842708324 11.09456610938844 9.94322054014022 0 -1 0
4052 1 12.314358954664293 9.32109892390663 8.005746710473568 -1 1 0
2041 1 11.876773032174341 8.359503841908534 13.93683779994964 -1 -1 0
762 1 15.437951044084084 8.984951241570561 11.2067509290771 0 0 0
390 1 4.049179066579633 12.268525169771811 11.071338480905577 0 1 2
2819 1 4.92462508815586 12.46532374376233 13.878215708678683 1 0 1
3679 1 13.123910741435319 11.47597367896292 17.30401713981479 1 0 1
4352 1 15.349084858556665 11.230828355637032 13.937859827550092 0 0 0
2232 1 1.4594946833179532 0.8986508555994317 12.77015994380489 1 0 0
1115 1 0.8036899850059036 34.47927656409277 14.4255680659213 1 0 1
1185 1 2.748861794870089 14.81260872211438 12.355241107801113 0 0 1
1368 1 8.855492835106352 14.085747292928236 14.586352542328534 0 0 0
983 1 11.285606723527266 12.057185127378153 15.28395831687244 0 0 1
3073 1 11.470791546528682 8.014073157460908 1.4286852423644143 1 1 1
3743 1 6.983059557546416 41.11478487046166 0.28573557796129434 0 1 2
796 1 2.451276127461555 24.96828949568259 25.15702391339181 0 1 1
2106 1 7.061533654404995 17.37773074857036 10.844624112279556 -1 1 0
4582 1 3.2402713915728403 18.356425975176485 16.48261013928605 0 0 0
3110 1 7.090768708967027 18.879349110621483 13.349817678256594 0 1 -2
4526 1 10.05395136452139 17.830234196511277 11.505458271043087 1 0 0
3683 1 15.910399672765497 19.258724671372402 9.615118974458106 1 0 -1
3793 1 9.35123203036356 43.84520585381601 1.7165322563721632 0 1 0
1588 1 2.2246733012934032 0.774452093542696 23.012709647956655 0 0 -1
3117 1 3.7771179309714125 20.99140528512591 18.04266648438491 1 1 1
503 1 9.231735928224852 20.945998784205603 12.784681164367198 0 0 1
3187 1 12.664779320617653 15.794016082464818 12.575981053976733 0 0 0
1488 1 14.632892314319633 20.39039967974805 12.023036053712167 -1 1 -1
1208 1 10.479386110126107 12.2557610684376 2.601006285906184 1 1 0
1386 1 4.980480170339693 20.752156591174295 13.23434720950977 0 1 0
407 1 8.67970180879203 26.401934812508333 9.434837748986538 0 0 1
517 1 10.17248034272044 20.705883309628422 10.379850110084364 0 -1 0
4128 1 14.818748709748913 23.19167319738204 12.436648974464008 1 0 0
4392 1 16.906645946809487 22.068813324266525 23.25931767497795 0 0 0
1603 1 15.526072493405588 21.20875972393376 16.559467936363667 0 0 0
3151 1 5.681493009961064 26.416537360513274 9.631495980089353 1 -1 1
4417 1 5.6404203620866875 24.83567215407694 11.878406955853587 0 0 1
2956 1 12.916560590685664 25.354325850729275 12.604622223883654 0 0 -1
3388 1 10.5011929792766 26.8354343277014 6.328029767813066 1 -1 0
3928 1 13.075996750917051 27.21879538349771 10.58116548110629 1 -1 1
3595 1 14.47782400514433 25.677388484345766 8.48261007932288 0 1 -1
1068 1 7.458549134590526 26.899498069495618 24.74790569579332 0 0 -1
2031 1 9.725173112835233 27.921604976554438 12.334037686143068 1 0 0
1602 1 10.821691741868399 30.489390148796204 15.4105161466325 1 -1 0
4130 1 7.088151130202586 31.324199968771925 16.2556886548434 1 0 2
1090 1 14.307665589209318 29.022990624357877 13.679066027923314 -1 0 0
1787 1 1.8937528920868987 2.524271359318395 10.354185620660502 1 0 0
2672 1 4.997522609597466 32.425992041361454 11.492727404139668 0 0 1
332 1 8.284717455484818 31.943723365643084 9.173219456973456 0 0 0
3575 1 6.399043759964669 28.866572396169687 10.560125887169619 1 -1 1
318 1 8.241857140992021 33.23391340665569 6.216493751784648 0 0 1
3244 1 8.391499509340019 31.737268086424024 11.787275570493836 0 1 -1
3264 1 13.43259152411433 29.80154236386159 16.14216324189234 1 0 -1
3363 1 15.428466128029893 34.67855495332829 10.684260674972712 1 0 -1
904 1 2.202559889464758 37.54316309141622 11.99832095405785 1 -1 0
2932 1 4.735968428232863 37.12145223566395 13.143009597883285 1 0 1
4201 1 6.709455128592357 33.06496322739301 13.76707298557344 1 0 1
3761 1 7.742542872528747 38.8612220269229 11.740344511687255 1 1 1
2104 1 12.779772947638659 33.371718582872944 10.157233793138396 0 0 1
238 1 3.680588023480497 39.205809190181625 9.64851601287802 1 0 -1
4084 1 4.43643627356814 34.986089733649166 10.58381859563016 1 0 0
3238 1 6.2027323358883955 43.18584966746617 13.544651590914185 1 -1 1
3378 1 9.768812319024335 40.832032046197995 11.526105087234786 1 -1 0
2735 1 17.57637925336281 39.32123461700462 10.33600620722632 -1 1 0
1098 1 3.2464860524301598 42.74357751887281 10.744064521268644 0 0 2
2094 1 13.196206177926644 42.82105393845296 5.743048650400046 0 0 -1
363 1 9.016606018333068 44.92276985947031 10.64786480766337 1 -1 -1
3370 1 10.9526014894241 45.16905771095877 13.164122721599979 0 0 0
3796 1 16.857086184574655 46.7156580367389 9.225757289500399 1 -1 0
2806 1 13.18165760839912 49.9407438137965 22.591213562135454 0 0 1
2464 1 1.7708559514923325 45.49253441829521 9.434643276447108 0 -1 0
307 1 0.8220649445783069 47.438367412414735 11.806010861312046 0 -2 0
676 1 6.261771989025794 46.265357505646065 9.410666598920374 -1 -1 0
4565 1 5.942490029915662 43.7679561987149 10.663962686156065 -1 0 0
408 1 9.022533195401222 46.19629899407818 7.632924977086953 0 0 0
1440 1 13.483666292052117 43.13033678891465 11.376359152029522 0 0 2
1912 1 14.159579033667455 45.57873515368614 9.695618214120541 1 0 -1
264 1 11.636385332339422 17.59501031264689 25.280802380841113 0 0 0
1210 1 14.165641452018997 47.8748889982018 11.729271107888664 0 0 0
2586 1 11.384778806012644 46.54111234637851 9.227120841925206 0 0 -1
311 1 7.942843736099547 48.25503076367295 10.971570660133795 0 -1 -1
784 1 12.464480841851227 50.40757762064361 12.28039488579697 1 0 0
4002 1 14.826746239941919 50.476469072991634 8.625448344618068 0 0 2
103 1 16.623471953504392 3.4043015727061987 22.57736474721581 0 1 0
3785 1 4.549010400278032 0.9353765572160807 16.860904419041045 1 0 1
942 1 8.570211373039974 50.590800254617534 13.956083313234824 2 -1 1
4514 1 8.633267637723941 0.82756698825341 11.273655191096436 1 0 -1
3957 1 14.169512561667764 1.7374980153221469 13.496726139225153 0 0 1
3453 1 16.080907160846316 0.3653520344754989 14.827465113202997 -1 1 -1
2574 1 16.738552189282775 8.358529099986121 8.894679905840087 0 -1 0
4591 1 3.817864155405263 1.1777279692875513 14.139301376311984 0 0 0
731 1 7.541105531686929 2.683757176067064 14.30342848137565 0 0 1
4355 1 9.469637219079216 7.444287996666666 10.494493105501773 0 1 1
1066 1 16.31878210134668 2.5083919782813164 11.555805700158444 1 0 1
3745 1 1.0064309998411156 5.539263746065458 13.211761381086097 2 1 1
3750 1 1.6818173960959095 9.254991801359395 15.3912169397266 1 0 0
4492 1 3.644260455632632 11.516742835307777 16.341087936456578 1 -1 1
3806 1 10.037724913848887 6.147367926107348 12.848162345190723 0 1 -1
2285 1 6.826188865252987 5.839320290534691 12.592463408696378 1 0 1
4364 1 12.7368141432548 4.427411255452511 13.066801515475914 1 1 0
106 1 9.928302279486388 8.26113032733784 19.09681775082504 0 0 -1
4210 1 14.662779519836796 8.421116733312676 14.913028681570262 0 1 1
4592 1 16.31982930910003 5.074965232338748 12.456894237855845 1 1 0
3262 1 4.108776326200618 9.101610530243361 13.876020589525805 1 1 0
1994 1 2.014772742353243 13.61381840096718 14.685410936258823 1 1 -1
2629 1 6.219868402636229 14.897518188189489 15.094192662252967 0 0 0
1997 1 7.812725664241854 8.842409036885105 16.78574814020426 1 0 -1
3168 1 9.531843979232784 9.854199551425975 14.641025421928818 0 1 0
287 1 16.82551221076139 12.889309574168792 16.14417033681456 0 0 0
2035 1 4.178154878380392 18.88242353702911 20.4361359493296 0 1 -1
1579 1 11.57239639525425 14.910610549899655 16.28089834224079 1 0 0
378 1 17.242437252987013 14.686301586477839 9.822236469481277 -1 -1 -1
2189 1 1.6315019606408045 19.120173308579496 13.306825541131285 0 0 -1
2470 1 1.0667462796508878 39.20881601712463 3.1386901231870095 1 0 1
4150 1 3.8789684195430905 23.031322302714127 20.270522528683298 1 1 1
941 1 8.639428309946739 18.6979479475423 15.737268954482978 1 0 2
1768 1 7.73732136325081 20.384468996704815 19.104615044335837 0 0 1
2264 1 15.824002998054391 16.709423647083874 11.130453565289493 1 0 0
1950 1 12.551801854783058 21.388684901051075 15.121424277691169 0 2 0
1842 1 12.899801191724823 17.563634687777295 14.819143373198688 0 0 -1
367 1 16.91366949680541 34.69925943636723 2.0464972842412354 0 0 1
3899 1 15.250990482077285 16.256514689856935 13.959680997523085 1 1 1
4041 1 12.17482589182724 19.44744211826644 12.992246258156053 1 0 0
1026 1 9.332094421215043 47.274821535309854 23.846739729503877 0 0 0
1394 1 7.088004212883009 15.65103070678992 0.9341430187640691 0 0 1
1649 1 6.720053967567725 22.168669621837854 12.048349297256395 1 1 0
2707 1 8.7444686172326 21.279348681367033 16.566598492031734 -1 0 1
2221 1 10.090215807700924 25.320043509138316 12.582152432792288 0 0 0
1749 1 9.033748847983517 23.56045786307564 14.213781769667708 -1 0 0
3934 1 12.43333978572523 25.479922400544293 21.079631237125984 1 0 0