
# Create simulation box of size 50 x 50 x 50 Angstrom
#
lattice	            sc 1
Lattice spacing in x,y,z = 1.0000000 1.0000000 1.0000000
region 	            all block 0 ${X} ${YZ_LO} ${YZ_HI} ${YZ_LO} ${YZ_HI} units box
region 	            all block 0 53.4 ${YZ_LO} ${YZ_HI} ${YZ_LO} ${YZ_HI} units box
region 	            all block 0 53.4 -0.008715390073650298.0 ${YZ_HI} ${YZ_LO} ${YZ_HI} units box
region 	            all block 0 53.4 -0.008715390073650298.0 50.915835390074335.0 ${YZ_LO} ${YZ_HI} units box
region 	            all block 0 53.4 -0.008715390073650298.0 50.915835390074335.0 -0.008715390073650298.0 ${YZ_HI} units box
region 	            all block 0 53.4 -0.008715390073650298.0 50.915835390074335.0 -0.008715390073650298.0 50.915835390074335.0 units box
create_box          1 all
Created orthogonal box = (0.0000000 -0.0087153901 -0.0087153901) to (53.400000 50.915835 50.915835)
  3 by 1 by 2 MPI processor grid

# fill box with 4175 randomly distributed atoms
#
create_atoms        1 random 4608 63782 all
Created 4608 atoms
  create_atoms CPU = 0.001 seconds
mass                1 18.015

# Define potential
#
pair_style          sw
pair_coeff          * * /data/emrosky-sim/Freezing_Simulations/Melting/MLmW_fancy/ML_mW.sw mW
Reading sw potential file /data/emrosky-sim/Freezing_Simulations/Melting/MLmW_fancy/ML_mW.sw with DATE: 2019-02-27

# Run minimization
#
minimize            1.0e-8 1.0e-8 10000 1000
WARNING: Using 'neigh_modify every 1 delay 0 check yes' setting during minimization (../min.cpp:187)
Neighbor list info ...
  update every 1 steps, delay 0 steps, check yes
  max neighbors/atom: 2000, page size: 100000
  master list distance cutoff = 6.0032907
  ghost atom cutoff = 6.0032907
  binsize = 3.0016454, bins = 18 17 17
  1 neighbor lists, perpetual/occasional/extra = 1 0 0
  (1) pair sw, perpetual
      attributes: full, newton on
      pair build: full/bin/atomonly
      stencil: full/bin/3d
      bin: standard
Per MPI rank memory allocation (min/avg/max) = 4.234 | 4.248 | 4.253 Mbytes
Step Temp E_pair E_mol TotEng Press 
       0            0    7256577.3            0    7256577.3    4980558.2 
     641            0   -49828.981            0   -49828.981   -170.77609 
Loop time of 1.27933 on 6 procs for 641 steps with 4608 atoms

99.2% CPU use with 6 MPI tasks x no OpenMP threads

Minimization stats:
  Stopping criterion = max force evaluations
  Energy initial, next-to-last, final = 
      7256577.32835034  -49828.8895801237  -49828.9805626856
  Force two-norm initial, final = 1.6682179e+08 2.6890635
  Force max component initial, final = 88696147.0 0.43513085
  Final line search alpha, max atom move = 0.10975981 0.047759878
  Iterations, force evaluations = 641 1001

MPI task timing breakdown:
Section |  min time  |  avg time  |  max time  |%varavg| %total
---------------------------------------------------------------
Pair    | 0.98175    | 1.099      | 1.1755     |   6.1 | 85.90
Neigh   | 0.024576   | 0.025484   | 0.02598    |   0.3 |  1.99
Comm    | 0.056565   | 0.13343    | 0.25108    |  17.5 | 10.43
Output  | 0          | 0          | 0          |   0.0 |  0.00
Modify  | 0          | 0          | 0          |   0.0 |  0.00
Other   |            | 0.02141    |            |       |  1.67

Nlocal:        768.000 ave         782 max         748 min
Histogram: 1 1 0 0 0 1 0 0 1 2
Nghost:        1578.00 ave        1593 max        1553 min
Histogram: 1 0 0 0 2 0 0 0 0 3
Neighs:        0.00000 ave           0 max           0 min
Histogram: 6 0 0 0 0 0 0 0 0 0
FullNghs:      21948.7 ave       22650 max       20975 min
Histogram: 1 1 0 0 0 1 0 0 1 2

Total # of neighbors = 131692
Ave neighs/atom = 28.578993
Neighbor list builds = 24
Dangerous builds = 0

# Add velocity/set timestep
#
velocity            all create ${TEMP} 120598 rot yes dist gaussian
velocity            all create 287 120598 rot yes dist gaussian
timestep            5.0

# Define output
#
compute	            1 all msd
thermo	            100
thermo_style        custom step temp press vol etotal ke pe c_1[4] density

# Neighbor lists
#
neigh_modify        delay 0 every 1 check yes

# Set fixes
#
fix                 1 all momentum 10 linear 1 1 1 rescale
fix                 2 all nve
fix                 3 all temp/csvr ${TEMP} ${TEMP} 500.0 928347
fix                 3 all temp/csvr 287 ${TEMP} 500.0 928347
fix                 3 all temp/csvr 287 287 500.0 928347
fix                 4 all press/berendsen iso ${PRES} ${PRES} 1000.0 modulus 20000
fix                 4 all press/berendsen iso 1 ${PRES} 1000.0 modulus 20000
fix                 4 all press/berendsen iso 1 1 1000.0 modulus 20000

# Run 0.5 ns equilibration
#
dump                1 all custom 1000 eq.${NAME}.dump id type x y z vx vy vz
dump                1 all custom 1000 eq.liq_287K_1atm_ML.dump id type x y z vx vy vz
run                 100000
Per MPI rank memory allocation (min/avg/max) = 3.485 | 3.499 | 3.503 Mbytes
Step Temp Press Volume TotEng KinEng PotEng c_1[4] Density 
     641          287    1130.2068    138482.75   -45887.727    3941.2539   -49828.981            0   0.99540571 
     700    173.67867   -33.134372    139002.44   -44845.382    2385.0583    -47230.44   0.32896658   0.99168414 
     800    216.73399    -36.73276     138891.9   -43645.931    2976.3194   -46622.251   0.87101893   0.99247342 
     900    243.63888    1.8408121    138964.89   -42944.854    3345.7933   -46290.648    1.4848876   0.99195213 
    1000    260.85924   -78.624683    139065.57   -42429.434    3582.2735   -46011.707    2.1849966   0.99123395 
    1100     270.2756    52.853525    138853.81    -42100.89    3711.5845   -45812.474    2.9988101   0.99274565 
    1200    278.26502   -239.20436    138616.34   -41811.369    3821.2999   -45632.669    3.8787912   0.99444639 
    1300    278.31133   -150.83796    138406.53    -41646.41    3821.9359   -45468.345      4.84607   0.99595389 
    1400    280.32601    133.70944    138434.09   -41515.842    3849.6027   -45365.445    5.8881418   0.99575556 
    1500    281.13321   -39.756356    138214.87    -41439.44    3860.6877   -45300.127    6.9801282   0.99733495 
    1600    284.40051    71.287777    137967.87   -41453.014    3905.5562   -45358.571     8.024324   0.99912044 
    1700    281.98502   -109.12774    137866.67   -41417.753    3872.3853   -45290.139    9.0984813    0.9998538 
    1800      289.837   -56.675621     137801.5   -41382.551    3980.2132   -45362.764    10.073701    1.0003267 
    1900    288.39002   -41.835014     137660.7   -41302.928    3960.3425    -45263.27    11.077928    1.0013498 
    2000    286.29173   -53.042367    137940.39   -41266.153    3931.5275    -45197.68    12.052128   0.99931949 
    2100    285.93038    123.30313    138098.57   -41381.766    3926.5653   -45308.331    13.170423    0.9981748 
    2200    289.05798   -193.02887     138112.3   -41292.893    3969.5153   -45262.408    14.589379   0.99807558 
    2300    286.81442    73.420497     138516.4   -41307.265    3938.7054   -45245.971    15.759711   0.99516386 
    2400    284.80317   -102.87975    138117.37   -41304.332    3911.0857   -45215.418    17.059512   0.99803899 
    2500    294.51835   -155.04438    138242.01   -41256.468    4044.5003   -45300.968    18.429372   0.99713909 
    2600    286.86643     73.42255    138334.93   -41154.435    3939.4197   -45093.855    19.740501   0.99646934 
    2700    287.34993    257.40637    138406.08   -41270.598    3946.0594   -45216.657    20.928993   0.99595709 
    2800    286.83562    56.064585    138324.09   -41271.318    3938.9966   -45210.315    22.073632   0.99654747 
    2900    286.12935    125.73524     138273.4   -41166.417    3929.2976   -45095.715    23.360939   0.99691279 
    3000    291.86045    42.438123    138587.03   -41127.786    4008.0005   -45135.786     24.76528   0.99465671 
    3100    289.86073   -92.119223    138209.91   -41106.142    3980.5392   -45086.681    26.339097   0.99737071 
    3200    291.69811    12.689092    138459.68   -41135.905    4005.7711   -45141.676     27.63843   0.99557154 
    3300    284.99651    181.18009    138235.27   -41167.494    3913.7407   -45081.235    28.681298   0.99718777 
    3400    288.04254   -124.51849    138214.41   -41165.446    3955.5706   -45121.017     30.10772   0.99733823 
    3500    290.50339   -391.95996    138177.12   -41049.993    3989.3645   -45039.357    31.453972   0.99760737 
    3600    289.96168   -94.015118    137982.65   -41120.219    3981.9254   -45102.145    32.925945   0.99901343 
    3700    292.90336   -27.792851    138050.43   -41131.113    4022.3223   -45153.435    33.945543   0.99852292 
    3800    285.44334   -233.38864    138059.11   -41195.793    3919.8768    -45115.67    35.244913   0.99846012 
    3900    279.38616    152.66162    138312.38   -41338.153    3836.6961   -45174.849    36.191626   0.99663181 
    4000     283.5877    220.85009    138336.83   -41271.308    3894.3942   -45165.702    37.142156   0.99645563 
    4100    284.61618    228.43147     138556.9   -41218.014    3908.5178   -45126.532    38.305623   0.99487297 
    4200    286.35179   -119.82364    138676.18   -41232.255    3932.3522   -45164.607    39.173774    0.9940173 
    4300    286.47113   -324.65375    138495.21   -41297.078    3933.9912    -45231.07    40.147295   0.99531616 
    4400    289.39191    35.255944    138157.25   -41209.792     3974.101   -45183.893    41.454194   0.99775087 
    4500     291.4873    222.04021    138443.28   -41162.771    4002.8761   -45165.647    42.596874   0.99568945 
    4600    283.76353    90.929583    138281.77   -41260.285    3896.8088   -45157.094    43.609484   0.99685243 
    4700    285.62503   -75.796281    138250.85   -41312.853    3922.3719   -45235.224    44.665801   0.99707534 
    4800    286.26234   -83.347496    138022.63   -41219.936    3931.1239   -45151.059    45.480761   0.99872399 
    4900    278.95692    44.365034    138066.47   -41297.153    3830.8015   -45127.955     46.41568   0.99840688 
    5000    289.63854    116.89219    138450.27   -41177.961    3977.4879   -45155.449    47.614431   0.99563919 
    5100    288.58986   -314.00963    138196.47   -41251.094    3963.0867   -45214.181    48.729795   0.99746769 
    5200    282.08781    136.05475     138148.9    -41358.96    3873.7968   -45232.757    50.240899   0.99781115 
    5300    285.22069    61.565513    138462.12   -41262.201    3916.8194    -45179.02    51.724806   0.99555396 
    5400    287.36871   -131.41999    138228.16   -41190.906    3946.3172   -45137.223    52.742647   0.99723905 
    5500    286.80069    66.759194    138346.75   -41158.575    3938.5169   -45097.092    54.125318   0.99638423 
    5600    294.07487   -143.23106    138689.45   -41102.867    4038.4102   -45141.278    55.299029   0.99392217 
    5700    288.43475   -65.770268    138484.96   -41154.861    3960.9567   -45115.818    56.521213   0.99538981 
    5800    292.48893   -48.667633    138437.62   -41096.304    4016.6311   -45112.935    57.508735   0.99573018 
    5900    283.61331    144.61754    138474.65   -41292.197    3894.7458   -45186.943    58.727201   0.99546392 
    6000    288.89176    309.61684    138611.77    -41318.78    3967.2326   -45286.012    59.388336   0.99447913 
    6100    281.46714    102.75811    138469.57    -41258.01    3865.2734   -45123.284    60.930033   0.99550044 
    6200    281.64785   -304.67632    138041.46   -41344.791    3867.7549   -45212.546    62.387004   0.99858779 
    6300    286.32601   -12.963861    137892.31   -41274.604    3931.9982   -45206.602    63.212426   0.99966789 
    6400    283.85416   -98.165115     138131.5   -41279.875    3898.0533   -45177.929    64.338905   0.99793688 
    6500     287.8078    71.288041    137926.33   -41295.703    3952.3471    -45248.05    65.598857   0.99942132 
    6600    283.24822    30.279374     138011.1    -41392.09    3889.7322   -45281.823    66.679384   0.99880743 
    6700     285.3691   -241.70385    137974.32   -41453.164    3918.8574   -45372.021    67.732624   0.99907375 
    6800    281.38892   -14.346132     137787.9   -41420.836    3864.1992   -45285.036    68.492067    1.0004254 
    6900    284.97794    411.11658    138062.35   -41308.106    3913.4857   -45221.591    69.591987   0.99843667 
    7000    289.35542   -174.21994    137913.02   -41248.552    3973.5999   -45222.152    70.580758   0.99951779 
    7100    287.03465    58.781455    137969.89   -41313.603    3941.7297   -45255.332    71.528002   0.99910582 
    7200    281.97508   -192.87762    138251.03   -41370.643    3872.2487   -45242.892    72.751495   0.99707409 
    7300    281.15994    46.723493    138049.42   -41338.851    3861.0547   -45199.905    74.018693   0.99853019 
    7400    283.96681     122.8142    138069.66   -41387.141    3899.6003   -45286.742    75.576133   0.99838385 
    7500    284.92127    148.25121    138401.32    -41304.52    3912.7075   -45217.228    76.716398   0.99599136 
    7600     281.0916   -33.884452    138560.02   -41311.814    3860.1162   -45171.931    78.014859   0.99485057 
    7700    281.59001     58.78234    138632.03   -41313.529    3866.9607    -45180.49    79.289415   0.99433383 
    7800    283.81606   -145.79842    138266.64   -41296.141    3897.5301   -45193.671    80.247352   0.99696151 
    7900    281.87535    55.402191    138229.92   -41402.888    3870.8791   -45273.768    81.285353   0.99722633 
    8000    280.50709   -123.27937     138007.3   -41313.765    3852.0894   -45165.854    82.316846   0.99883495 
    8100    284.49939   -179.27944    137961.49   -41219.658    3906.9141   -45126.572    83.372315   0.99916664 
    8200    282.63524    195.72188    137989.35   -41263.498    3881.3145   -45144.812    84.690803   0.99896491 
    8300    288.37598   -137.66421    138443.74   -41244.362    3960.1496   -45204.512    86.267123   0.99568615 
    8400    282.92491   -105.17388     138197.6     -41296.3    3885.2923   -45181.592    87.591415   0.99745958 
    8500    283.13921   -88.337299    138153.98   -41320.863    3888.2353   -45209.098    88.705202    0.9977745 
    8600    290.07587    85.927437    137935.92   -41227.867    3983.4936    -45211.36    89.556101   0.99935185 
    8700    290.63284   -146.47655    138129.85    -41220.15    3991.1422   -45211.292     90.91106   0.99794878 
    8800    290.02813   -49.654131    137963.59   -41183.397    3982.8379   -45166.235    91.589246   0.99915145 
    8900    284.78994    194.92601    137822.92   -41166.957     3910.904   -45077.861    92.782712    1.0001712 
    9000    293.51088    45.561892    138059.18   -41076.798    4030.6652   -45107.463    94.094021   0.99845964 
    9100    291.27941   -78.886662    138027.99    -41142.08    4000.0212   -45142.101    94.998179   0.99868522 
    9200    289.93608   -19.462661    138135.74   -41195.597    3981.5738   -45177.171    96.283312   0.99790623 
    9300    287.57965      80.8114    138251.53   -41168.196    3949.2139    -45117.41    97.506098   0.99707043 
    9400    289.13313   -85.217759    138039.44   -41186.811    3970.5472   -45157.358    97.907536   0.99860237 
    9500    286.71384     31.11867    138060.69   -41244.493    3937.3242   -45181.818    99.209111   0.99844868 
    9600    288.18869    1.4370151    138062.57   -41245.009    3957.5776   -45202.586    99.869891   0.99843512 
    9700    283.78322   -28.809544    138063.64   -41234.388    3897.0792   -45131.467     100.8098   0.99842736 
    9800    290.62797   -168.15768    138147.09   -41199.708    3991.0752   -45190.784    102.26016   0.99782424 
    9900    285.63558    30.230378    138086.82   -41249.403    3922.5169   -45171.919    103.26102   0.99825973 
   10000    289.40982    -161.1985     138074.2   -41291.672     3974.347   -45266.019    104.34375   0.99835103 
   10100    286.97552    167.60769    138271.55   -41268.708    3940.9177   -45209.626    105.33607   0.99692609 
   10200     281.0844    8.4484029    138021.88   -41367.876    3860.0174   -45227.894     106.2108   0.99872943 
   10300     287.2298    387.20251    138389.31   -41266.308    3944.4096   -45210.717     107.6636   0.99607781 
   10400    287.60603    18.608765    138608.42   -41174.838    3949.5763   -45124.414    108.90008   0.99450317 
   10500    285.14734     75.35405    138975.05   -41189.202     3915.812   -45105.014    110.14724   0.99187958 
   10600    287.30743    28.381713    138794.17   -41189.077    3945.4756   -45134.553    111.44114   0.99317222 
   10700    286.23658   -181.18612    138513.17    -41172.61    3930.7701    -45103.38    111.93117   0.99518705 
   10800    286.05448   -36.547476    138347.99   -41127.873    3928.2694   -45056.143    113.25675   0.99637527 
   10900    290.21896   -7.2464012    137995.74   -41107.701    3985.4586   -45093.159    114.08338   0.99891862 
   11000    291.70352    6.8473515    138062.22   -41091.638    4005.8454   -45097.483    115.40522   0.99843766 
   11100    286.30144    125.39942    137975.14   -41200.131    3931.6608   -45131.792     116.6628    0.9990678 
   11200    289.98607    30.549476    137921.08   -41163.025    3982.2604   -45145.285    117.86523    0.9994594 
   11300    290.34579   -27.165242    137842.69   -41233.955    3987.2002   -45221.155    119.09735    1.0000278 
   11400    288.73923   -75.247726    138208.03   -41301.571    3965.1379   -45266.709    120.15566   0.99738428 
   11500    282.53079   -130.01371     138081.5   -41376.156    3879.8801   -45256.036    121.07454   0.99829823 
   11600    282.33393   -120.29578    138112.02   -41430.613    3877.1766   -45307.789    122.14753   0.99807766 
   11700    284.97814    1.7692829    138059.25   -41364.814    3913.4885   -45278.302    123.40043   0.99845909 
   11800    286.69851    124.99772    138052.68   -41361.949    3937.1136   -45299.063    124.59173   0.99850666 
   11900    282.44092    96.469718    138371.88   -41427.347    3878.6458   -45305.993    125.58306   0.99620324 
   12000    282.86436   -141.96715    138181.04   -41390.883    3884.4608   -45275.344    126.60383   0.99757911 
   12100    285.39899    449.70579    138231.94   -41268.656    3919.2678   -45187.924    128.07765   0.99721179 
   12200    288.49602     56.82524    138339.94    -41175.54    3961.7981   -45137.338    129.56629   0.99643326 
   12300     289.2884    105.57403    138140.23    -41135.15    3972.6795    -45107.83    130.29103   0.99787382 
   12400     294.4205    -241.4731    138372.13   -41116.927    4043.1565   -45160.084    131.82822   0.99620145 
   12500    289.55864   -67.306498    137962.84   -41197.056    3976.3906   -45173.446    132.60989   0.99915683 
   12600    293.39976   -92.737506    138341.14   -41175.813    4029.1391   -45204.952    133.81286   0.99642461 
   12700    287.00161   -43.687609    138116.89   -41237.206     3941.276   -45178.482     134.8142   0.99804247 
   12800    287.06937   -13.525019    137980.27   -41249.022    3942.2065   -45191.229     136.0219   0.99903065 
   12900    282.47232   -196.33792    137566.66   -41311.579    3879.0771   -45190.656    136.82572    1.0020343 
   13000    281.37405     158.4069    137837.12   -41269.576     3863.995   -45133.571    138.09665    1.0000682 
   13100    289.02348   -5.8764218       137793   -41211.804    3969.0415   -45180.846    139.23472    1.0003884 
   13200     290.9918    80.424247    137943.87   -41125.672    3996.0716   -45121.744    140.51923   0.99929426 
   13300    292.50712    201.43187    138174.58   -41124.667    4016.8809   -45141.548     141.9662   0.99762576 
   13400    287.07222   -194.48115    138387.15   -41175.634    3942.2457    -45117.88    142.86453   0.99609331 
   13500    291.38778    110.87636    137978.85   -41218.538    4001.5094   -45220.048    143.64487   0.99904093 
   13600    287.67842   -152.75343    138114.79   -41227.169    3950.5704   -45177.739    144.64101   0.99805763 
   13700    288.39741   -74.420818    138188.39   -41257.239    3960.4439   -45217.683    146.01111     0.997526 
   13800    280.73639    78.321936    137730.23   -41337.273    3855.2383   -45192.511    146.93185    1.0008443 
   13900    287.06905   -30.993128    138084.18   -41307.071    3942.2021   -45249.273    148.24998   0.99827884 
   14000    280.14905     230.5743    138155.89   -41410.405    3847.1726   -45257.577    149.55642   0.99776066 
   14100    285.69908    54.837404    138081.56   -41340.223    3923.3889   -45263.612    150.67831   0.99829781 
   14200    281.13392    163.19427    138230.97   -41336.341    3860.6974   -45197.039    151.73064   0.99721876 
   14300    282.60647    -194.0945    138106.58   -41373.722    3880.9193   -45254.641    152.93725   0.99811694 
   14400    284.81675   -37.955831    137891.14   -41251.561    3911.2723   -45162.833    154.07524   0.99967639 
   14500    290.23814   -91.171804    137801.63   -41288.223    3985.7219   -45273.945    154.40362    1.0003257 
   14600    289.61408   -26.217692    137907.49   -41169.519     3977.152   -45146.671    155.52597   0.99955784 
   14700    288.05319   -263.52244     137643.8   -41226.439    3955.7169   -45182.155    156.39901    1.0014727 
   14800    285.53711   -87.184195    138011.46   -41203.262    3921.1646   -45124.427     157.8594   0.99880487 
   14900    287.72722   -98.782062    137847.11    -41172.24    3951.2406   -45123.481    158.80357   0.99999568 
   15000    286.94596    86.570962    137669.01   -41296.233    3940.5118   -45236.745    159.69464    1.0012894 
   15100    286.71311   -62.854751    137878.65   -41288.803    3937.3141   -45226.117    161.22479   0.99976697 
   15200    288.38577    145.19275    137735.83   -41310.492     3960.284   -45270.776    161.67174    1.0008036 
   15300    286.59721   -166.93601    138082.61   -41278.535    3935.7225   -45214.258    163.11943   0.99829023 
   15400    288.70353   -10.533585    138064.93   -41196.869    3964.6477   -45161.517    164.13949   0.99841802 
   15500    285.96218    140.57685    138113.37   -41245.954    3927.0019   -45172.956    165.68877    0.9980679 
   15600    281.56657     130.6482    138101.25   -41279.705    3866.6389   -45146.344     166.5346   0.99815543 
   15700    286.71469   -114.10655    138334.47   -41276.398    3937.3358   -45213.734    167.75768   0.99647263 
   15800    281.51348   -141.31388    138116.01   -41243.196    3865.9097   -45109.105    168.49338   0.99804878 
   15900    283.66168   -92.102624    137930.56   -41265.276    3895.4101   -45160.686    169.73193    0.9993907 
   16000    286.41909    114.86017    137549.54   -41311.894    3933.2764    -45245.17    170.61267    1.0021591 
   16100    289.40301    71.987659    138074.83    -41255.45    3974.2534   -45229.703    172.53087   0.99834647 
   16200    289.70476    3.7589994    138042.49   -41130.258    3978.3972   -45108.655    173.84516   0.99858033 
   16300     290.2471    25.828528    138244.63   -41070.641     3985.845   -45056.486    175.19045   0.99712021 
   16400    285.81339    29.341843    138352.48   -41081.117    3924.9587   -45006.076    177.07926   0.99634298 
   16500    291.34709   -247.58814    138089.45   -41094.421    4000.9507   -45095.371    178.20657   0.99824072 
   16600    289.96491    10.179733     137984.1   -41161.403    3981.9698   -45143.373    179.43506   0.99900292 
   16700    284.40762   -344.01327    137855.03   -41279.365    3905.6538   -45185.019    180.42268   0.99993824 
   16800    291.94306    65.560874    138190.25   -41205.798    4009.1349   -45214.933     181.4856   0.99751264 
   16900    286.78542   -226.07563    138221.73    -41285.68    3938.3071   -45223.987    182.45242   0.99728544 
   17000    287.45575    120.80076    138154.03   -41280.064    3947.5125   -45227.576    183.39017   0.99777411 
   17100    289.96755   -57.549644    138251.57   -41212.031     3982.006   -45194.037    184.33787   0.99707016 
   17200    291.44639   -138.68872    138140.04   -41139.688    4002.3143   -45142.002    185.67173    0.9978752 
   17300     287.1509   -150.22584    138173.42   -41187.504    3943.3261   -45130.831    187.21692   0.99763413 
   17400    291.33906   -9.1242352    137946.61   -41202.749    4000.8405   -45203.589    188.49546   0.99927437 
   17500    286.72272   -17.662258    137955.44   -41218.969    3937.4461   -45156.416    189.85466   0.99921044 
   17600    289.68836   -1.5778352    137999.32   -41223.516     3978.172   -45201.688     190.8019   0.99889275 
   17700    288.74185    5.8564742    138189.02   -41212.952     3965.174   -45178.126    191.93141    0.9975215 
   17800    286.55167   -111.49775     138299.2   -41279.344    3935.0971   -45214.441    193.15488   0.99672681 
   17900    285.64958   -79.724577    137900.69   -41325.708    3922.7091   -45248.417    194.01685   0.99960719 
   18000    283.48466   -280.04542    137703.48   -41407.087    3892.9792   -45300.066    195.28655    1.0010388 
   18100    281.58978    295.42523    137671.68   -41367.472    3866.9576    -45234.43    196.75574    1.0012699 
   18200    284.48864    10.991673    138203.05   -41296.208    3906.7664   -45202.974    198.67564   0.99742024 
   18300    287.81503   -278.31475    137996.14   -41294.585    3952.4463   -45247.031    199.46314   0.99891574 
   18400    289.84411   -94.042956    138207.12   -41324.414    3980.3108   -45304.725     200.7418   0.99739082 
   18500    285.97157   -121.88025    138060.08   -41236.212    3927.1309   -45163.343      201.625   0.99845314 
   18600    286.16459   -9.1659453    137876.88   -41199.101    3929.7816   -45128.883    202.56274   0.99977981 
   18700    292.90023    67.754704    138042.92    -41130.07    4022.2793   -45152.349     204.0356   0.99857721 
   18800    283.24929   -130.25233    138129.38   -41259.336     3889.747   -45149.083    205.23405   0.99795218 
   18900    288.13444   -94.285333    138132.06   -41272.726    3956.8327   -45229.559    206.37724   0.99793284 
   19000    283.59937   -105.98467    138288.49   -41276.413    3894.5544   -45170.967     207.9805   0.99680395 
   19100    286.27312   -121.28487    138250.05   -41290.868     3931.272    -45222.14    209.68118   0.99708113 
   19200     287.6873    -75.49881    138307.35   -41234.832    3950.6923   -45185.524    211.13415   0.99666802 
   19300     290.4503   -137.99526    138166.66   -41209.221    3988.6355   -45197.856    212.41406   0.99768291 
   19400    283.93514   -230.66582    138204.74   -41297.115    3899.1655   -45196.281    213.50515   0.99740804 
   19500    287.88391   -200.71801    138233.78     -41237.2    3953.3922   -45190.592    214.46162   0.99719848 
   19600    287.00094    24.162129    137980.23   -41214.291    3941.2668   -45155.558    215.11984   0.99903092 
   19700    287.28832   -51.939401    138011.65   -41200.771    3945.2133   -45145.985    216.00281   0.99880345 
   19800     289.5829   -71.287705    137913.76   -41233.249    3976.7238   -45209.972    217.02503   0.99951241 
   19900    293.80975   -210.72701    138058.49   -41167.314    4034.7694   -45202.083    218.41664    0.9984646 
   20000    288.42027    164.41135    138057.13   -41157.497    3960.7579   -45118.254     219.9169   0.99847445 
   20100     290.4522    156.73119    138212.15   -41168.082    3988.6616   -45156.744    221.19901   0.99735458 
   20200    287.77073    15.520191     138585.6   -41171.475     3951.838   -45123.313    222.42807   0.99466694 
   20300    290.39505   -178.94701    138602.42   -41150.771    3987.8767   -45138.647    222.77001   0.99454624 
   20400    285.12165   -264.90408     138276.3   -41188.442    3915.4592   -45103.901    224.25341   0.99689186 
   20500    288.38799   -100.36134    138011.59   -41172.286    3960.3146     -45132.6    225.43003   0.99880392 
   20600    285.86718    132.25862    137903.54   -41214.926    3925.6974   -45140.624    226.48864   0.99958647 
   20700     279.1975    109.98122    137859.14   -41309.795    3834.1054   -45143.901    227.92434   0.99990844 
   20800    280.58089   -14.403513    137888.04   -41306.319    3853.1029   -45159.422    229.08712   0.99969888 
   20900    288.83414   -44.078755    138132.85   -41215.046    3966.4414   -45181.488    230.35972   0.99792714 
   21000    291.14124   -34.104161    138318.42   -41172.795    3998.1238   -45170.919    231.89725   0.99658826 
   21100    284.43487   -253.02472    138076.82    -41263.09    3906.0279   -45169.118    232.42539   0.99833209 
   21200    280.66853    162.13926    138358.44   -41295.726    3854.3064   -45150.032    233.91037   0.99630003 
   21300    285.55581     107.0811     138685.2   -41301.975    3921.4213   -45223.396    235.20885   0.99395258 
   21400    291.94593    125.28021    138796.59   -41195.621    4009.1744   -45204.796    236.19959   0.99315493 
   21500    289.95004   -216.76642    138947.52   -41181.789    3981.7655   -45163.555    237.12504   0.99207615 
   21600    284.72608    10.987691     138603.2   -41227.118     3910.027   -45137.145    237.26735   0.99454067 
   21700    287.36699    148.34674    138652.21   -41167.393    3946.2937   -45113.686    237.87743   0.99418914 
   21800    286.28172   -178.33321    138622.42   -41129.127      3931.39   -45060.517    239.45648   0.99440272 
   21900    288.28364   -168.27318    138650.84   -41136.189    3958.8816   -45095.071    240.26871   0.99419894 
   22000    288.76411   -131.49888    138427.88   -41172.084    3965.4796   -45137.564    241.00318   0.99580022 
   22100    288.40611    188.71708    138661.73   -41133.371    3960.5634   -45093.935    242.08166   0.99412084 
   22200    294.49001   -18.205599    138568.05   -41103.881    4044.1111   -45147.992    242.86249   0.99479292 
   22300    289.56437    31.515092    138382.17   -41178.399    3976.4694   -45154.868    243.66343    0.9961292 
   22400    283.51004    102.54397     138418.7   -41226.673    3893.3276       -45120    245.27679   0.99586627 
   22500    291.69791    32.827961    138120.35    -41271.11    4005.7683   -45276.879    246.49201   0.99801743 
   22600    285.41976   -5.5834947    138426.85   -41307.306    3919.5531   -45226.859    247.91187   0.99580766 
   22700    288.94041    2.8350722    138246.25   -41282.121    3967.9008   -45250.022    248.90503   0.99710855 
   22800     283.5327    113.24688    138269.86   -41423.908    3893.6389   -45317.547    249.64257   0.99693827 
   22900    285.92883   -48.996357    138255.86   -41374.013    3926.5439   -45300.557    251.07178    0.9970392 
   23000    287.76058    86.812904    138350.63   -41235.222    3951.6986   -45186.921     252.4822   0.99635627 
   23100    287.56426    28.226775     138547.5   -41254.527    3949.0026    -45203.53    254.18365   0.99494047 
   23200    291.38961   -312.72376    138490.76   -41304.126    4001.5346   -45305.661     254.9655   0.99534811 
   23300    282.83099   -100.69863    138136.54   -41373.173    3884.0026   -45257.176    255.99107   0.99790046 
   23400    286.97561   -76.749157    138244.36   -41287.361    3940.9189    -45228.28    257.25822   0.99712219 
   23500    287.36153   -93.487943    138292.53   -41262.209    3946.2187   -45208.428    258.42375   0.99677483 
   23600    283.53077    222.00283    138091.54   -41328.107    3893.6123    -45221.72    258.79076   0.99822567 
   23700    282.55091    43.091668    138164.12   -41344.363    3880.1563    -45224.52    259.87389   0.99770124 
   23800    287.91225   -101.98744    138105.79   -41257.272    3953.7815   -45211.054    260.65192   0.99812263 
   23900    288.91428   -24.454694    138111.42   -41254.225     3967.542   -45221.767    261.48395   0.99808199 
   24000    282.71471    254.07035    138239.92   -41216.802    3882.4057   -45099.208     262.6281   0.99715422 
   24100    288.53489    89.782047    138292.43   -41181.786    3962.3319   -45144.118    263.90957   0.99677555 
   24200    291.44334    45.309792    138166.78   -41091.166    4002.2724   -45093.439    264.99101   0.99768205 
   24300    288.28276   -25.368655    138137.89   -41139.042    3958.8695   -45097.911    266.13544   0.99789072 
   24400    294.63822    70.241363    137965.48   -41152.182    4046.1465   -45198.329    267.30811   0.99913772 
   24500     285.9426   -120.82192    137974.29   -41185.794     3926.733   -45112.527    268.10315   0.99907392 
   24600    290.00887    84.721049    138082.63   -41194.783    3982.5734   -45177.357    269.23469   0.99829007 
   24700    287.89713   -15.000175    138500.45     -41210.4    3953.5739   -45163.974    270.73947   0.99527849 
   24800    285.50158   -74.335522    138615.95   -41201.454    3920.6767    -45122.13    271.52668   0.99444914 
   24900    287.19415   -62.872952    138085.97   -41253.197      3943.92   -45197.117    272.11463   0.99826591 
   25000    284.71262   -161.69999    138233.73       -41302    3909.8423   -45211.843    272.67153   0.99719887 
   25100    282.50861   -15.309257    138329.59   -41282.202    3879.5755   -45161.778    273.72189   0.99650781 
   25200    286.80137   -2.2460875    138266.15   -41313.291    3938.5261   -45251.817    274.22366   0.99696506 
   25300    287.29698   -121.39445     138206.9   -41339.632    3945.3322   -45284.964     275.4645   0.99739243 
   25400    284.52121   -6.4333119    137996.53   -41272.704    3907.2137   -45179.917    276.81811   0.99891295 
   25500    289.49487   -41.581972    138569.57   -41276.662    3975.5149   -45252.177    278.72204   0.99478204 
   25600    289.80638    275.14147    138344.95   -41315.708    3979.7928     -45295.5    280.09408   0.99639715 
   25700    282.94864     10.22948     138270.4   -41328.984    3885.6182   -45214.602    281.48522   0.99693436 
   25800    276.95339   -69.983851    138263.04   -41409.362    3803.2879    -45212.65    282.37908   0.99698748 
   25900    281.25389     10.59682    138132.67   -41403.859     3862.345   -45266.204     283.1962    0.9979284 
   26000     279.7037     58.21447    138291.79   -41273.444    3841.0568   -45114.501    284.08964   0.99678018 
   26100    287.88901    153.43656    138522.32   -41247.009    3953.4623   -45200.471    285.80322   0.99512134 
   26200    289.47428   -180.04128    138512.29    -41104.22    3975.2321   -45079.452    286.85637   0.99519343 
   26300    284.60761   -140.67261    138339.41   -41193.289    3908.4002   -45101.689    287.72065   0.99643705 
   26400    291.60087    9.7466982    138408.55   -41151.263    4004.4357   -45155.699    288.84594   0.99593932 
   26500    291.12196   -85.619655    138325.37   -41085.508     3997.859   -45083.367    289.59212   0.99653821 
   26600    286.98989   -59.744908    138595.01   -41200.876     3941.115   -45141.991    291.43768   0.99459944 
   26700    287.26994    61.799243    138468.02    -41165.37    3944.9609    -45110.33    292.12673   0.99551158 
   26800    291.07853   -160.59396    137994.17   -41215.779    3997.2626   -45213.041    293.09405   0.99893003 
   26900    287.14895   -4.2993163    137740.91   -41344.305    3943.2994   -45287.604    293.90897    1.0007667 
   27000    285.61613   -5.6124877    137965.71   -41374.889    3922.2498   -45297.139    295.44319   0.99913605 
   27100    284.81116    12.195808    138183.15   -41279.675    3911.1954   -45190.871    296.75853   0.99756383 
   27200    289.83668    66.742821    137899.69   -41246.424    3980.2089   -45226.633    296.91342   0.99961438 
   27300    293.42476    -3.545716    137791.77    -41178.52    4029.4825   -45208.003    297.85909    1.0003974 
   27400    291.62181   -66.828978    137755.77   -41243.032    4004.7233   -45247.756    298.73252    1.0006587 
   27500    287.21945    141.80295    137848.47   -41213.061    3944.2675   -45157.329    300.99582   0.99998581 
   27600    288.90041   -188.59568    137751.19   -41154.336    3967.3514   -45121.687    301.89584     1.000692 
   27700     289.2021   -2.6496116    137645.66   -41145.335    3971.4944   -45116.829    302.62308    1.0014593 
   27800    289.52413    352.54236    137863.11   -41187.826    3975.9167   -45163.742    304.62948   0.99987961 
   27900    287.56025   -11.005904    137692.88   -41105.726    3948.9476   -45054.673    305.59304    1.0011158 
   28000     291.2542    362.52697    137919.51   -41085.377    3999.6751   -45085.052    307.30293   0.99947072 
   28100    285.49392   -30.007098    137723.09   -41187.175    3920.5714   -45107.747    307.54392    1.0008962 
   28200    275.65043   -88.858387    137772.78   -41292.762    3785.3949   -45078.157    309.12674    1.0005352 
   28300    290.20751     261.5348    137992.13   -41244.867    3985.3014   -45230.168     310.8675    0.9989448 
   28400    292.20314    32.131526    138537.62   -41193.948    4012.7065   -45206.655    313.02958    0.9950114 
   28500    287.61276   -166.63652    138408.76   -41278.608    3949.6686   -45228.277    313.58498    0.9959378 
   28600    285.52992    201.15427    138317.22   -41323.541    3921.0659   -45244.607    314.77244   0.99659692 
   28700    283.26125   -195.78066    137942.91   -41363.273    3889.9112   -45253.184    316.44891   0.99930121 
   28800    283.45304    -35.98917    137837.95   -41317.327    3892.5449   -45209.872    317.68788    1.0000621 
   28900    283.80427      119.129     137908.8   -41328.682    3897.3683    -45226.05    319.10563    0.9995484 
   29000    286.76907    80.576739    138179.61   -41302.599    3938.0827   -45240.682    320.77444   0.99758945 
   29100    281.98823   -37.854793    138264.94   -41242.371    3872.4293     -45114.8    321.96344   0.99697377 
   29200    288.97447   -232.55255    138139.66   -41289.511    3968.3685    -45257.88    323.13858   0.99787795 
   29300    285.78948   -29.952889    138029.87   -41219.827    3924.6304   -45144.457    324.09396   0.99867161 
   29400    283.02683    37.847236    138219.68   -41275.531     3886.692   -45162.223    326.35347   0.99730025 
   29500    281.17197    24.929266    138186.52   -41204.845    3861.2199   -45066.065    327.32017   0.99753953 
   29600    283.74091    20.735598     138004.1    -41225.75    3896.4982   -45122.248    327.53735   0.99885814 
   29700    290.60178   0.87139445    138171.24   -41201.868    3990.7157   -45192.583    328.88859   0.99764982 
   29800    288.43423    50.864504    138081.02   -41139.783    3960.9496   -45100.732    329.35567   0.99830172 
   29900    291.36345    160.05934    138052.19   -41134.958    4001.1753   -45136.134    330.53689   0.99851015 
   30000    287.01793     54.10707    137959.64   -41162.845    3941.5001   -45104.346    331.75801   0.99917999 
   30100    292.07947   -136.16073     137923.8    -41166.47    4011.0081   -45177.478    332.36828   0.99943966 
   30200    288.98222    -14.87899    138033.31   -41168.447    3968.4749   -45136.922    334.46935   0.99864672 
   30300    289.90101   -5.9194645    138092.66   -41276.381    3981.0923   -45257.473    336.50568   0.99821752 
   30400    276.79554   -6.5705547    138090.33   -41348.054    3801.1201   -45149.174    338.06938   0.99823438 
   30500     279.2538    124.73176    138101.35   -41335.507    3834.8785   -45170.385    339.36305   0.99815471 
   30600     280.5384   -139.03469    138003.15   -41400.778    3852.5193   -45253.297    340.44996   0.99886503 
   30700    286.52623    152.74671    138297.12    -41276.02    3934.7477   -45210.768     341.7407    0.9967418 
   30800    286.38177   -65.080545     138167.5   -41218.932     3932.764   -45151.696    342.30642   0.99767683 
   30900    284.27139    100.86179    138489.62    -41252.81     3903.783   -45156.593    343.98307   0.99535629 
   31000     291.0192    -37.36536    138282.19   -41235.253    3996.4478   -45231.701    344.39247   0.99684938 
   31100    285.32247   -80.717859    138344.68   -41389.182     3918.217   -45307.399    346.10583   0.99639915 
   31200    293.21187   -103.25485    138288.24   -41344.709     4026.559   -45371.268    346.75212   0.99680579 
   31300    284.02808    94.559867    138334.36    -41345.08    3900.4418   -45245.521    348.03473   0.99647341 
   31400    286.45022    174.13271    138012.48   -41316.219    3933.7039   -45249.923    348.60082   0.99879751 
   31500    285.07713   -100.89362    138489.98   -41208.489    3914.8478   -45123.337    350.46168   0.99535375 
   31600    288.33944    169.89156     138479.7   -41282.155    3959.6478   -45241.802    351.26658   0.99542763 
   31700    280.15973   -97.190529    138324.35   -41285.884    3847.3192   -45133.203     352.3955   0.99654559 
   31800    284.95107   -102.41248    138033.73   -41295.504    3913.1167   -45208.621    352.58397    0.9986437 
   31900    286.13014    136.89054    137894.91    -41194.94    3929.3084   -45124.249    353.67957   0.99964909 
   32000    286.06971    157.66315    137823.02   -41214.648    3928.4786   -45143.127    354.22106    1.0001705 
   32100    287.20485   -49.477626    137879.11    -41227.48     3944.067   -45171.547    355.48252   0.99976363 
   32200    286.49186   -28.602865    138074.08   -41246.019    3934.2758   -45180.295    356.19908   0.99835191 
   32300       290.62   -64.008473    138200.81   -41208.092    3990.9659   -45199.058    357.20486   0.99743639 
   32400    287.38589   -114.94578    137836.84   -41163.944    3946.5531   -45110.497    358.11182    1.0000702 
   32500    291.70385   -20.321961    137942.86   -41237.831    4005.8499    -45243.68    358.94015    0.9993016 
   32600    287.71844   -15.205004    137993.92   -41235.078    3951.1199   -45186.198    360.48839   0.99893178 
   32700    288.55909    6.5532884    137901.58   -41185.459    3962.6642   -45148.123    360.98032   0.99960073 
   32800    283.90864      242.929    137993.71   -41251.822    3898.8015   -45150.624    362.74842   0.99893334 
   32900    286.54727   -162.89578    137847.94   -41318.963    3935.0368       -45254    363.68624   0.99998968 
   33000    285.85885    215.05587    137780.48   -41289.923     3925.583   -45215.506    364.71714    1.0004793 
   33100      285.585    168.01874    138254.26   -41243.298    3921.8222    -45165.12    367.13516   0.99705077 
   33200    285.63127    100.40375    138257.51   -41196.598    3922.4577   -45119.056    368.22453   0.99702734 
   33300    283.36101   -35.624315    137963.67   -41240.822    3891.2811   -45132.103    369.38782   0.99915081 
   33400    291.91156   -100.90925    137928.71   -41208.762    4008.7024   -45217.465    370.46642   0.99940408 
   33500    288.94894    28.143066    137981.82   -41168.451    3968.0179   -45136.469    371.67637   0.99901939 
   33600     286.9699   -198.64178     138039.8   -41176.329    3940.8406    -45117.17    372.51724    0.9985998 
   33700    291.53225    71.289798    138106.29   -41202.302    4003.4933   -45205.796    374.18828     0.998119 
   33800    286.93754   -304.78833    137781.92   -41226.729    3940.3962   -45167.125    375.94073    1.0004688 
   33900    292.26578    163.14444    137830.79   -41183.666    4013.5666   -45197.232    376.96241    1.0001141 
   34000    283.81897    -123.9967    137342.46   -41293.727    3897.5701   -45191.297    376.90465    1.0036701 
   34100    284.84114    199.03964    137535.48   -41316.394    3911.6072   -45228.001    378.34914    1.0022615 
   34200    282.03298   -72.231883    137542.17   -41278.798    3873.0438   -45151.842    379.10831    1.0022128 
   34300    288.40702    291.27551    137811.24   -41228.855    3960.5759   -45189.431    380.94177     1.000256 
   34400    299.05544   -12.542799    138166.18   -41061.984    4106.8063    -45168.79    382.53246   0.99768639 
   34500     295.7492     4.902099    138045.46   -41050.335    4061.4031   -45111.738    383.54752   0.99855883 
   34600     287.1708    54.916523    138151.86     -41197.7    3943.5994     -45141.3    385.80328   0.99778979 
   34700     290.0203   -108.79666    138152.83   -41234.271    3982.7304   -45217.002    387.65938   0.99778278 
   34800    287.22174    168.70441    138257.38   -41270.879    3944.2989   -45215.178     389.1735   0.99702829 
   34900    290.80923    165.51663     138520.1   -41256.104    3993.5644   -45249.668    391.00988   0.99513728 
   35000    287.18928     158.8708     138471.3   -41300.122    3943.8532   -45243.975    392.02262     0.995488 
   35100    284.75069   -149.26121    138034.43   -41246.417     3910.365   -45156.782    392.53048   0.99863864 
   35200    284.85586    344.71055    138090.18   -41119.616    3911.8093   -45031.426    393.83129   0.99823551 
   35300    286.62117    50.341041    138094.91   -41197.951    3936.0516   -45134.002    394.72209   0.99820127 
   35400    284.47914   -29.477936    137905.24   -41300.841     3906.636   -45207.477    396.00711   0.99957414 
   35500    281.02587   -9.2148278    137528.43   -41260.484    3859.2136   -45119.698    396.54022    1.0023129 
   35600    285.73564    100.46562    137742.17   -41262.416    3923.8909   -45186.307    399.78809    1.0007575 
   35700    287.28751    129.77291    138058.82    -41223.48    3945.2021   -45168.682    402.62124   0.99846221 
   35800    285.70843   -60.510623    138014.36   -41207.914    3923.5173   -45131.431    403.10056   0.99878385 
   35900    287.62128   -222.96153    138086.69   -41190.359    3949.7857   -45140.145    404.47883   0.99826071 
   36000    289.48891   -277.00124    137995.28   -41199.949     3975.433   -45175.382    405.33814   0.99892196 
   36100      284.102     131.9048    137922.99   -41271.532    3901.4569   -45172.989    406.71081   0.99944554 
   36200     285.7278   -91.537249    137723.97   -41235.073    3923.7833   -45158.857    407.64679    1.0008898 
   36300    287.68661    278.47026    138101.22   -41219.227    3950.6828    -45169.91    409.62505   0.99815566 
   36400    295.77622    195.62155    137986.38   -41064.333    4061.7742   -45126.107    410.35332   0.99898637 
   36500    288.75899    292.11782    138103.16   -41106.209    3965.4094   -45071.618    411.83338   0.99814164 
   36600    289.31294    148.92151    138018.43   -41180.431    3973.0165   -45153.448    412.40229   0.99875441 
   36700    294.99411   -30.261926    138351.66   -41206.554    4051.0337   -45257.588    414.77484   0.99634882 
   36800    289.58429    56.940923    138344.25   -41311.459    3976.7429   -45288.202    415.79578   0.99640224 
   36900    282.34874   -67.463645    138399.52     -41337.6      3877.38    -45214.98    417.35399   0.99600429 
   37000    285.39864   -14.230953    138210.88   -41308.444     3919.263   -45227.707    418.18073   0.99736373 
   37100      281.373   -251.62058    138402.79   -41338.815    3863.9806   -45202.796    419.55815   0.99598074 
   37200    285.66284    62.941406    138165.55   -41304.386    3922.8912   -45227.278    420.40769   0.99769095 
   37300    285.23066     -117.636    137933.72   -41272.369    3916.9562   -45189.325    421.36864   0.99936777 
   37400    286.05904   -6.7087315    137956.82   -41334.408     3928.332    -45262.74    422.66146   0.99920044 
   37500    281.03698    99.722866    137983.11   -41366.569    3859.3661   -45225.935    423.05184   0.99901005 
   37600     284.2516    60.171509    137820.59   -41370.201    3903.5112   -45273.712    423.72625    1.0001881 
   37700    291.33204   -187.68572    138065.53   -41370.924    4000.7441   -45371.668    425.38542    0.9984137 
   37800    285.09921   -168.47772    137930.35   -41352.267    3915.1511   -45267.418    426.20987   0.99939224 
   37900    287.37683    155.13232    137939.98    -41361.62    3946.4287   -45308.049     426.6446   0.99932241 
   38000    278.44304   -296.26614    138187.33   -41358.423    3823.7447   -45182.168    428.38628   0.99753372 
   38100    285.03408   -147.02095    137787.27   -41311.035    3914.2567   -45225.292    429.31486      1.00043 
   38200    284.00302    36.437469    137792.23   -41361.941    3900.0976   -45262.039    429.71072     1.000394 
   38300    280.95918   -56.091364    137686.38    -41406.02    3858.2977   -45264.318     430.2751    1.0011631 
   38400    284.49586     83.99637    137639.32   -41482.848    3906.8655   -45389.713    431.11038    1.0015054 
   38500    276.76568    120.75078    138070.93   -41420.759    3800.7101   -45221.469    433.22044   0.99837465 
   38600    281.37063   -123.86286    138191.29   -41306.656     3863.948   -45170.604    433.71752   0.99750513 
   38700    287.88142    62.436217     137946.7   -41286.003     3953.358   -45239.361    435.45179   0.99927374 
   38800    285.58582    136.66298    137945.02   -41262.464    3921.8335   -45184.298    437.35188   0.99928592 
   38900    287.47186   -195.93445    138014.15   -41227.558    3947.7337   -45175.291    438.67403   0.99878539 
   39000    287.41905    114.24908    137696.93   -41186.195    3947.0085   -45133.203    438.85108    1.0010863 
   39100    289.37892   -216.52222    137582.89    -41286.04    3973.9226   -45259.963    439.95883    1.0019161 
   39200    288.04682    76.120119    137737.94   -41245.902    3955.6295   -45201.532    442.20423    1.0007883 
   39300    294.98692   -12.164251    138020.93   -41196.828     4050.935   -45247.763    443.66849   0.99873632 
   39400    289.15855   -41.926479    138045.29   -41238.379    3970.8963   -45209.276    445.56174   0.99856008 
   39500    290.14903   -111.99521    138126.46    -41178.02    3984.4982   -45162.518    446.72565   0.99797329 
   39600    293.48057   -174.78217    138423.28   -41183.875    4030.2489   -45214.124    449.13947   0.99583334 
   39700     288.4517    22.925226    138246.38   -41252.359    3961.1895   -45213.549    449.95631   0.99710758 
   39800    283.28482    186.57699    138503.86   -41295.994    3890.2349   -45186.229    452.18344   0.99525395 
   39900    285.43791    70.407264    138389.72   -41407.198    3919.8024       -45327    453.37933   0.99607485 
   40000    286.07467    232.62357    138080.08   -41267.205    3928.5467   -45195.751    454.42034   0.99830853 
   40100    289.27463   -61.803513    138179.25   -41202.351    3972.4905   -45174.842    456.44859   0.99759203 
   40200    291.02616    59.248963    137970.87   -41185.351    3996.5434   -45181.894    457.86227    0.9990987 
   40300    292.21297    34.576495    137775.04   -41244.139    4012.8414    -45256.98    458.29733    1.0005188 
   40400    287.35505   -85.981954    137817.98   -41312.212    3946.1297   -45258.341    460.74619     1.000207 
   40500    285.56842    212.71153    138190.14    -41300.29    3921.5946   -45221.884    462.62586   0.99751339 
   40600    284.45501   -110.67773    138630.24   -41259.968    3906.3045   -45166.273    464.45102   0.99434665 
   40700    282.64791    135.15663    138829.65   -41266.624    3881.4884   -45148.113    465.79886   0.99291845 
   40800    287.02035    -99.49267    138540.48   -41265.945    3941.5333   -45207.478    465.43519   0.99499089 
   40900    284.46202   -218.26656    138269.73   -41322.143    3906.4008   -45228.544    465.93591   0.99693922 
   41000     285.5934   -420.35622    138109.69   -41335.437    3921.9376   -45257.375    466.10682   0.99809446 
   41100    292.79917    14.515016    137916.12   -41273.265    4020.8915   -45294.156    466.69421   0.99949532 
   41200    286.39436    61.912501     137753.6   -41207.569    3932.9369   -45140.505     467.8089    1.0006745 
   41300     281.1379   -12.903649    137744.32   -41315.181    3860.7521   -45175.933    469.06148    1.0007419 
   41400    284.44175   -14.942998    137738.76   -41296.184    3906.1225   -45202.306    470.20683    1.0007823 
   41500    284.31551    95.899256    137890.63   -41294.199    3904.3889   -45198.588    471.67927   0.99968012 
   41600    287.56637    110.32104    137834.42   -41262.706    3949.0316   -45211.737    472.97435    1.0000878 
   41700    284.64353    148.12859    137941.61   -41314.446    3908.8934   -45223.339    475.19291   0.99931064 
   41800    287.26611    22.959746    137755.89   -41183.759    3944.9082   -45128.667    475.13438    1.0006579 
   41900    284.58887   -317.02128     137790.6   -41198.527    3908.1429    -45106.67    475.91735    1.0004058 
   42000    289.15109    64.194721    137534.46   -41208.081    3970.7939   -45178.875    477.21368     1.002269 
   42100    285.12821    289.90232    137710.76    -41209.94    3915.5494   -45125.489     478.1866    1.0009858 
   42200    293.40867    36.007831    137872.73    -41186.98    4029.2616   -45216.242    479.05606   0.99980987 
   42300    286.10617   -137.85844     137784.9   -41303.967    3928.9793   -45232.946    480.39962    1.0004472 
   42400    286.67882   -259.15355    137763.33   -41244.928    3936.8432   -45181.771     481.9454    1.0006038 
   42500    289.59689   -54.412154    137760.97   -41325.559     3976.916   -45302.475    482.91089     1.000621 
   42600    285.39142    15.002835    137631.54   -41329.566    3919.1639    -45248.73    483.83434    1.0015619 
   42700    276.62531    207.10821    137963.55   -41396.554    3798.7825   -45195.337    485.10646   0.99915174 
   42800    281.12326   -8.4843081    137975.07   -41391.902     3860.551   -45252.453    485.60381   0.99906825 
   42900    281.06729    149.10507    137966.79   -41330.725    3859.7824   -45190.507    487.44413   0.99912827 
   43000    278.87695    21.085113    137977.69   -41332.145    3829.7033   -45161.848    488.64699   0.99904928 
   43100    286.47073   -97.793875    137836.42   -41357.302    3933.9856   -45291.287    489.36679    1.0000733 
   43200    282.29386    43.848766     138094.3   -41364.877    3876.6263   -45241.504    490.56109   0.99820573 
   43300    283.81492    23.135554    138170.11   -41353.955    3897.5145   -45251.469    491.91025   0.99765798 
   43400    291.42256    24.180928    138101.84   -41314.913     4001.987     -45316.9     492.2496    0.9981512 
   43500    286.46087    143.80005    138091.72   -41345.234    3933.8503   -45279.085    493.65554   0.99822431 
   43600    285.96659   -29.947134     138166.6   -41336.653    3927.0625   -45263.715    495.26975   0.99768335 
   43700     285.5535   -28.753422    138144.44   -41298.702    3921.3897   -45220.092     496.0841    0.9978434 
   43800     287.1428    166.61419    138243.29   -41302.326    3943.2149   -45245.541    498.00674   0.99712988 
   43900    284.22448   -103.24732    138455.43   -41367.751    3903.1388   -45270.889    500.03581   0.99560209 
   44000     290.9846    93.562791    138512.23   -41322.946    3995.9727   -45318.919    501.52904   0.99519382 
   44100    289.88669   -158.59355    138329.61   -41273.516    3980.8956   -45254.412    503.10346   0.99650766 
   44200    285.96596   -174.89566    138176.13   -41335.452    3927.0538   -45262.506    503.77204   0.99761454 
   44300    279.39845     206.0937     138271.4   -41442.648    3836.8649   -45279.513    505.21059   0.99692716 
   44400    285.51879    167.21846    138301.52   -41410.671    3920.9131   -45331.584    506.91029   0.99671006 
   44500    284.27116    230.26271    138633.44    -41399.37    3903.7798    -45303.15    509.21386   0.99432374 
   44600    281.41045    12.860731    138765.23   -41441.779    3864.4948   -45306.274    510.75624   0.99337936 
   44700    281.61687   -142.59349    138804.35   -41410.652    3867.3295   -45277.982     512.5614   0.99309943 
   44800    283.13281   -20.611665    138834.35   -41363.048    3888.1473   -45251.195    513.31379   0.99288483 
   44900    282.90855    100.20444    138784.92   -41344.594    3885.0676   -45229.662      513.872   0.99323846 
   45000    285.27562    -326.8716    138628.99    -41318.12    3917.5737   -45235.694    513.73498   0.99435561 
   45100    286.19711   -116.11848    138224.99   -41330.904    3930.2282   -45261.132    513.68033   0.99726191 
   45200    278.13659   -230.50119    138053.87   -41353.117    3819.5362   -45172.653    514.46584   0.99849805 
   45300    288.66914     71.59181    138042.49   -41354.838    3964.1755   -45319.014    515.19534   0.99858037 
   45400    281.38552    86.795432     138614.8   -41347.383    3864.1526   -45211.536    517.24666   0.99445742 
   45500    280.82758   -235.70641    138597.18    -41272.17    3856.4906    -45128.66    519.25039   0.99458383 
   45600    287.74525   -193.86136    138281.75   -41269.031    3951.4881   -45220.519    519.45512   0.99685259 
   45700    289.36231    110.82939    138292.77   -41193.141    3973.6945   -45166.836    519.81688   0.99677312 
   45800    282.82817   -168.27345    137986.87   -41239.107    3883.9638   -45123.071    519.95277   0.99898285 
   45900    289.52759   -93.310982    137863.53   -41190.145    3975.9642   -45166.109    520.35422   0.99987658 
   46000    287.83005   -68.681968    137548.48   -41251.609    3952.6526   -45204.262      520.446    1.0021668 
   46100    284.00271    49.263568    137784.64   -41233.298    3900.0933   -45133.391    521.74382    1.0004491 
   46200    293.31638   -92.270837    137846.64   -41191.018    4027.9941   -45219.012    522.31267   0.99999913 
   46300    283.56923     140.2875    137976.81   -41260.981    3894.1405   -45155.122     524.0213   0.99905571 
   46400    288.89108   -15.477603    138111.08   -41247.336    3967.2233    -45214.56    525.37849   0.99808443 
   46500    292.28505    51.755016    137987.47    -41241.96    4013.8313   -45255.791    526.43215    0.9989785 
   46600    294.87994    210.26894    138289.81   -41179.979    4049.4659   -45229.444    527.95924   0.99679447 
   46700    294.49866   -118.56282    138473.92   -41160.912    4044.2299   -45205.142    529.67763   0.99546917 
   46800    291.62847   -153.07212    138314.97   -41122.201    4004.8147   -45127.016    530.61809   0.99661317 
   46900    291.19174    185.76879    138196.17   -41158.589    3998.8173   -45157.406    531.69862   0.99746987 
   47000    289.72248    40.956769    138043.67   -41222.718    3978.6406   -45201.358    532.06811   0.99857179 
   47100    287.10765    102.60632    137943.07   -41226.442    3942.7322   -45169.174    532.55334   0.99930004 
   47200    288.06674   -34.825814    137903.07   -41225.405     3955.903   -45181.308    533.44097   0.99958988 
   47300    291.05408   -13.974671    137383.39   -41157.694     3996.927   -45154.621    533.26305    1.0033711 
   47400    287.35439   -116.37711    137505.38     -41194.7    3946.1205    -45140.82    534.95788    1.0024809 
   47500    285.63227   -41.920174    137464.14   -41194.955    3922.4714   -45117.426    536.65578    1.0027816 
   47600    289.43882   -102.14354    137558.96   -41176.102    3974.7452   -45150.848    537.58411    1.0020905 
   47700     287.5462    203.15726    137719.84   -41237.084    3948.7546   -45185.838    538.87189    1.0009198 
   47800    285.07009   -25.732602    137935.53   -41320.875    3914.7512   -45235.626    541.14749   0.99935465 
   47900    282.56173   -101.62777     137672.3   -41271.535     3880.305    -45151.84    540.88634    1.0012654 
   48000    288.45898   -60.734181    137870.57   -41250.499    3961.2894   -45211.789    541.23617   0.99982552 
   48100    285.68705   -191.37715    137546.19   -41271.895    3923.2236   -45195.119    541.48449    1.0021835 
   48200     287.0025   -4.3101758    137833.19   -41228.808    3941.2883   -45170.096    544.45054    1.0000967 
   48300    285.08957   -77.088291    137842.25   -41233.141    3915.0187   -45148.159    546.29035    1.0000309 
   48400    284.13979    124.98929    138238.21   -41237.079    3901.9758   -45139.055    548.21399   0.99716655 
   48500    284.28755    -32.11198    138072.59     -41279.3    3904.0049   -45183.305     548.1486   0.99836267 
   48600     282.2165    39.341856     138005.5   -41264.843     3875.564   -45140.407    549.70623   0.99884797 
   48700    281.46528    51.621434    138088.54   -41301.188    3865.2479   -45166.435    550.81758    0.9982473 
   48800    284.18501   -226.88547    137680.44   -41270.213    3902.5968    -45172.81    550.87641    1.0012063 
   48900    284.28682    79.291503    138075.16   -41236.019    3903.9949   -45140.014    552.70021   0.99834407 
   49000    288.86768   -128.48381    137899.99   -41237.605     3966.902   -45204.507    553.25066    0.9996122 
   49100    282.66265    96.859752    137635.27    -41322.85    3881.6908    -45204.54    553.82492    1.0015348 
   49200    282.24313    166.77233    137794.41    -41364.37    3875.9297     -45240.3    553.95679    1.0003782 
   49300    286.49593    376.56555    137960.77   -41273.004    3934.3317   -45207.336    555.01804   0.99917184 
   49400    289.10309    42.020328    138049.42   -41313.254    3970.1347   -45283.389    556.54647    0.9985302 
   49500    283.03379    165.05246    137802.24    -41285.21    3886.7876   -45171.998    557.13123    1.0003213 
   49600    284.51275   -78.430892    137866.38   -41281.633    3907.0975   -45188.731    558.14126   0.99985592 
   49700    285.09471    19.732492    137875.98   -41272.732    3915.0893   -45187.821    559.20366   0.99978631 
   49800    288.44051   -114.76083    137937.67   -41247.229    3961.0358   -45208.265    560.88211    0.9993392 
   49900    288.19351   -60.951977    138059.82   -41230.505    3957.6439   -45188.149    562.43287   0.99845499 
   50000     286.5512    -10.36634     137907.3   -41309.304    3935.0907   -45244.395    562.55998   0.99955926 
   50100    290.77592    138.44752    137933.98   -41287.038    3993.1071   -45280.145     564.4119   0.99936592 
   50200    283.81487   -84.120937    138025.51   -41313.046    3897.5137    -45210.56    564.75191   0.99870315 
   50300    289.82716    174.82609    138042.78   -41282.191    3980.0781   -45262.269    566.09614   0.99857822 
   50400     285.7651    -61.10783    138393.03   -41313.491    3924.2955   -45237.787    568.28399   0.99605101 
   50500    295.45561    114.54943    138156.14   -41302.847    4057.3713   -45360.219    568.99047   0.99775889 
   50600    284.43868   -54.603988    138178.31   -41348.512    3906.0803   -45254.592    570.99829   0.99759879 
   50700    290.90737    -137.0198    137983.41   -41220.755    3994.9121   -45215.667     571.8574   0.99900786 
   50800    290.95612    18.273953    137833.44   -41211.715    3995.5817   -45207.297    572.22055    1.0000949 
   50900    290.55051    153.86753    138206.55   -41254.632    3990.0115   -45244.644    574.18658   0.99739499 
   51000    282.16397    98.650764    138448.85   -41262.271    3874.8427   -45137.113    576.38055   0.99564943 
   51100    291.02457    80.469432    138353.83   -41250.619    3996.5217   -45247.141    576.50463    0.9963332 
   51200    291.40697   -27.405035    138462.13   -41108.683    4001.7731   -45110.457     577.8751   0.99555391 
   51300    290.37435   -186.05198    138123.73   -41209.616    3987.5924   -45197.208    578.21446     0.997993 
   51400    278.60668    77.562828    138083.48   -41352.013    3825.9918   -45178.005    578.17345   0.99828394 
   51500     282.7851    183.25332    138065.74   -41274.237    3883.3723   -45157.609    579.75971   0.99841216 
   51600    287.51026   -204.86126    137873.49    -41288.84     3948.261   -45237.101    580.86117   0.99980434 
   51700    285.63898    187.93287    137877.85   -41289.594    3922.5636   -45212.157    581.67091   0.99977271 
   51800    287.35093    210.01179    137895.45    -41327.79     3946.073   -45273.863    583.68623   0.99964513 
   51900    282.24339   -121.57887    138023.03   -41342.066    3875.9333       -45218    584.73919   0.99872113 
   52000    286.66049     174.8516    138171.47    -41308.58    3936.5915   -45245.171    587.65509   0.99764815 
   52100    282.21304   -75.370325    137988.78   -41333.634    3875.5166    -45209.15    587.54082   0.99896901 
   52200    285.85746   -335.39985    137797.29   -41340.545    3925.5639   -45266.109    588.05734    1.0003573 
   52300    284.95914    31.979451    137759.64   -41314.569    3913.2276   -45227.796    589.26613    1.0006306 
   52400    282.49788   -166.86438    137653.88   -41255.631    3879.4281   -45135.059    590.74348    1.0013994 
   52500    289.33521   -237.17597    137602.51   -41249.823    3973.3224   -45223.145    592.40178    1.0017733 
   52600    281.32567    64.170332     138078.8    -41325.91    3863.3306    -45189.24    594.38715   0.99831778 
   52700    282.44624   -2.0391393    137719.06   -41345.387    3878.7189   -45224.105    595.60304    1.0009255 
   52800    285.05575    19.817927    137593.81   -41387.257    3914.5542   -45301.811    596.10352    1.0018366 
   52900    284.21461   -77.970035    137829.32   -41397.054    3903.0032   -45300.057     598.6134    1.0001248 
   53000     281.7319    52.022673    137900.18   -41429.101    3868.9092    -45298.01    599.71363   0.99961086 
   53100    276.60393   -138.78992    138100.86   -41426.524    3798.4889   -45225.013    601.46819   0.99815827 
   53200    282.70941   -6.8351775    138349.96   -41280.027     3882.333    -45162.36    602.30371   0.99636105 
   53300    290.27866     163.3207    138590.63   -41309.878    3986.2783   -45296.156     604.6526   0.99463087 
   53400    285.09312     83.26127    138502.17   -41177.572    3915.0675   -45092.639    605.71733   0.99526612 
   53500    286.81766   -66.191466    138407.57   -41200.629    3938.7499   -45139.379    607.17198   0.99594636 
   53600    294.47676    207.62544    138555.46    -41206.56    4043.9292   -45250.489    609.07346   0.99488333 
   53700    287.77644   -231.75808    138905.75     -41319.6    3951.9164   -45271.516    610.92705   0.99237442 
   53800    282.77163   -64.620319     138538.3   -41388.302    3883.1873   -45271.489    611.00007   0.99500655 
   53900     281.8693    -144.7558    138401.31   -41426.251     3870.796   -45297.047    610.70097   0.99599145 
   54000    285.39182   -99.511862    138083.17   -41335.314    3919.1693   -45254.483    610.60911   0.99828614 
   54100    281.84825    47.667559    138177.29   -41304.274     3870.507   -45174.781    611.85257   0.99760616 
   54200    281.38718    159.29721    138046.66   -41356.348    3864.1753   -45220.524    613.31749   0.99855015 
   54300    292.81522   -39.723684     138341.6   -41266.042     4021.112   -45287.154    615.97598    0.9964213 
   54400    282.58611   -90.895417    138216.08   -41388.368    3880.6397   -45269.008    616.90722    0.9973262 
   54500    280.71988   -72.195401     138103.4   -41328.913    3855.0116   -45183.925    617.92852   0.99813992 
   54600    281.69459    11.753969    138032.92   -41299.585    3868.3968   -45167.982    619.18251   0.99864956 
   54700    284.44453    165.03072    138400.61   -41314.517    3906.1606   -45220.678    621.65513   0.99599644 
   54800    287.70068   -74.625671    138401.58   -41256.479    3950.8761   -45207.355    622.98758   0.99598945 
   54900    284.81146   -21.518671    138310.99   -41206.096    3911.1995   -45117.296    623.57455   0.99664183 
   55000    284.37865    177.50726    138180.09   -41162.549     3905.256   -45067.805     624.3436   0.99758594 
   55100    295.13285     173.6286    138362.67   -41138.878     4052.939   -45191.817    626.58713   0.99626955 
   55200    292.28767    274.13634    138443.62   -41173.054    4013.8672   -45186.921    628.11383   0.99568699 
   55300    285.81435    17.710188     138549.6   -41231.802    3924.9718   -45156.774    630.12687   0.99492541 
   55400    288.52196    4.1385582    138996.05   -41218.222    3962.1543   -45180.376    633.57721   0.99172973 
   55500    288.76102   -184.14777    138832.76   -41193.937    3965.4373   -45159.374    634.82595   0.99289618 
   55600    296.59458   -301.99997    138721.99   -41146.027    4073.0124   -45219.039    636.09691   0.99368897 
   55700    289.07916   -239.20429    138322.73   -41237.729    3969.8061   -45207.535    636.64006   0.99655724 
   55800    286.66095   -232.50799    138363.39   -41367.806    3936.5978   -45304.404     637.9925   0.99626441 
   55900    281.87895    239.16511     138190.6    -41417.99    3870.9286   -45288.918    638.04637   0.99751005 
   56000     286.2056   -2.4601794    137999.05   -41399.137    3930.3447   -45329.482    638.33824   0.99889465 
   56100    281.01263   -90.820068    138086.68   -41399.908    3859.0318    -45258.94    640.62428   0.99826081 
   56200    286.82517   -185.78491    138099.18    -41307.54     3938.853   -45246.393     641.7719    0.9981704 
   56300    287.02205   -241.52245    138283.48   -41232.696    3941.5566   -45174.252     642.9806   0.99684012 
   56400     288.7807   -110.82168    138040.91    -41138.34    3965.7074   -45104.048    642.24466    0.9985918 
   56500     287.1332   -261.33803    138330.71   -41233.576     3943.083   -45176.659    643.90038   0.99649973 
   56600     286.5708    -293.7907    138398.32   -41194.492    3935.3598   -45129.852    645.38516   0.99601292 
   56700    287.02852   -166.69738    137978.92   -41235.195    3941.6456    -45176.84    645.63341   0.99904043 
   56800     281.1956    192.10719    138053.09   -41212.433    3861.5444   -45073.977    646.87387   0.99850367 
   56900    278.85499    94.241005    137796.36   -41267.498    3829.4018     -45096.9    647.43149     1.000364 
   57000    286.41556   -97.063738    137571.37   -41302.691     3933.228   -45235.919    648.79356        1.002 
   57100    276.78347    55.898282    137658.99   -41438.547    3800.9544   -45239.501    649.36027    1.0013622 
   57200    282.78343   -14.235642    137398.79   -41434.109    3883.3494   -45317.459    650.34325    1.0032586 
   57300    282.98087    31.863117    137439.76   -41387.377    3886.0608   -45273.438    652.10453    1.0029595 
   57400    290.84247   -27.841748    137398.94   -41316.131     3994.021   -45310.152    653.23379    1.0032575 
   57500    280.64128   -125.77342    137587.19   -41351.632    3853.9322   -45205.564    654.75144    1.0018848 
   57600     280.1452    233.87489     137795.2   -41421.492    3847.1196   -45268.612    656.35803    1.0003724 
   57700     286.7224   -111.12892    137959.01    -41300.51    3937.4417   -45237.951     658.3588   0.99918457 
   57800    283.33376   -136.95936    137679.89   -41261.146    3890.9069   -45152.053    659.04092    1.0012102 
   57900    283.00735   -99.196014    137708.78   -41372.168    3886.4244   -45258.593    660.24647    1.0010002 
   58000    282.62149   -1.0393279    137629.32   -41307.964    3881.1256   -45189.089    659.99587    1.0015781 
   58100    290.63599   -289.13994    137490.19   -41222.332    3991.1855   -45213.518    660.34423    1.0025917 
   58200    283.63323   -23.961032     137653.3   -41315.024    3895.0194   -45210.044    661.00555    1.0014037 
   58300     282.9113     23.64597    138275.56   -41275.365    3885.1054   -45160.471    664.41222   0.99689715 
   58400    290.22817   -21.869015    138141.65   -41195.751     3985.585   -45181.336    665.00957   0.99786353 
   58500    288.85784    146.32654    138423.78   -41148.356    3966.7668   -45115.123    666.65234   0.99582972 
   58600    292.56166    58.372602    138722.81   -41193.678    4017.6299   -45211.308    668.30475   0.99368311 
   58700    289.01987   -269.88677    138489.49   -41202.773    3968.9919   -45171.765    669.75131   0.99535724 
   58800    290.51611    138.35907    138329.22   -41148.791    3989.5392    -45138.33     670.9504   0.99651049 
   58900    289.88167    42.102676    138269.12   -41196.495    3980.8267   -45177.322    672.45559   0.99694363 
   59000     288.2847   -193.83947    138399.54   -41219.354    3958.8961    -45178.25     675.1629   0.99600418 
   59100    288.66286   -132.68245    138020.54    -41252.18    3964.0892   -45216.269    674.97532   0.99873914 
   59200     284.3855   -23.802181    138139.11   -41300.783    3905.3501   -45206.133    676.12386   0.99788192 
   59300    286.44977   -85.916561    138426.18   -41271.555    3933.6978   -45205.253    678.89617   0.99581245 
   59400    288.46009     183.1072    138387.16   -41271.441    3961.3047   -45232.745    679.43878   0.99609327 
   59500    285.77436   -146.17205    138385.01    -41225.88    3924.4227   -45150.302    680.24566   0.99610872 
   59600    286.91541   -6.8502331    138332.68    -41148.11    3940.0923   -45088.202    681.61602   0.99648558 
   59700    286.43163    118.54659    138378.29   -41101.004    3933.4487   -45034.453    683.65101   0.99615713 
   59800    287.23891    154.12198    137950.52   -41186.219    3944.5347   -45130.753    683.77081   0.99924612 
   59900     286.5017   -71.824062    138013.68   -41181.599     3934.411    -45116.01    685.14773   0.99878877 
   60000    282.88321    249.95542     138166.8   -41224.622    3884.7196   -45109.342    687.08035   0.99768187 
   60100    280.13047    -60.94319    137959.83   -41306.174    3846.9174   -45153.092     687.8495   0.99917864 
   60200    285.85968    166.32718    137992.61    -41293.19    3925.5943   -45218.785    689.01205   0.99894132 
   60300    287.53349    136.89921    137918.54   -41203.852    3948.5801   -45152.432    689.26412   0.99947776 
   60400    281.01501    112.88256     138288.6   -41306.948    3859.0644   -45166.012    692.14602   0.99680315 
   60500    284.86495   -162.72852    138032.22   -41360.279    3911.9342   -45272.214    693.45441   0.99865463 
   60600    286.93952    367.62339    137759.37   -41265.878    3940.4233   -45206.301    694.11168    1.0006326 
   60700    289.36791    16.124655    138180.46   -41263.885    3973.7714   -45237.657    696.71334   0.99758325 
   60800    286.89431    35.307076    138206.95   -41291.638    3939.8025    -45231.44     698.0959   0.99739206 
   60900    287.26184   -372.17769    138112.05    -41218.84    3944.8496    -45163.69    699.32267   0.99807742 
   61000    284.73689    179.32906    137972.45   -41203.486    3910.1755   -45113.661    700.45474   0.99908729 
   61100    287.70142    204.39331    138044.22   -41153.189    3950.8862   -45104.075    701.35771   0.99856783 
   61200    285.79879    21.160566    138124.71   -41211.165    3924.7581   -45135.923    702.77935   0.99798593 
   61300    289.99213   -46.470999    137891.56   -41165.854    3982.3436   -45148.198     703.0197   0.99967333 
   61400    287.53943   -99.631108    138043.36   -41122.428    3948.6616   -45071.089    704.75234   0.99857404 
   61500    286.22743    101.04584    138228.99   -41108.165    3930.6445   -45038.809     705.9028   0.99723304 
   61600    286.27664     39.60107    138292.32   -41208.811    3931.3202   -45140.131    707.21257   0.99677635 
   61700    289.68894   -173.16391    138164.92   -41181.695      3978.18   -45159.875    707.23441   0.99769546 
   61800    292.83324    217.35318    137883.78   -41160.311    4021.3594   -45181.671    707.14193   0.99972974 
   61900     289.2176    227.34093    137945.96   -41228.101    3971.7072   -45199.809    709.63138    0.9992791 
   62000    283.84855   -237.66342     138168.4   -41179.453    3897.9763   -45077.429    711.10807   0.99767038 
   62100     290.0489   -102.39297    138037.91   -41212.196    3983.1232   -45195.319    712.05878    0.9986135 
   62200    286.78421   -161.40656    137894.15   -41213.046    3938.2906   -45151.337    713.89029   0.99965456 
   62300    284.71702    72.159899     137924.2   -41283.396    3909.9027   -45193.299    715.04616   0.99943677 
   62400    284.57344   -192.52813    137834.49   -41311.649    3907.9309    -45219.58    716.33873    1.0000872 
   62500    286.85456   -159.35755    137923.13   -41246.367    3939.2566   -45185.624    717.64274   0.99944449 
   62600     283.1133   -55.436544    137936.02   -41190.134    3887.8794   -45078.013    718.85555   0.99935114 
   62700    285.80322   -34.397005    137600.72   -41275.295     3924.819   -45200.114    717.92636    1.0017863 
   62800    293.25533    91.602649    137764.35   -41203.374    4027.1558    -45230.53    720.34716    1.0005965 
   62900     286.3166    13.465691    137968.88   -41287.751     3931.869    -45219.62    722.19554   0.99911309 
   63000    288.60981    35.233921    138275.38   -41281.883    3963.3607   -45245.244    724.29305   0.99689847 
   63100     292.3447    23.935784    138275.48   -41282.923    4014.6504   -45297.573    725.27645   0.99689776 
   63200    286.97501     16.72778    138231.37   -41332.873    3940.9107   -45273.784    726.24589   0.99721584 
   63300    287.83503    74.230411    138041.39   -41363.348     3952.721   -45316.069    726.33704   0.99858831 
   63400    277.53287   -51.182033    137858.85   -41422.022    3811.2457   -45233.268    727.26409   0.99991052 
   63500     286.0691    -181.8469    137988.73   -41277.359    3928.4703   -45205.829    728.79522   0.99896941 
   63600     287.1032     369.1415    138152.86   -41270.244     3942.671   -45212.915    729.08658   0.99778255 
   63700    284.02739   -11.098675    138565.48   -41354.002    3900.4323   -45254.434    731.69488   0.99481137 
   63800     289.1562   -10.352252    138708.15   -41332.547     3970.864   -45303.411    734.23935   0.99378813 
   63900    280.91904   -83.583105    138513.39   -41337.934    3857.7466    -45195.68    735.02067    0.9951855 
   64000    284.01219    88.235291    138312.29   -41431.278    3900.2235   -45331.501    736.61524   0.99663248 
   64100    285.64743   -48.864651    138298.21    -41377.57    3922.6796    -45300.25    737.60342   0.99673392 
   64200    286.28778   -146.16966    138035.89   -41430.594    3931.4733   -45362.067    737.65205   0.99862807 
   64300    283.81215    9.7400678    138300.27   -41425.725    3897.4765   -45323.202    740.66375   0.99671911 
   64400    278.64257    44.606395    138080.85   -41484.081    3826.4847   -45310.565     741.1264   0.99830295 
   64500    282.85783   -28.364298    138325.14   -41431.304    3884.3712   -45315.675    742.32181   0.99653985 
   64600    288.16755    6.4150114    138501.73   -41336.182    3957.2874   -45293.469    743.62586   0.99526929 
   64700    285.65406   -19.158399    138476.12   -41287.939    3922.7706    -45210.71    745.44196   0.99545331 
   64800    286.19559   -171.61347    138455.51   -41261.918    3930.2072   -45192.125    746.27301    0.9956015 
   64900    288.16853   -261.84201     138329.8   -41271.657    3957.3009   -45228.958    746.91682   0.99650631 
   65000    288.44721   -115.16849    138088.57   -41312.229    3961.1278   -45273.357    746.94703   0.99824708 
   65100     284.5438    374.66664    138018.85   -41368.361    3907.5238   -45275.885    747.33111   0.99875139 
   65200    282.66563    149.66596    138307.61   -41336.374    3881.7317   -45218.106    750.31816   0.99666618 
   65300     285.3961   -1.7813257    138527.65   -41326.272    3919.2282     -45245.5    751.76545   0.99508309 
   65400    287.08176    -6.413654    138427.22   -41363.872    3942.3767   -45306.249    752.48561   0.99580502 
   65500    285.90994   -56.221522    138483.23   -41294.599    3926.2845   -45220.883    753.21943   0.99540222 
   65600    284.74011   -32.033242    138722.85   -41207.431    3910.2198   -45117.651    754.72088   0.99368282 
   65700    286.14512    115.80812    138547.04    -41230.61    3929.5141   -45160.124    755.32647   0.99494381 
   65800    286.77315   -73.071818     138308.3   -41268.416    3938.1387   -45206.554    754.61447   0.99666119 
   65900    288.64325    134.83744    138060.97   -41240.969      3963.82   -45204.789    754.75439   0.99844671 
   66000    284.49435    199.24397     138370.6   -41317.525    3906.8448   -45224.369    757.29757   0.99621244 
   66100    286.60744   -266.42065    138194.14   -41294.047     3935.863    -45229.91    757.74235   0.99748453 
   66200    286.97871    185.11402    138141.51   -41246.434    3940.9615   -45187.396    758.24375   0.99786453 
[...]
   84600    282.71101    146.92609    137931.06   -41365.826    3882.3549   -45248.181    979.95134   0.99938703 
   84700    277.88557    29.186772    138056.29   -41354.581    3816.0891   -45170.671    981.14383   0.99848053 
   84800     285.5061   -9.8992578    138152.82   -41260.231    3920.7387   -45180.969    982.30665   0.99778284 
   84900    285.13356    125.10233    138117.65   -41302.583    3915.6228   -45218.206    982.18744   0.99803697 
   85000    290.00956    21.051373    138088.12   -41353.469     3982.583   -45336.052    983.29642   0.99825039 
   85100    285.47991    69.733926    138058.18    -41338.35    3920.3791   -45258.729    983.88848   0.99846686 
   85200    285.51075    3.3224536    138031.83   -41265.418    3920.8026   -45186.221    984.94192   0.99865743 
   85300    287.37373    3.8162911    138284.08   -41280.409    3946.3862   -45226.795    986.87355   0.99683573 
   85400    288.39937    54.036435    138053.25   -41321.479    3960.4709    -45281.95    987.24888   0.99850248 
   85500    287.82102   -15.038534     138301.7   -41287.617    3952.5286   -45240.145    989.64399    0.9967088 
   85600    289.45265    123.81092    138425.83   -41309.744    3974.9351   -45284.679    991.25429   0.99581502 
   85700    285.60902   -154.02241    138499.92   -41354.756    3922.1522   -45276.908    992.63762   0.99528225 
   85800    282.79071     86.17491    138544.23   -41338.847    3883.4494   -45222.297    993.74061   0.99496393 
   85900    282.69445   -39.107822    138560.14   -41310.942    3882.1275    -45193.07    994.80338   0.99484969 
   86000    279.23037   -85.686628    138429.84   -41359.359    3834.5568   -45193.916    995.40717   0.99578614 
   86100    285.13269   -101.31276    138093.01   -41306.381    3915.6109   -45221.992    995.60599   0.99821504 
   86200    283.53721   -62.448498    138181.57   -41319.686    3893.7008   -45213.387    998.07219   0.99757528 
   86300    288.51497   -98.519673    138007.64   -41323.877    3962.0583   -45285.935    999.07505   0.99883252 
   86400    284.14225    3.8431711    138157.07   -41344.442    3902.0096   -45246.452    1001.1995   0.99775214 
   86500    286.36373    -22.96762    137741.47   -41276.101    3932.5163   -45208.617    1000.8739    1.0007627 
   86600    282.39599    77.269282    137851.03   -41281.502    3878.0288   -45159.531    1001.7205   0.99996727 
   86700    291.26304    4.9899096    138014.81   -41265.648    3999.7965   -45265.445    1003.6581   0.99878065 
   86800     292.3808    43.280043    138163.73    -41246.67    4015.1462   -45261.816    1005.5983   0.99770405 
   86900    292.11666   -70.990228    138268.94   -41262.976    4011.5189   -45274.495    1007.0461   0.99694494 
   87000     286.3548   -90.272792    138387.24   -41357.284    3932.3936   -45289.678    1009.2639   0.99609271 
   87100    282.58358   -237.59311     138234.4   -41309.932     3880.605   -45190.537    1008.7804   0.99719398 
   87200    288.35353    128.62342    138363.48   -41277.233    3959.8413   -45237.074     1010.126    0.9962637 
   87300    289.17751    44.246674    138204.01   -41205.357    3971.1567   -45176.514    1011.3116   0.99741331 
   87400    287.49092    -355.2053    138125.74   -41272.947    3947.9955   -45220.943    1012.0761   0.99797845 
   87500    285.15766    397.94049    138179.49   -41288.584    3915.9538   -45204.538    1013.4864   0.99759031 
   87600    285.75854    90.216455    137971.21   -41285.453    3924.2054   -45209.658    1013.4904   0.99909623 
   87700    283.94393    172.88197    137859.13   -41280.984    3899.2862    -45180.27    1014.1957    0.9999085 
   87800    289.32582    308.41741    137921.87   -41193.328    3973.1934   -45166.522    1015.6333   0.99945367 
   87900    294.15028    -134.8496    138182.78   -41183.155    4039.4458   -45222.601    1017.5456   0.99756657 
   88000    287.08915   -114.75145    138129.79   -41291.233    3942.4781   -45233.711    1018.5177    0.9979492 
   88100    290.70564    178.62953    137996.65   -41255.192     3992.142   -45247.334    1018.7299   0.99891205 
   88200    284.99518    3.8978244     137851.7   -41212.113    3913.7225   -45125.836     1020.514    0.9999624 
   88300    289.16917     15.51476    137862.31   -41186.494    3971.0422   -45157.536     1021.345   0.99988541 
   88400    283.25127    183.90934     138040.9   -41284.823     3889.774   -45174.597    1022.3818   0.99859184 
   88500     286.9562    -85.28638     138117.8   -41290.288    3940.6524    -45230.94    1024.6216   0.99803587 
   88600    289.76533    98.128266    138257.77   -41276.398     3979.229   -45255.627    1026.0285   0.99702547 
   88700      285.369    2.5542743    138254.78   -41249.111     3918.856   -45167.968     1027.051   0.99704702 
   88800    288.72438   -260.12633    138483.85   -41287.781    3964.9341   -45252.715    1028.7579   0.99539779 
   88900    282.57614    229.34089    138325.85   -41389.512    3880.5028   -45270.015       1029.6   0.99653477 
   89000    285.05208   -138.10995       138230   -41207.525    3914.5039   -45122.029    1030.5106   0.99722573 
   89100    290.06476    3.8157197    138134.46   -41225.883    3983.3409   -45209.224    1031.3808   0.99791545 
   89200    288.00036    78.384956    138473.75   -41311.103    3954.9915   -45266.095    1033.5497   0.99547038 
   89300    293.56667   -1.6767475    138321.52   -41291.804    4031.4313   -45323.235    1034.4066   0.99656595 
   89400    290.79655    271.03088    138255.54   -41345.399    3993.3904   -45338.789    1034.2596   0.99704157 
   89500    282.82456    153.51712    138265.33   -41374.775    3883.9142   -45258.689    1035.3273   0.99697092 
   89600    285.52802    15.846931    138121.83   -41294.477    3921.0398   -45215.517    1036.0833   0.99800677 
   89700    284.76178     22.17437    138411.65   -41328.185    3910.5173   -45238.703    1038.9587   0.99591699 
   89800    282.01181   -237.81498    138487.11   -41311.856    3872.7531   -45184.609    1040.6242   0.99537438 
   89900     280.6763     108.4881    138232.63   -41352.434    3854.4131   -45206.847    1041.7607   0.99720675 
   90000    286.98502    1.4939177    138099.15   -41279.293    3941.0482   -45220.341    1040.9926    0.9981706 
   90100    286.72398    44.602284    138075.93   -41292.644    3937.4634   -45230.108    1042.4248    0.9983385 
   90200    276.31466     111.5831    138063.18   -41363.038    3794.5165   -45157.554    1042.7119   0.99843072 
   90300     283.3587   -300.61205    137803.64   -41381.809    3891.2493   -45273.058    1043.0298    1.0003112 
   90400    288.06333    182.20987     137531.2   -41282.342    3955.8561   -45238.198    1042.8661    1.0022927 
   90500    281.58502    253.60585    137577.36    -41285.81    3866.8922   -45152.702    1044.8656    1.0019564 
   90600    288.33068   -79.839967    137779.31    -41249.37    3959.5275   -45208.897    1047.8206    1.0004878 
   90700    286.61183    88.185687    137737.08   -41220.533    3935.9233   -45156.457    1049.0161    1.0007945 
   90800     286.9069    184.22561    137894.55   -41287.851    3939.9753   -45227.827    1049.6342    0.9996517 
   90900    287.62213    52.100891    137949.29   -41309.999    3949.7974   -45259.797     1050.411   0.99925502 
   91000    290.31828   -151.62407    138022.33    -41267.29    3986.8224   -45254.112    1051.6071   0.99872617 
   91100    291.26179   -5.7529377    138022.86   -41264.231    3999.7793    -45264.01    1052.7058   0.99872238 
   91200    285.80573    62.076053    138009.36   -41312.286    3924.8535   -45237.139    1053.4201   0.99882003 
   91300    285.34257   -203.46358    138049.94   -41360.886    3918.4931   -45279.379    1054.3622   0.99852642 
   91400    289.95782    84.879214    138217.72   -41316.565    3981.8724   -45298.437    1057.1572   0.99731437 
   91500    292.35941   -278.96054    138072.17   -41327.823    4014.8525   -45342.675    1057.8413   0.99836571 
   91600    285.72125    168.39735    137830.47   -41345.747    3923.6933    -45269.44    1057.3927    1.0001164 
   91700    282.95897    149.97064    138234.21   -41387.445    3885.7601   -45273.205    1060.2767   0.99719538 
   91800    290.16367   -69.024507    138515.34   -41405.697    3984.6992   -45390.396    1063.6412   0.99517148 
   91900    282.07502     344.5199    138645.04   -41333.261    3873.6211   -45206.882    1064.4621   0.99424052 
   92000    284.04356   -203.67627    138565.44   -41309.557    3900.6544   -45210.212     1065.124   0.99481168 
   92100    287.99667   -307.76412    138427.77   -41262.149    3954.9408    -45217.09    1064.5217   0.99580103 
   92200    290.99073   -57.094089    138190.82   -41200.137    3996.0569   -45196.194    1064.8316   0.99750847 
   92300    279.44541     227.3268    137928.31   -41242.903    3837.5097   -45080.412    1064.9704   0.99940696 
   92400    285.85444   -94.457106    138089.34   -41165.117    3925.5223   -45090.639    1067.3722   0.99824152 
   92500    291.12853    -48.34289    138062.98   -41129.031    3997.9492    -45126.98    1067.9898   0.99843217 
   92600    284.62317   -7.5255624    138106.31   -41151.593    3908.6139   -45060.207     1069.167   0.99811886 
   92700    283.52452    187.98508    138011.18   -41230.101    3893.5265   -45123.627    1069.4604   0.99880688 
   92800    287.65913   -35.790705    138319.55   -41191.864    3950.3055    -45142.17    1071.5036   0.99658015 
   92900    287.03058   -100.13899    138092.35   -41144.273    3941.6739   -45085.947    1071.0652   0.99821978 
   93000    288.18933    -298.7573    137858.08   -41184.235    3957.5865   -45141.822    1070.7993   0.99991616 
   93100    286.85659    46.387158    138042.26   -41185.148    3939.2845   -45124.433    1073.3068   0.99858198 
   93200     292.2339   -109.07747    137881.38   -41119.536    4013.1288   -45132.665    1073.2299   0.99974715 
   93300    286.61626   -313.37324    138021.01   -41153.673    3935.9842   -45089.657     1076.664   0.99873571 
   93400    287.42983    118.99474    138104.28   -41199.907    3947.1565   -45147.063    1077.4142   0.99813353 
   93500    285.09742   -7.1288579    138193.55   -41235.767    3915.1265   -45150.894    1079.5948   0.99748882 
   93600    285.91027   -322.53108    137878.08   -41274.581    3926.2891    -45200.87    1079.0835   0.99977109 
   93700    291.05284   -240.25742    138076.31    -41269.95    3996.9099    -45266.86    1081.0481   0.99833577 
   93800    290.10415   -49.837791     138094.3   -41246.501    3983.8819   -45230.383    1082.0371   0.99820572 
   93900    285.76115   -4.8805651    138296.24   -41270.929    3924.2412    -45195.17    1084.8248   0.99674811 
   94000    279.28892    4.5130285    138306.14   -41299.885    3835.3607   -45135.246    1086.9064   0.99667677 
   94100    281.35744    82.857077     138566.9   -41371.179    3863.7669   -45234.946    1090.2505    0.9948012 
   94200    284.07182    81.100554    138608.34   -41302.795    3901.0423   -45203.838     1092.352   0.99450377 
   94300    287.10682   -260.66881     138574.4   -41287.138    3942.7209   -45229.859    1094.3103   0.99474731 
   94400    289.02477   -105.76762    138280.99   -41357.022    3969.0592   -45326.081    1094.7207   0.99685807 
   94500    283.48898   -10.975732    138191.22   -41413.779    3893.0385   -45306.817    1096.1961   0.99750562 
   94600    282.99408   -181.34117    138054.11   -41425.718    3886.2422    -45311.96    1097.1748   0.99849626 
   94700    282.66598   -128.66009    138320.31   -41287.029    3881.7366   -45168.766    1099.8663   0.99657465 
   94800    285.50676    -124.0115    138302.96   -41242.403    3920.7478   -45163.151    1100.0865    0.9966997 
   94900    290.86906    198.04533    138152.41   -41270.539    3994.3861   -45264.925    1101.7929   0.99778581 
   95000    290.96588    7.6543963    138068.47   -41295.337    3995.7157   -45291.052    1102.9189   0.99839244 
   95100    286.58401   -137.87354    137823.65   -41171.761    3935.5412   -45107.302    1104.1211    1.0001659 
   95200    287.75727    134.06918    137796.78   -41245.282    3951.6532   -45196.935    1104.4944     1.000361 
   95300    277.54505   -113.82884    138147.82   -41226.738    3811.4129   -45038.151    1106.9514     0.997819 
   95400    285.19717    33.264665    138150.26   -41214.971    3916.4964   -45131.467    1107.6882   0.99780135 
   95500    287.16219   -148.37995     138189.5   -41285.827    3943.4812   -45229.308    1109.4716   0.99751803 
   95600    291.79776    408.85811    138167.31   -41262.524    4007.1395   -45269.663    1109.2535   0.99767824 
   95700     290.4819   -63.415209    138061.52   -41287.746    3989.0694   -45276.816    1110.5475   0.99844271 
   95800      284.447   -74.470483    137930.11   -41328.828    3906.1946   -45235.023     1111.571   0.99939394 
   95900    284.55646   -103.91903    137988.77   -41303.063    3907.6977   -45210.761    1112.8864   0.99896912 
   96000    287.94456   -49.485462    138036.44   -41249.355    3954.2251    -45203.58    1113.9258   0.99862408 
   96100    287.32964   -100.29418    137976.46   -41228.584    3945.7807   -45174.365    1114.6425   0.99905825 
   96200    284.82114   -108.40365    137969.41   -41234.264    3911.3324   -45145.597    1116.9706   0.99910927 
   96300    283.53499    43.662094    138146.02   -41258.854    3893.6703   -45152.524      1118.92   0.99783195 
   96400    288.00228   -65.782468    137978.14   -41237.053    3955.0178   -45192.071    1119.4005   0.99904605 
   96500     284.9378    71.343079    137996.95   -41246.274    3912.9345   -45159.208    1120.2769   0.99890989 
   96600    286.69552   -3.3529787     137918.6   -41220.824    3937.0725   -45157.897    1121.5814   0.99947731 
   96700    293.49759   -58.847085    138151.62    -41156.88    4030.4827   -45187.363    1123.0395   0.99779154 
   96800    287.63987   -12.165011    138068.83   -41147.699     3950.041    -45097.74    1125.1602   0.99838987 
   96900    288.38444   -213.88416    137840.18   -41198.785    3960.2658   -45159.051    1124.6453     1.000046 
   97000    285.54198    185.67788    137908.79   -41265.297    3921.2315   -45186.528    1126.1408   0.99954845 
   97100    290.46703   -36.926703    138137.02   -41278.231    3988.8652   -45267.096    1128.9972   0.99789698 
   97200    292.19189   -78.541123    137978.96   -41325.001     4012.552   -45337.553    1129.5707   0.99904009 
   97300    287.24478     121.4656    138079.71   -41393.664    3944.6153   -45338.279    1129.8384   0.99831114 
   97400    288.25401   -208.10748    138133.71    -41347.58    3958.4746   -45306.055    1130.8363    0.9979209 
   97500    288.54341    81.196651    138133.14   -41339.388    3962.4489   -45301.837     1132.123   0.99792505 
   97600    281.21439   -143.92989    138049.34   -41372.482    3861.8025   -45234.284    1131.9778   0.99853082 
   97700    283.00905   -29.936081    137903.68   -41331.927    3886.4478   -45218.375    1132.1913   0.99958549 
   97800     283.3598    27.713165    137698.14   -41333.317    3891.2645   -45224.582    1132.9444    1.0010776 
   97900    290.31188   -33.461111    137578.56    -41221.46    3986.7345   -45208.194    1131.6643    1.0019477 
   98000    290.10034   0.52963342    137574.14   -41251.348    3983.8296   -45235.177    1133.3275    1.0019799 
   98100    290.79021    242.65025    137804.95   -41216.674    3993.3033   -45209.977    1135.7051    1.0003017 
   98200    288.15427   -108.70349    137636.68   -41189.544     3957.105   -45146.649    1135.8993    1.0015246 
   98300    291.21379    263.21738    137537.42   -41181.015    3999.1201   -45180.135    1136.6819    1.0022474 
   98400    286.82826    209.88459    137420.28    -41225.36    3938.8954   -45164.255    1137.4886    1.0031017 
   98500    286.63249    154.36133    138031.19   -41222.164    3936.2069   -45158.371    1141.7976   0.99866208 
   98600    282.91814   -79.446491    137944.39   -41285.364    3885.1994   -45170.563    1143.9639   0.99929047 
   98700    290.01466   -89.964661    137576.86   -41223.671     3982.653   -45206.324    1143.5802    1.0019601 
   98800    282.98513    193.68675     137400.1   -41265.947    3886.1193   -45152.066    1144.9782    1.0032491 
   98900    285.33243    116.74676    137514.94   -41191.981    3918.3538   -45110.335     1147.254    1.0024112 
   99000    282.15256   -82.281935    137514.26   -41224.521     3874.686   -45099.207    1148.6866    1.0024161 
   99100     284.3445   -114.06019    137659.18   -41266.826     3904.787   -45171.613    1151.8626    1.0013608 
   99200    293.12834    134.17626    138080.08   -41238.308    4025.4118    -45263.72    1156.3855   0.99830847 
   99300    283.16965   -210.15263    138077.36   -41235.299    3888.6533   -45123.953    1157.3002   0.99832819 
   99400    287.80543   -181.04767    137870.59   -41229.516    3952.3145    -45181.83     1157.448   0.99982537 
   99500    286.41236   -79.061004    137816.88   -41241.354     3933.184   -45174.538     1158.303     1.000215 
   99600    284.52814   -221.50803    137750.77   -41301.269    3907.3089   -45208.578    1158.6479    1.0006951 
   99700    288.10505    168.29144    137595.04   -41301.243    3956.4291   -45257.672    1158.6949    1.0018277 
   99800    285.15567   -252.88414    137681.63   -41287.023    3915.9265    -45202.95    1159.0971    1.0011976 
   99900    286.27676   -56.079325    137642.05   -41252.623     3931.322   -45183.945    1159.4906    1.0014855 
  100000    285.52076   0.36808555    137653.82   -41249.557      3920.94   -45170.497    1160.6649    1.0013999 
  100100     282.2818    48.335809    137685.67   -41249.878    3876.4607   -45126.338    1162.9116    1.0011682 
  100200     292.1593     -200.103    137626.95   -41233.795    4012.1045   -45245.899    1165.0414    1.0015954 
  100300     288.0012   -126.83613    137657.25   -41248.097    3955.0029     -45203.1    1167.4251    1.0013749 
  100400    285.62278   -23.631633    137744.84   -41279.535    3922.3411   -45201.876    1168.0697    1.0007382 
  100500    288.32016    35.398757    137997.74   -41315.877     3959.383    -45275.26    1171.2527   0.99890419 
  100600    288.96348    83.813704    137940.82   -41280.509    3968.2175   -45248.726    1172.5174   0.99931632 
  100641    288.11005     6.099024    138168.18   -41282.171    3956.4977   -45238.669    1174.5849   0.99767195 
Loop time of 121.936 on 6 procs for 100000 steps with 4608 atoms

Performance: 354.285 ns/day, 0.068 hours/ns, 820.104 timesteps/s
99.0% CPU use with 6 MPI tasks x no OpenMP threads

MPI task timing breakdown:
Section |  min time  |  avg time  |  max time  |%varavg| %total
---------------------------------------------------------------
Pair    | 102.04     | 103.27     | 105.33     |  11.7 | 84.70
Neigh   | 7.0618     | 7.1518     | 7.2769     |   2.9 |  5.87
Comm    | 6.6951     | 8.7064     | 9.9397     |  41.2 |  7.14
Output  | 0.17892    | 0.18002    | 0.18502    |   0.5 |  0.15
Modify  | 1.8941     | 1.9559     | 2.0282     |   2.9 |  1.60
Other   |            | 0.6677     |            |       |  0.55

Nlocal:        768.000 ave         772 max         764 min
Histogram: 2 0 0 1 0 0 1 0 0 2
Nghost:        1558.17 ave        1589 max        1536 min
Histogram: 1 2 0 0 0 1 1 0 0 1
Neighs:        0.00000 ave           0 max           0 min
Histogram: 6 0 0 0 0 0 0 0 0 0
FullNghs:      22212.0 ave       22496 max       22009 min
Histogram: 2 0 1 0 0 1 0 1 0 1

Total # of neighbors = 133272
Ave neighs/atom = 28.921875
Neighbor list builds = 6972
Dangerous builds = 0

undump              1
unfix               2
unfix               3
unfix               4


################################################
#######         Run Simulation         #########
################################################

reset_timestep      0
log                 log.run_${NAME}
log                 log.run_liq_287K_1atm_ML
