
# Define the lattice
#
variable	    lattice_constant equal 6.36339
lattice		    diamond ${lattice_constant} orient x 0 0 1 orient y 0 1 0 orient z -1 0 0
lattice		    diamond 6.36339 orient x 0 0 1 orient y 0 1 0 orient z -1 0 0
Lattice spacing in x,y,z = 6.3633900 6.3633900 6.3633900

# Define region
# multiples of lattice spacing
#
region 		    simbox block 0 9 0 8 0 8

# Create Atoms
#
create_box          1 simbox
Created orthogonal box = (0.0000000 0.0000000 0.0000000) to (57.270510 50.907120 50.907120)
  3 by 1 by 2 MPI processor grid
create_atoms        1 box
Created 4608 atoms
  create_atoms CPU = 0.001 seconds
mass                1 18.015

# Define potential
#
pair_style          sw
pair_coeff          * * /data/emrosky-sim/Freezing_Simulations/Melting/MLmW_fancy/ML_mW.sw mW
Reading sw potential file /data/emrosky-sim/Freezing_Simulations/Melting/MLmW_fancy/ML_mW.sw with DATE: 2019-02-27

# Add velocity/set timestep
#
velocity            all create ${TEMP} 120598 rot yes dist gaussian
velocity            all create 287 120598 rot yes dist gaussian
timestep            5.0

# Define output
#
compute	            1 all msd
thermo              100
thermo_style        custom step temp press vol etotal ke pe c_1[4]

# Neighbor lists
#
neigh_modify        delay 0 every 1 check yes

# Set fixes
#
fix                 1 all momentum 10 linear 1 1 1 rescale
fix                 2 all nve
fix                 3 all temp/csvr ${TEMP} ${TEMP} 500.0 928347
fix                 3 all temp/csvr 287 ${TEMP} 500.0 928347
fix                 3 all temp/csvr 287 287 500.0 928347
fix                 4 all press/berendsen iso ${PRES} ${PRES} 1000.0 modulus 20000
fix                 4 all press/berendsen iso 1 ${PRES} 1000.0 modulus 20000
fix                 4 all press/berendsen iso 1 1 1000.0 modulus 20000

# Run 0.5 ns equilibration
#
dump		    1 all custom 1000 eq.${NAME}.dump id type x y z vx vy vz
dump		    1 all custom 1000 eq.ice_287K_1atm_ML.dump id type x y z vx vy vz
run                 100000
Neighbor list info ...
  update every 1 steps, delay 0 steps, check yes
  max neighbors/atom: 2000, page size: 100000
  master list distance cutoff = 6.0032907
  ghost atom cutoff = 6.0032907
  binsize = 3.0016454, bins = 20 17 17
  1 neighbor lists, perpetual/occasional/extra = 1 0 0
  (1) pair sw, perpetual
      attributes: full, newton on
      pair build: full/bin/atomonly
      stencil: full/bin/3d
      bin: standard
Per MPI rank memory allocation (min/avg/max) = 4.779 | 4.779 | 4.779 Mbytes
Step Temp Press Volume TotEng KinEng PotEng c_1[4] 
       0          287   -648.40282    148418.52    -51955.93    3941.2539   -55897.184            0 
     100    193.52462    121.76578    147675.85   -50362.321    2657.5946   -53019.915   0.10016645 
     200    222.27214    90.036853    147933.18   -49411.275    3052.3727   -52463.647   0.11582976 
     300    239.74479    34.947779    148103.69   -48806.915    3292.3174   -52099.233   0.14154373 
     400    261.97293    41.649355    148231.22   -48410.109    3597.5673   -52007.676   0.14216503 
     500    277.43738     60.69356    148343.61   -48126.605    3809.9344   -51936.539    0.1355931 
     600    283.45089    21.871027    148430.05   -47858.951    3892.5154   -51751.466   0.14897369 
     700    286.80236   -6.1260682    148477.54   -47810.583    3938.5398   -51749.123   0.14108358 
     800    286.18904    4.6047217    148475.99   -47712.346    3930.1173   -51642.463   0.15230515 
     900    286.08422   -12.450959    148491.55   -47689.314    3928.6779   -51617.992   0.16103629 
    1000    286.03758    29.985009     148471.3   -47739.719    3928.0373   -51667.756   0.14287673 
    1100    284.22129   -14.184796    148480.23   -47686.504    3903.0949   -51589.599   0.15288978 
    1200    286.59534    25.051977    148495.68   -47683.445    3935.6969   -51619.141    0.1464345 
    1300    285.51991   -96.912155    148506.66   -47611.975    3920.9284   -51532.903   0.16258145 
    1400    282.40041   -6.7294729    148494.54   -47699.799    3878.0896   -51577.888   0.15967481 
    1500    284.98027    -28.99439    148496.26   -47733.879    3913.5178   -51647.397   0.14425688 
    1600    287.56015    47.618871    148473.17   -47663.811    3948.9462   -51612.758   0.15677861 
    1700    281.48877   -14.920124    148480.88   -47689.906    3865.5704   -51555.477   0.15031345 
    1800    287.32447     6.046065    148484.75   -47686.605    3945.7097   -51632.315    0.1585642 
    1900    288.13642   -7.8220085    148510.13   -47601.686    3956.8599   -51558.546   0.15729394 
    2000     293.9699    11.527523    148541.78   -47548.752    4036.9687   -51585.721   0.14637055 
    2100    286.88583    -35.34038    148513.74   -47713.432     3939.686   -51653.118   0.15658436 
    2200    286.74671    10.208666    148528.22   -47643.606    3937.7755   -51581.381   0.14714695 
    2300    285.43701   -2.2970738    148525.16   -47584.775    3919.7899   -51504.565   0.16610458 
    2400     291.9825    23.577385    148514.68   -47607.213    4009.6765    -51616.89   0.15788285 
    2500    290.12079    21.364018    148536.72   -47659.202    3984.1105   -51643.312   0.14367243 
    2600    284.62278   -36.246545    148491.99   -47687.818    3908.6085   -51596.426   0.16555225 
    2700    290.90297    64.027639    148481.59   -47654.368    3994.8518    -51649.22    0.1374068 
    2800    291.20234    -5.940733    148507.58    -47560.98    3998.9628   -51559.943   0.16475401 
    2900    290.83914   -29.052643    148526.73   -47583.744    3993.9753   -51577.719   0.15428693 
    3000    288.86715   -10.736665    148477.05   -47639.194    3966.8947   -51606.088   0.15754669 
    3100    293.23379    21.419408    148511.51   -47615.895    4026.8599   -51642.755   0.15327487 
    3200    288.69995    37.523049    148491.75   -47717.805    3964.5986   -51682.403   0.14146996 
    3300    282.41357    6.4663825    148446.96   -47781.771    3878.2703   -51660.041   0.15024904 
    3400    283.75628    -2.098497    148458.42   -47711.154    3896.7091   -51607.863   0.15283905 
    3500    289.24913    5.0401108    148471.31    -47682.37    3972.1403    -51654.51   0.15503196 
    3600    285.82055   -17.507208     148488.4   -47683.648    3925.0569   -51608.705   0.15926275 
    3700    290.00682    29.015936    148503.83   -47651.597    3982.5454   -51634.142   0.15258742 
    3800    288.61564   -18.391958    148528.74   -47648.109    3963.4408    -51611.55    0.1616821 
    3900    285.72775   -51.971647    148511.96    -47647.31    3923.7826   -51571.092   0.15545996 
    4000    286.74886   -6.9929131    148483.48   -47689.992    3937.8051   -51627.797   0.15208864 
    4100    286.03776   -9.5257891    148461.67   -47707.115    3928.0398   -51635.154   0.15462761 
    4200    290.02789   -20.925597    148519.59   -47669.317    3982.8347   -51652.152   0.14350152 
    4300    284.04939   -17.326538    148477.23   -47799.874    3900.7344   -51700.608   0.15751115 
    4400     291.9939  -0.82699828    148518.75   -47694.204    4009.8331   -51704.038   0.13702885 
    4500    281.31308   -3.3006788    148495.17   -47743.984    3863.1577   -51607.142   0.16038791 
    4600    280.66134   -36.032864    148476.06   -47772.029    3854.2077   -51626.237   0.15085177 
    4700    291.21563    16.829098    148486.77   -47677.174    3999.1454   -51676.319   0.14976204 
    4800    294.52336    42.010744    148494.56   -47569.753    4044.5691   -51614.322   0.15683721 
    4900    290.45444    -27.63177    148535.28   -47549.721    3988.6923   -51538.414   0.15108488 
    5000    285.28779   -29.133978    148540.29   -47680.535    3917.7408   -51598.276   0.15858106 
    5100     289.7035    -9.989992    148552.14   -47611.489      3978.38   -51589.869   0.15146777 
    5200    291.27671   -9.5471443    148538.21   -47678.536    3999.9842    -51678.52   0.14911071 
    5300    284.17782    11.780984    148501.48   -47778.483    3902.4981   -51680.981   0.15049028 
    5400    287.86366    7.5900228     148503.4   -47746.145    3953.1142   -51699.259   0.13861382 
    5500    292.54072    27.904434    148515.57   -47711.387    4017.3424    -51728.73   0.15023772 
    5600    287.52264    2.0070544    148510.04    -47747.93     3948.431   -51696.361   0.14516459 
    5700    286.11832   -3.7104253    148497.92   -47733.167    3929.1461   -51662.313    0.1507901 
    5800    287.12277    22.075482    148525.57   -47675.688    3942.9398   -51618.628   0.15500407 
    5900    283.22547   -5.5346868     148514.5   -47751.472    3889.4198   -51640.892   0.14372598 
    6000    279.77655    16.730183    148481.96   -47724.703    3842.0572    -51566.76    0.1562182 
    6100     284.5998    22.210844    148480.51   -47805.388    3908.2929   -51713.681   0.13890786 
    6200    291.94987    17.511103    148458.13   -47781.967    4009.2285   -51791.196   0.15237387 
    6300      288.863   -6.5575234    148501.34   -47664.481    3966.8377   -51631.318   0.15324054 
    6400    284.75957   -10.720768    148505.72    -47723.16     3910.487   -51633.647   0.14506562 
    6500    284.76676   -8.1615749    148494.94   -47738.098    3910.5857   -51648.684   0.15218353 
    6600    285.34766    35.033581     148467.8    -47742.06     3918.563   -51660.623   0.14163968 
    6700    277.65477    -37.07262    148441.46   -47792.018    3812.9196   -51604.938   0.15914772 
    6800    289.76473    1.2668102    148457.28   -47749.922    3979.2207   -51729.142   0.15193583 
    6900    288.59551    4.6882555    148485.66   -47676.964    3963.1644   -51640.129   0.14463786 
    7000    286.52626   -1.8646769    148474.37   -47672.738    3934.7482   -51607.486    0.1617444 
    7100    289.32095   -27.596319    148476.52   -47682.407    3973.1265   -51655.534   0.13730692 
    7200    285.31398    -40.17311    148445.31   -47791.776    3918.1004   -51709.877   0.15377499 
    7300    278.89583   -19.720217    148443.61   -47840.562    3829.9626   -51670.524   0.14651116 
    7400    283.76519  -0.48785255    148454.89   -47733.884    3896.8316   -51630.716   0.15051921 
    7500    288.25525    39.560295    148478.19    -47659.88    3958.4917   -51618.372   0.15079517 
    7600    287.74468    22.842932    148515.36   -47639.889    3951.4802   -51591.369   0.14433443 
    7700    283.93121    9.3311528     148489.7   -47730.961    3899.1115   -51630.073   0.15602385 
    7800    284.06692   -2.5480029    148498.46   -47802.325     3900.975     -51703.3   0.14474484 
    7900    284.46201   -19.290195     148486.8    -47741.18    3906.4008   -51647.581   0.14810177 
    8000     286.5176   -25.920683    148474.76   -47637.863    3934.6293   -51572.493   0.15917271 
    8100    288.21547   -13.500348    148501.35   -47604.713    3957.9454   -51562.659   0.14923332 
    8200    285.73736   -21.774089    148481.76   -47623.749    3923.9146   -51547.664   0.15539919 
    8300    291.37376    22.720931    148509.86   -47587.874     4001.317   -51589.191   0.14979908 
    8400    290.64807   0.95178852    148531.03   -47565.574    3991.3513   -51556.925   0.15171462 
    8500    287.61414  -0.88683895    148528.96    -47655.21    3949.6876   -51604.897   0.15265654 
    8600     288.2971    15.803264    148504.96   -47664.942    3959.0664   -51624.009    0.1381648 
    8700    285.76747   -33.758562    148465.72   -47630.722     3924.328    -51555.05   0.16533119 
    8800    288.63171      43.9034    148483.33   -47674.509    3963.6615   -51638.171   0.14263194 
    8900    289.26329    1.7733182    148456.46   -47738.108    3972.3348   -51710.443   0.15571455 
    9000    280.56249    42.881637     148472.6   -47659.034    3852.8501   -51511.884    0.1510415 
    9100     283.6748   -8.1207776    148465.89   -47716.248    3895.5902   -51611.838   0.14866032 
    9200    284.08007   -27.105999    148485.46   -47608.924    3901.1556    -51510.08   0.15817716 
    9300     284.1516   -20.651977    148461.99   -47756.356     3902.138   -51658.494   0.14499708 
    9400    288.21639   -8.7556387    148475.97   -47722.903     3957.958   -51680.861    0.1538078 
    9500    290.16101    10.142519    148500.76   -47766.078    3984.6627    -51750.74    0.1450298 
    9600    283.36023    31.456711    148483.94    -47754.74    3891.2704    -51646.01   0.14348545 
    9700    288.66843    50.711534    148505.41   -47629.309    3964.1657   -51593.475   0.14813721 
    9800    289.33374    41.740157    148537.64   -47591.585    3973.3022   -51564.887   0.14313651 
    9900    286.41589   -9.5080794    148515.57   -47621.997    3933.2325    -51555.23   0.15072779 
   10000    285.56213   -40.407641    148523.79   -47675.568    3921.5082   -51597.077   0.14768353 
   10100    292.36541     11.79587    148525.97   -47629.688    4014.9349   -51644.622   0.14443084 
   10200    287.20528   -3.3341686    148510.18   -47596.288    3944.0729   -51540.361   0.15342112 
   10300    293.03987   -9.3298048    148533.43   -47596.647     4024.197   -51620.844    0.1447217 
   10400    286.83926    2.2732533    148537.63    -47598.94    3939.0464   -51537.986   0.15347516 
   10500    286.32951    21.091951     148531.3       -47653    3932.0463   -51585.047   0.14244568 
   10600    292.22886    31.187221    148514.23   -47673.037    4013.0597   -51686.096   0.14383372 
   10700    284.08208   -34.181422    148485.03   -47689.341    3901.1833   -51590.524   0.15087951 
   10800    278.42015   -30.766375    148500.29   -47826.414    3823.4303   -51649.844   0.14310459 
   10900    278.49968    29.866418    148482.76   -47810.713    3824.5224   -51635.235   0.15135936 
   11000    280.71661    8.2372902       148478   -47821.891    3854.9666   -51676.858   0.13954547 
   11100    284.06775    10.100141    148490.54   -47728.689    3900.9865   -51629.676   0.14866832 
   11200    282.00847    16.607321    148493.29   -47836.375    3872.7072   -51709.082   0.14271234 
   11300    285.16679   -2.5219635    148507.47   -47755.283    3916.0791   -51671.362    0.1368637 
   11400    282.60271    19.584052    148507.06   -47727.529    3880.8677   -51608.397   0.15539909 
   11500    292.06302    45.646828     148539.8   -47631.663    4010.7823   -51642.445   0.13313374 
   11600    288.01692    7.1154975    148530.79   -47630.399    3955.2189   -51585.618   0.15543172 
   11700    292.88688     15.76659     148564.8   -47499.079    4022.0961   -51521.175   0.14786319 
   11800    290.53622   -34.981259    148540.25   -47576.126    3989.8154   -51565.941   0.14981045 
   11900    288.76691    30.936801    148539.79   -47619.327    3965.5181   -51584.846   0.15093562 
   12000    290.79117    10.632919    148557.21   -47584.683    3993.3164   -51577.999   0.14238102 
   12100     289.2437    25.575061    148549.64   -47639.404    3972.0658    -51611.47   0.15044594 
   12200    288.82926   -2.0607689    148550.83   -47641.126    3966.3743     -51607.5   0.14317528 
   12300    284.74158   -3.0998396    148532.91   -47697.865    3910.2399   -51608.105   0.14698329 
   12400    286.62203   -1.4466199    148527.93   -47687.248    3936.0634   -51623.311   0.14764279 
   12500    288.38234   -7.9458375    148558.85   -47626.131     3960.237   -51586.368   0.14350202 
   12600    293.83654     34.62671    148554.36   -47583.531    4035.1372   -51618.668   0.14255175 
   12700    288.68727   -13.803312    148531.79   -47660.857    3964.4245   -51625.282   0.14740091 
   12800    286.87843    9.5425203    148537.46   -47644.815    3939.5845   -51584.399   0.14581415 
   12900    284.59093     10.10522    148539.03   -47709.816    3908.1711   -51617.987   0.14890085 
   13000    290.82728     15.15202    148548.87   -47680.608    3993.8124   -51674.421   0.13305642 
   13100    282.54722    23.101565    148538.96   -47755.134    3880.1056    -51635.24   0.14984274 
   13200    284.91197    4.4803779    148537.28   -47784.083    3912.5799   -51696.662   0.13614913 
   13300    281.40576    10.395721    148529.02   -47867.768    3864.4305   -51732.198    0.1441561 
   13400    281.23716   -9.7529538    148495.05   -47850.114    3862.1151   -51712.229   0.14719789 
   13500    284.51545    5.0258358    148528.84   -47764.945    3907.1346   -51672.079   0.13706123 
   13600    279.12159   -1.0405313    148533.73   -47708.611    3833.0628   -51541.674     0.151974 
   13700    285.53896   0.46686889    148521.83   -47744.849      3921.19   -51666.039   0.13657167 
   13800    288.99859    19.251178     148520.2   -47689.338    3968.6997   -51658.038   0.15221129 
   13900    286.29386    5.9838997    148498.46   -47680.965    3931.5567   -51612.522   0.14802451 
   14000    293.72887    9.5200067    148526.51   -47570.649    4033.6586   -51604.307   0.14161229 
   14100    286.31642    -9.457301     148499.5   -47655.163    3931.8665   -51587.029   0.15473274 
   14200    289.74411     14.72986    148503.72   -47664.988    3978.9376   -51643.925   0.14141312 
   14300    288.00871   -10.562823    148484.46   -47698.372    3955.1061   -51653.479   0.15530549 
   14400    283.35008   -12.862941    148466.14   -47753.463     3891.131   -51644.595   0.14728488 
   14500     287.4784    19.630922    148464.33    -47774.96    3947.8236   -51722.784   0.14552121 
   14600    288.50884    14.036691    148466.27   -47720.454    3961.9741   -51682.428   0.14661594 
   14700    286.11195    4.8477069    148483.58   -47672.732    3929.0587   -51601.791   0.14387974 
   14800    283.88996   -30.665848    148484.01   -47645.429    3898.5449   -51543.974     0.162777 
   14900    287.70834    12.699722    148497.02   -47656.228    3950.9812   -51607.209    0.1475258 
   15000    290.20796  -0.91409241    148495.74   -47724.277    3985.3075   -51709.585    0.1451977 
   15100    283.66624     3.306396    148507.01    -47733.85    3895.4727   -51629.323   0.14675221 
   15200    285.97166    20.208295    148518.83   -47668.777    3927.1321   -51595.909   0.14641606 
   15300    286.52338    4.1018957    148498.45   -47749.974    3934.7087   -51684.682   0.14785128 
   15400    282.56692    7.4142276    148500.89   -47744.846    3880.3762   -51625.223   0.14584206 
   15500    288.18211    12.617483    148513.69   -47684.405    3957.4874   -51641.892    0.1460218 
   15600    293.72529    38.904997    148557.17   -47562.501    4033.6095    -51596.11   0.15089025 
   15700    295.17163    9.1764439    148604.01   -47587.168    4053.4715    -51640.64   0.13666945 
   15800    289.61784    19.424159    148567.76   -47583.187    3977.2036    -51560.39   0.15782806 
   15900    287.51551   -1.1314649    148590.45   -47612.035    3948.3331   -51560.368   0.14226823 
   16000    287.63665   -41.321302    148540.97   -47651.631    3949.9968   -51601.627   0.15240499 
   16100    289.63902    29.828752    148529.33   -47681.116    3977.4944   -51658.611    0.1458676 
   16200    288.20089   -10.029653    148565.92   -47701.537    3957.7452   -51659.282   0.13946403 
   16300    281.70576   -52.161699    148520.24   -47713.619    3868.5503   -51582.169   0.15838831 
   16400    285.34638   -8.3396683    148534.99   -47724.026    3918.5454   -51642.572   0.13866325 
   16500    287.63446   -17.158617    148544.79    -47641.82    3949.9667   -51591.787   0.15887696 
   16600    291.59773    18.735977    148572.09   -47570.209    4004.3927   -51574.602   0.14477841 
   16700    288.35033   -18.851588    148563.46   -47613.217    3959.7975   -51573.015   0.15023987 
   16800    289.45462   -21.804588    148539.53   -47667.304    3974.9622   -51642.266   0.14883025 
   16900    287.18241   -20.120944     148539.2   -47694.293    3943.7589   -51638.052   0.14570922 
   17000    284.73405    12.111263    148518.67    -47735.74    3910.1365   -51645.876    0.1456586 
   17100    290.67815    20.432614    148529.35   -47689.442    3991.7644   -51681.207   0.14833897 
   17200    287.26022    40.255364    148522.03   -47749.365    3944.8274   -51694.193   0.14103136 
   17300    278.85522   -5.1769656    148487.47   -47839.621     3829.405   -51669.026    0.1440766 
   17400    286.28095    10.329623    148490.37   -47831.479    3931.3794   -51762.858    0.1372128 
   17500    282.79918   -19.395106    148507.94   -47724.869    3883.5657   -51608.435   0.15213694 
   17600    287.58823   -9.4478625    148510.59   -47738.098    3949.3318    -51687.43   0.14381055 
   17700    286.18799     18.84395    148501.16    -47799.92    3930.1029   -51730.023   0.14352021 
   17800    288.26262   -10.978398     148503.2   -47747.683    3958.5929   -51706.276   0.14541854 
   17900    286.83595   -8.5912306    148516.42   -47696.314     3939.001   -51635.315   0.14545067 
   18000    289.25622   -11.722562    148519.97    -47603.54    3972.2376   -51575.777   0.15235577 
   18100     289.4989   -23.540723    148557.49   -47614.074    3975.5702   -51589.644   0.14657594 
   18200    290.22013     10.06497    148554.38   -47660.463    3985.4746   -51645.938   0.14609118 
   18300    290.38143    10.434342    148549.02   -47663.726    3987.6897   -51651.416   0.14314138 
   18400    288.36006    8.2612492    148535.25   -47761.647    3959.9311   -51721.578   0.13672732 
   18500    286.77815   -7.0651061    148531.54   -47694.733    3938.2073    -51632.94   0.14979905 
   18600    285.95927    12.928818     148559.9   -47652.167     3926.962   -51579.129   0.14413026 
   18700    288.59934    19.114864     148544.3    -47673.82     3963.217   -51637.037   0.14511881 
   18800    286.97174   -1.0350004    148530.85   -47688.318    3940.8658   -51629.183   0.14406838 
   18900    287.64931    -4.144463    148530.17   -47648.622    3950.1706   -51598.793    0.1458724 
   19000    289.85959     16.81154    148516.33   -47674.103    3980.5235   -51654.627   0.14795614 
   19100    290.84116    27.285538    148551.25   -47588.661    3994.0029   -51582.664   0.14250598 
   19200    287.32867   -3.4274235    148544.32   -47620.894    3945.7673   -51566.661   0.15585874 
   19300    289.28144   -5.3285486    148572.36   -47510.706     3972.584    -51483.29    0.1495896 
   19400    287.40605   -11.476599    148562.59   -47573.024      3946.83   -51519.854    0.1528232 
   19500    291.28437    14.701365    148550.75   -47569.694    4000.0894   -51569.783    0.1477047 
   19600    291.27682    58.012686    148557.28   -47562.464    3999.9858   -51562.449   0.15012317 
   19700    288.79943    3.5482348    148553.57   -47616.008    3965.9647   -51581.972   0.14772914 
   19800    289.13424    19.158996    148571.04   -47568.004    3970.5625   -51538.567   0.14526742 
   19900    286.80489   -22.016321    148552.92   -47648.276    3938.5745    -51586.85   0.14839837 
   20000     284.1373   -10.448096    148547.63   -47674.554    3901.9415   -51576.496    0.1461747 
   20100     282.8036    23.667526    148512.31    -47718.28    3883.6265   -51601.907   0.14199336 
   20200    286.45155    33.230651     148510.1   -47688.602    3933.7222   -51622.324   0.15101146 
   20300    287.55947    2.5013785    148528.59   -47656.536    3948.9368   -51605.473   0.14532215 
   20400    285.47479    -42.46402    148555.27   -47725.229    3920.3089   -51645.538    0.1489124 
   20500    285.51463   -32.164915    148520.85   -47758.892    3920.8559   -51679.748   0.14796347 
   20600    282.40277   -23.815348    148525.25   -47784.091     3878.122   -51662.213   0.14394751 
   20700    284.02296   -36.330041    148530.27   -47724.187    3900.3714   -51624.558   0.15287982 
   20800     290.6583    34.214974    148555.96   -47584.356    3991.4918   -51575.848   0.14218369 
   20900    286.87279   -24.988935    148528.92   -47692.988    3939.5069   -51632.495   0.15251618 
   21000     288.9539    19.250591    148520.35   -47702.931     3968.086   -51671.017   0.14354035 
   21100     292.4063   -25.710395    148575.94   -47589.817    4015.4964   -51605.313    0.1458366 
   21200    288.48923   -7.9654653    148563.58   -47602.835    3961.7048    -51564.54   0.14982691 
   21300    288.46178    -53.01157    148573.05   -47601.352    3961.3279    -51562.68   0.15031463 
   21400    286.92963  0.054052747    148553.61   -47639.309    3940.2875   -51579.597   0.14834448 
   21500     288.2409   -1.4917251    148568.73   -47545.615    3958.2946   -51503.909   0.15481572 
   21600    292.47971    30.922616    148588.11   -47551.625    4016.5045    -51568.13   0.14649156 
   21700    284.91036    22.476125    148548.63   -47679.865    3912.5577   -51592.423   0.14950679 
   21800    288.32855   -17.554461     148538.2   -47714.751    3959.4983    -51674.25   0.14408033 
   21900    284.20298    5.9994378    148536.78   -47686.443    3902.8435   -51589.286   0.14781454 
   22000    284.62671    7.7746051    148541.54    -47723.47    3908.6624   -51632.133   0.14502302 
   22100     286.1779   -5.9659958    148520.94   -47764.299    3929.9643   -51694.264   0.14570675 
   22200    280.76443   -21.454735    148495.66   -47842.738    3855.6233   -51698.361   0.14770548 
   22300    284.98143    36.911064    148529.33   -47733.469    3913.5336   -51647.003   0.14357343 
   22400    287.28499    18.471346    148542.36   -47683.274    3945.1675   -51628.441   0.14887521 
   22500    287.44786   0.39186801    148583.44   -47639.547    3947.4041   -51586.951   0.14179012 
   22600     287.4848   0.69741929    148554.45   -47674.034    3947.9114   -51621.945     0.149259 
   22700    289.97777   -1.4229794    148530.78     -47733.7    3982.1464   -51715.846   0.14263274 
   22800    286.87753    -11.39371    148550.08   -47658.433    3939.5721   -51598.005   0.14509733 
   22900     287.2867   -1.6461087    148530.95   -47689.825     3945.191   -51635.016   0.14834123 
   23000     283.3147   -42.912915    148514.52   -47763.528    3890.6452   -51654.173   0.14428326 
   23100    284.26625    1.5938954    148537.54   -47709.092    3903.7124   -51612.805    0.1448176 
   23200    290.11782    15.575784    148553.18   -47650.088    3984.0696   -51634.158   0.14363423 
   23300    286.53116   -2.4972822    148557.39   -47651.496    3934.8154   -51586.312   0.14689591 
   23400    289.47317    21.993721    148549.77   -47694.615    3975.2169   -51669.832   0.14498305 
   23500    287.55683     29.43773    148573.61   -47588.017    3948.9006   -51536.918   0.14488218 
   23600    286.29496   -19.463995    148575.71   -47608.616    3931.5718   -51540.188   0.14939832 
   23700      289.403   -23.634112     148556.7   -47598.452    3974.2533   -51572.705   0.14530762 
   23800    290.53855   -22.809814    148565.96   -47610.214    3989.8473   -51600.061   0.14603421 
   23900    288.76153   -14.598407    148552.02   -47695.407    3965.4443   -51660.851   0.14199786 
   24000    281.56761   -12.873417    148564.68   -47644.668     3866.653   -51511.321   0.15018056 
   24100    288.16469   -1.3002788    148575.61   -47573.304    3957.2481   -51530.552   0.14729702 
   24200    290.59632   -31.453911    148567.31   -47702.081    3990.6406   -51692.722   0.14937492 
   24300    289.25242    8.4727737    148524.24   -47738.234    3972.1855   -51710.419   0.14230255 
   24400    284.39819   -0.2277983     148493.7   -47762.912    3905.5243   -51668.437   0.14317856 
   24500    286.62458    16.665459    148511.65   -47716.114    3936.0984   -51652.212   0.14184863 
   24600      281.198    8.4252612    148497.01   -47758.073    3861.5774    -51619.65   0.14864931 
   24700    284.31072   -11.135924    148488.92   -47766.076    3904.3231     -51670.4   0.14652834 
   24800    287.40237    27.380454    148500.81   -47707.373    3946.7794   -51654.153   0.14563713 
   24900     286.5582   -6.3123912    148470.44   -47760.214    3935.1868   -51695.401   0.14831924 
   25000    285.16221    -6.316283    148489.81   -47751.704    3916.0163    -51667.72   0.14529871 
   25100    279.32848    11.617729    148488.32   -47801.067     3835.904   -51636.971   0.15041171 
   25200    278.99833    12.532943    148453.06   -47931.475    3831.3702   -51762.845    0.1341304 
   25300    283.82811    1.3381227    148466.27   -47768.283    3897.6956   -51665.979   0.15160648 
   25400    282.48681    17.871438    148472.27   -47809.879    3879.2761   -51689.155   0.14439933 
   25500    286.29583    21.082507    148481.97   -47695.877    3931.5838    -51627.46   0.14427092 
   25600    288.30574   -6.5903226    148495.41       -47619    3959.1851   -51578.185   0.14933652 
   25700    289.54591    15.196168    148495.72   -47711.067    3976.2158   -51687.283   0.14362272 
   25800     294.4696    15.940208    148519.34   -47568.757    4043.8308   -51612.588   0.14701478 
   25900    294.03226    1.9959844     148510.9   -47590.966     4037.825   -51628.791   0.14803678 
   26000    290.85209    27.234125    148488.43   -47632.079    3994.1531   -51626.232   0.14648129 
   26100    290.83537    1.0807603    148527.33     -47623.3    3993.9234   -51617.224   0.14922896 
   26200    289.93432   -19.111949    148501.98   -47730.889    3981.5496   -51712.439   0.14400728 
   26300    289.60899    14.387969    148496.05   -47687.387     3977.082   -51664.469   0.14389995 
   26400    286.75175    36.827681    148491.11    -47745.98    3937.8447   -51683.824   0.14270994 
   26500    284.75759   -7.6307996    148510.85   -47656.384    3910.4598   -51566.844   0.14757795 
   26600    287.96876   -10.302183    148515.56    -47600.14    3954.5575   -51554.697   0.14912376 
   26700    285.02643   -51.892966    148520.92   -47608.193    3914.1517   -51522.345   0.15448084 
   26800    288.06247     8.774038    148512.79   -47656.125    3955.8443   -51611.969   0.14747997 
   26900    289.33354    11.072331    148527.01   -47596.328    3973.2994   -51569.627    0.1423984 
   27000     290.0463   -58.773009    148527.66   -47632.472    3983.0874    -51615.56   0.14979713 
   27100     293.2471     40.03438    148503.58   -47573.773    4027.0427   -51600.816   0.14642053 
   27200    286.22729    19.823366    148487.89   -47637.219    3930.6426   -51567.861   0.14446137 
   27300    292.83742    50.682264    148511.72   -47468.335    4021.4167   -51489.752   0.15328433 
   27400    292.00548    18.884361    148522.07   -47598.622    4009.9921   -51608.614   0.14797457 
   27500    286.44914   -7.2841299    148508.51   -47706.767    3933.6892   -51640.457   0.14800658 
   27600    287.07565     -13.2461     148464.2   -47753.761    3942.2927   -51696.054   0.14704652 
   27700    288.40151    31.141312    148473.96   -47651.415    3960.5003   -51611.916    0.1451755 
   27800    289.58861    26.423544     148477.5   -47626.336    3976.8022   -51603.138   0.15182419 
   27900    283.98798   -8.2166707    148469.47   -47686.092    3899.8911   -51585.983   0.14298319 
   28000    284.82937    2.0955166    148454.21   -47756.389    3911.4455   -51667.835   0.14495729 
   28100    286.75271    33.298598    148485.62   -47733.814    3937.8579   -51671.672   0.14068823 
   28200    288.34959    10.723272    148506.66   -47704.079    3959.7873   -51663.866   0.14535428 
   28300    286.13858   -28.882294    148501.62   -47722.295    3929.4243   -51651.719   0.14269702 
   28400    284.18437   -43.885591    148529.69   -47663.726     3902.588   -51566.314   0.15330701 
   28500     285.6982   -21.076461    148512.43   -47693.975    3923.3768   -51617.351   0.14251392 
   28600    283.43294    18.274174    148505.18     -47698.6    3892.2688   -51590.869   0.14345317 
   28700     286.5024   -19.672749    148488.44   -47695.506    3934.4205   -51629.926   0.14864591 
   28800    285.95221   -23.138673    148485.78     -47741.6     3926.865   -51668.465   0.14263989 
   28900    282.40082    13.890629    148502.26   -47710.096    3878.0953   -51588.191   0.14560107 
   29000    287.65078    19.898111    148526.77   -47655.514    3950.1907   -51605.705   0.14032802 
   29100    286.00011    4.8230293    148543.35   -47652.328    3927.5228    -51579.85   0.14491292 
   29200    288.49553   -30.795806    148528.82   -47582.054    3961.7914   -51543.845   0.14968082 
   29300    291.17047   -16.901308    148547.38   -47589.119    3998.5253   -51587.644   0.14877684 
   29400    285.91433   -28.605192     148552.6   -47609.018    3926.3448   -51535.363   0.14693448 
   29500    287.50689   -34.928193    148532.59   -47645.171    3948.2148   -51593.386   0.15166664 
   29600    291.12495   -9.8039862    148549.44   -47621.032    3997.9002   -51618.932   0.13788383 
   29700    285.45678   -2.2361065    148529.16   -47694.526    3920.0614   -51614.588   0.14402552 
   29800    283.98135    3.8600635    148509.49    -47787.61    3899.7999    -51687.41    0.1398818 
   29900    281.83336   -30.509335    148509.72    -47766.27    3870.3025   -51636.573   0.14406147 
   30000    287.08534   -5.4994394    148504.04   -47727.991    3942.4259   -51670.417   0.14320474 
   30100    285.91498   -3.4497237     148531.5   -47696.219    3926.3538   -51622.573     0.143159 
   30200    286.10754   -1.6952073    148536.59    -47710.35     3928.998   -51639.348   0.14280012 
   30300    284.07173    11.350528    148529.88   -47696.239    3901.0411    -51597.28   0.14364549 
   30400    284.79245    8.6798861     148515.2   -47730.144    3910.9385   -51641.083   0.14230573 
   30500    284.00855    15.129854    148478.62   -47830.005    3900.1735   -51730.179   0.13635908 
   30600    288.15926    44.334986    148510.58    -47706.02    3957.1736   -51663.193   0.14122544 
   30700    282.64421    19.900014    148523.78   -47735.705    3881.4376   -51617.143    0.1435032 
   30800    289.14934      20.5498    148501.56   -47664.193    3970.7699   -51634.962   0.14261265 
   30900    287.30857   0.21102346    148530.34   -47645.945    3945.4914   -51591.436   0.15167254 
   31000    287.07502    9.4668454    148554.27   -47686.338    3942.2841   -51628.622   0.13823615 
   31100     283.5885  -0.72692439    148528.82   -47697.781    3894.4051   -51592.186   0.14652227 
   31200    288.99518   -0.7461937    148544.45   -47639.909    3968.6528   -51608.562   0.14645212 
   31300    287.88763    5.0688393    148530.61   -47572.895    3953.4433   -51526.339   0.14207307 
   31400    286.21879   -8.9408771    148545.21   -47693.965    3930.5259   -51624.491   0.14811521 
   31500    291.00099    -8.401016    148551.55   -47643.487    3996.1979   -51639.685   0.13904531 
   31600    285.09537   -23.891277    148562.12   -47672.263    3915.0984   -51587.362   0.14536759 
   31700    291.81845    29.890979    148559.53   -47636.705    4007.4237   -51644.129   0.14336435 
   31800    285.47188   -27.595284    148551.71   -47697.013    3920.2688   -51617.282   0.14456989 
   31900    284.43606   -12.688815    148553.65   -47696.976    3906.0444    -51603.02    0.1441366 
   32000    287.64782     2.434915    148543.09   -47641.051    3950.1501   -51591.201   0.14537157 
   32100    288.46355   -1.6871039    148565.56   -47685.371    3961.3523   -51646.723   0.13968756 
   32200    282.89397   -4.5182676     148539.2   -47805.757    3884.8675   -51690.625   0.14288289 
   32300    284.90247    12.937552    148547.62   -47751.681    3912.4494   -51664.131   0.13737543 
   32400    287.12769    4.7604998     148518.2   -47839.324    3943.0074   -51782.332   0.14074665 
   32500    287.66592    6.1030075    148544.15   -47698.028    3950.3987   -51648.426   0.14352806 
   32600    288.05152   -6.2188384    148538.87   -47652.094    3955.6939   -51607.788   0.14884194 
   32700    286.09713   -52.066423    148545.39    -47744.66    3928.8551   -51673.515   0.14309425 
   32800    288.04601   -44.389771       148563    -47619.69    3955.6183   -51575.308   0.14910904 
   32900    286.82104   -4.3649668    148564.37   -47686.946    3938.7963   -51625.743   0.14438235 
   33000    285.47881    12.921974    148556.96   -47675.785     3920.364   -51596.149   0.13974551 
   33100    285.64663    7.9148335    148536.68   -47700.581    3922.6687    -51623.25    0.1488689 
   33200    289.20805    14.219082    148533.38   -47674.385    3971.5762   -51645.961   0.14048207 
   33300    284.03942   -9.4249271    148533.76   -47679.405    3900.5974   -51580.003   0.14851518 
   33400    290.56274   -2.9633576    148513.66   -47702.496    3990.1796   -51692.676   0.14418942 
   33500    287.19206  -0.17905055    148519.52   -47729.637    3943.8913   -51673.528   0.14369853 
   33600    285.09097   -23.006412    148500.71   -47741.003    3915.0379   -51656.041   0.14993421 
   33700    295.00752    51.117713    148525.17   -47635.433    4051.2179   -51686.651   0.14061093 
   33800    291.44598   -3.0794947    148556.53   -47531.558    4002.3087   -51533.867   0.15070554 
   33900    291.63603   -8.9750548    148562.65   -47557.625    4004.9185   -51562.543   0.15144691 
   34000    286.64074    1.1519784    148512.52   -47695.274    3936.3203   -51631.594   0.14044117 
   34100    285.09747   -17.265072    148511.65    -47714.95    3915.1272   -51630.077   0.14876408 
   34200    284.10787    11.574824     148502.9    -47711.17    3901.5374   -51612.707   0.14521056 
   34300    286.42027    18.018666    148481.58   -47750.186    3933.2927   -51683.479   0.14615758 
   34400     286.1338    20.816017       148499    -47671.12    3929.3588   -51600.479    0.1437299 
   34500    287.89662    19.951633    148524.82    -47599.07    3953.5668   -51552.636   0.14975448 
   34600    277.04275   -43.287017    148533.15   -47593.603     3804.515   -51398.118   0.15454513 
   34700     287.4476   -10.257466    148522.76    -47713.31    3947.4006    -51660.71   0.14330217 
   34800    286.46084    6.3596877    148489.29   -47705.695    3933.8498   -51639.545    0.1512636 
   34900    286.50416   -5.9589032    148502.35   -47685.326    3934.4448    -51619.77   0.14605067 
   35000    292.11844     19.74382    148500.18   -47662.354    4011.5433   -51673.897   0.14405892 
   35100    286.33297   -27.587124    148544.76   -47681.606    3932.0938   -51613.699   0.14814529 
   35200    288.67599    16.880032    148561.28   -47623.065    3964.2696   -51587.334   0.14395696 
   35300    284.97812   -12.259519    148531.04   -47699.788    3913.4882   -51613.276   0.15113092 
   35400    289.05717   -24.662639    148521.37   -47700.273    3969.5041   -51669.777   0.14224465 
   35500    289.41747   -5.6397387    148536.12   -47691.703     3974.452   -51666.155   0.14429178 
   35600    287.35028    2.3363389    148547.01   -47663.678    3946.0642   -51609.743   0.14799465 
   35700    292.08049    5.3142629    148551.48   -47677.132    4011.0222   -51688.154   0.13568209 
   35800    289.28419   -7.3271957    148609.71    -47514.37    3972.6217   -51486.992   0.15547802 
   35900    285.64042   -31.632632    148567.61     -47624.7    3922.5833   -51547.283   0.14429771 
   36000    286.63645    -2.979452    148544.68   -47677.112    3936.2614   -51613.373   0.14729856 
   36100    286.16846    14.870171    148534.09   -47717.757    3929.8347   -51647.592   0.14291629 
   36200    287.46663   -28.223488    148527.37   -47750.397    3947.6619   -51698.058   0.14480825 
   36300    288.72721   -4.9349791     148517.6   -47685.506    3964.9729   -51650.479     0.144951 
   36400    280.02018    2.4995939    148519.24   -47740.533    3845.4029   -51585.936   0.14697111 
   36500     287.5843   -10.761466    148518.38   -47717.376    3949.2778   -51666.654   0.14312529 
   36600    285.18163   -14.525764    148526.82   -47721.398     3916.283   -51637.681   0.14534739 
   36700    283.57928   -16.625213    148520.54   -47757.432    3894.2785    -51651.71   0.14151023 
   36800    283.60227    5.6138111    148503.27   -47831.353    3894.5943   -51725.947   0.14126558 
   36900    285.22875  -0.62904063    148486.24   -47746.229      3916.93   -51663.159   0.14413752 
   37000    286.04763    3.6717546       148529   -47737.325    3928.1753     -51665.5   0.14458706 
   37100    283.21832   -7.6591137    148509.96   -47777.885    3889.3216   -51667.206   0.13944773 
   37200    289.95836  0.047275022    148516.31   -47785.949    3981.8799   -51767.828   0.14211362 
   37300    283.53053   -9.8055673    148526.53   -47783.647     3893.609   -51677.256   0.14326569 
   37400     282.0747    16.757595    148528.12   -47793.603    3873.6167    -51667.22   0.13954348 
   37500    287.52062   -22.201609     148521.1   -47762.911    3948.4033   -51711.314   0.14706422 
   37600    284.17908   -1.1517281    148501.33   -47805.928    3902.5154   -51708.443   0.13472392 
   37700    280.21993   -2.2000342    148467.93   -47886.614     3848.146    -51734.76    0.1460352 
   37800    277.67551     17.42065    148451.57   -47903.312    3813.2045   -51716.516   0.13838619 
   37900    282.53483    20.236696    148477.88   -47810.033    3879.9355   -51689.968   0.14076399 
   38000    286.21994   -14.174545    148504.38   -47752.237    3930.5417   -51682.779   0.14604046 
   38100    285.31754    28.953028    148505.47   -47683.736    3918.1494   -51601.886   0.14350152 
   38200    286.53822    3.9414064     148533.8   -47654.661    3934.9125   -51589.574   0.14580235 
   38300    283.87994    6.9931225    148547.25   -47708.115    3898.4073   -51606.522   0.14392836 
   38400    290.94006   -14.386219     148563.8   -47641.753    3995.3611   -51637.114   0.14389113 
   38500    287.38399    3.9717385    148516.66   -47696.061     3946.527   -51642.588   0.14688663 
   38600    287.89104    7.1086066    148525.48   -47655.571    3953.4902   -51609.061   0.14349116 
   38700    287.59357    33.178545    148522.59   -47625.595    3949.4052       -51575    0.1453751 
   38800    289.74017    55.705358    148516.02   -47658.362    3978.8835   -51637.245   0.13908248 
   38900    286.14816   -9.9451684    148529.17   -47603.818    3929.5559   -51533.374   0.15225444 
   39000     290.5808    7.8513361     148530.4   -47661.615    3990.4276   -51652.043   0.14217289 
   39100    288.41489    16.252455    148500.69   -47680.338    3960.6839   -51641.022    0.1428459 
   39200    285.36805    -41.81922    148487.09   -47806.371     3918.843   -51725.214   0.14570397 
   39300    284.87109    22.548555    148457.15   -47811.671    3912.0184    -51723.69   0.14068123 
   39400    290.00585   -11.608464    148494.64    -47683.39    3982.5319   -51665.922   0.15386392 
   39500    288.52893   -14.011689    148520.44   -47669.952      3962.25   -51632.202   0.14445772 
   39600    287.85744    25.758433    148516.41   -47664.302    3953.0288   -51617.331   0.14739887 
   39700    290.01328    1.9509271    148556.66   -47646.706     3982.634    -51629.34   0.15006252 
   39800    289.96282    23.142451    148538.59   -47665.907     3981.941   -51647.848   0.14249694 
   39900    289.37456    22.952247     148528.1   -47629.597    3973.8627   -51603.459   0.14877879 
   40000    287.79407    -35.07928    148523.27   -47704.548    3952.1585   -51656.706   0.14942242 
   40100    288.06903    6.8910641    148503.27   -47710.934    3955.9345   -51666.869   0.14016478 
   40200    284.61825   -18.185779    148512.34   -47685.934    3908.5462   -51594.481   0.15521736 
   40300    286.60429     23.88183    148503.79   -47694.397    3935.8197   -51630.217   0.14184373 
   40400    283.13615    14.810131    148492.78   -47785.867    3888.1932    -51674.06    0.1455023 
   40500    291.34647   -4.5755569    148508.64   -47650.744    4000.9422   -51651.687   0.14381187 
   40600     285.4367     -32.7613    148524.93   -47726.711    3919.7857   -51646.497   0.14757286 
   40700    280.61943   -7.3634523    148511.88   -47731.252    3853.6321   -51584.884   0.14525231 
   40800    287.28443   -28.887158    148536.35   -47710.998    3945.1598   -51656.158   0.14643344 
   40900    288.43396    3.3341872    148533.87   -47699.453    3960.9459   -51660.399   0.14324665 
   41000     285.2644   -8.8159689    148529.12   -47767.581    3917.4196   -51685.001    0.1396898 
   41100    285.98973    10.744449    148509.27   -47731.095    3927.3802   -51658.475   0.13955371 
   41200    289.82745    11.170694    148541.66   -47622.168    3980.0821    -51602.25   0.14320934 
   41300    288.02505    7.9863699    148504.58   -47699.217    3955.3305   -51654.548    0.1432712 
   41400    291.68121    28.052426    148513.95    -47648.04    4005.5391   -51653.579   0.14549947 
   41500    284.99353    -38.00662    148518.64   -47664.071    3913.6998    -51577.77   0.14627549 
   41600    289.43855   -17.088687    148518.52   -47671.516    3974.7415   -51646.257   0.14361605 
   41700    283.81395    32.750254     148481.6   -47774.065    3897.5012   -51671.566   0.14422453 
   41800    284.51279   -17.315838    148527.13   -47694.034    3907.0981   -51601.132   0.14165957 
   41900    282.13081   -26.882279    148509.33   -47772.859    3874.3873   -51647.246   0.14897613 
   42000     292.3888    28.282458    148510.35   -47742.341     4015.256   -51757.597   0.13062903 
   42100    285.62685    2.2082846    148486.81   -47814.932    3922.3969   -51737.329   0.14204765 
   42200    284.85061    11.836649    148484.95   -47772.147    3911.7372   -51683.884   0.14014246 
   42300    282.41886   -18.466995    148519.24   -47738.139    3878.3429   -51616.482   0.14372311 
   42400    283.08066   -36.048753    148505.86   -47765.292    3887.4312   -51652.723   0.14405835 
   42500    283.70189    31.399622     148511.7   -47724.737    3895.9622   -51620.699    0.1400305 
   42600    280.86816   -23.563945    148503.52   -47765.318    3857.0478   -51622.366   0.14173101 
   42700    282.00357    33.162906    148470.52   -47822.851      3872.64   -51695.491   0.13915123 
   42800    287.12587    47.612544     148492.5   -47743.912    3942.9824   -51686.894   0.13750359 
   42900    285.78565    1.1292738    148487.69   -47761.887    3924.5778   -51686.465   0.14476097 
   43000    283.23315  -0.49040123    148488.43   -47779.509    3889.5253   -51669.035    0.1396634 
   43100    286.19774    1.0388142    148498.42   -47701.441    3930.2367   -51631.677   0.14522429 
   43200    287.65452   0.50840727    148518.57   -47716.338    3950.2421    -51666.58   0.13850338 
   43300    287.04068     20.97602    148506.38   -47707.201    3941.8125   -51649.013   0.14285193 
   43400    287.95841    13.643242    148528.27   -47643.125    3954.4153   -51597.541   0.14255834 
   43500    287.40889   -5.5649184    148545.56   -47703.801     3946.869    -51650.67   0.14108224 
   43600    282.32128   -10.995564    148497.49   -47738.872    3877.0029   -51615.875   0.14195246 
   43700    287.14247    9.9496379    148487.46   -47783.915    3943.2104   -51727.126   0.13494723 
   43800    279.26059   -7.3348052    148469.45   -47815.716    3834.9718   -51650.688    0.1446319 
   43900    284.82427    17.068795    148491.48   -47731.186    3911.3755   -51642.561   0.13868685 
   44000    281.71059   -5.1094639    148471.39    -47816.81    3868.6166   -51685.427   0.14028667 
   44100     283.9106     31.47144    148466.64   -47769.016    3898.8284   -51667.845   0.14014519 
   44200    282.33992   -17.424733    148500.03   -47733.581    3877.2589   -51610.839   0.13969033 
   44300     289.3071   -5.2456993    148497.94   -47739.253    3972.9363   -51712.189   0.13798748 
   44400    288.20318    39.214698    148485.57   -47746.164    3957.7767    -51703.94   0.13943645 
   44500     290.8362   -6.9922501    148491.83   -47753.092    3993.9349   -51747.027   0.13207091 
   44600    284.12151    6.7664869    148488.23   -47757.118    3901.7248   -51658.842   0.14172738 
   44700    286.63526    13.858306    148509.46   -47744.395    3936.2451    -51680.64   0.13240477 
   44800    291.02793   -5.8909945    148479.65   -47693.797    3996.5678   -51690.364   0.14576292 
   44900    288.59234   -22.014583    148478.02   -47684.507    3963.1208   -51647.628   0.14199521 
   45000    285.65145   -29.658471    148474.77   -47731.626    3922.7348   -51654.361   0.14550644 
   45100    286.35456   -28.319771       148492   -47615.251    3932.3903   -51547.641    0.1444416 
   45200    287.31032   -2.9509212     148507.8   -47651.011    3945.5154   -51596.526   0.13997234 
   45300    286.14993    19.729092    148512.68   -47675.553    3929.5802   -51605.134   0.13991767 
   45400    285.22824    35.191642    148478.61    -47735.69     3916.923   -51652.613   0.13493943 
   45500    282.74883   -15.699922    148474.14    -47671.27    3882.8742   -51554.144   0.14518771 
   45600    286.74086    31.004131     148519.6   -47674.044    3937.6952   -51611.739    0.1377718 
   45700    286.48342   -13.638124    148523.22   -47625.568    3934.1599   -51559.728   0.14739766 
   45800    289.80538    3.1728028    148550.22    -47702.27    3979.7791   -51682.049    0.1399381 
   45900    286.90384   -2.2771202    148563.57   -47563.768    3939.9333   -51503.701   0.14247113 
   46000    286.09666   -55.810219    148555.06   -47633.097    3928.8486   -51561.946   0.14092621 
   46100    286.43096   -2.8851716    148558.64    -47541.82    3933.4395    -51475.26   0.14657719 
   46200    290.26875    11.981134    148554.15   -47596.071    3986.1422   -51582.213   0.13627895 
   46300    288.22353    -17.11425     148565.9   -47591.118    3958.0561   -51549.174   0.15103987 
   46400    291.01113    12.876968    148530.91   -47630.781    3996.3371   -51627.118   0.13502929 
   46500    286.26861    17.873093    148538.76    -47597.79      3931.21       -51529   0.14537018 
   46600     286.1594   -24.890449    148534.79   -47657.778    3929.7102   -51587.489   0.13888184 
   46700    291.01717    11.207445     148541.7   -47593.915    3996.4201   -51590.335   0.14152495 
   46800    290.45982   -20.999083    148540.12   -47603.579    3988.7662   -51592.345   0.14750258 
   46900    285.38653    3.0763778    148526.25   -47655.447    3919.0967   -51574.544   0.14090771 
   47000    290.07203   -10.773343     148523.5   -47690.181    3983.4408   -51673.622   0.13929692 
   47100     290.4907    2.1805636    148509.48   -47699.679    3989.1902   -51688.869   0.14193861 
   47200    290.06012    12.982774    148541.29   -47668.826    3983.2773   -51652.104   0.13633416 
   47300    284.27743   -8.3224995    148508.27   -47790.335     3903.866   -51694.201   0.14034049 
   47400    285.18698   -1.1525218    148526.65   -47728.171    3916.3564   -51644.527   0.13766903 
   47500    287.15858    11.271447       148511     -47729.3    3943.4316   -51672.731   0.13939513 
   47600    284.72529   -18.559373    148528.83   -47721.412    3910.0162   -51631.428   0.14000337 
   47700    293.70189    32.418248    148521.51   -47651.463    4033.2882   -51684.751   0.13738194 
   47800    287.74654    3.6356838    148504.14   -47704.647    3951.5058   -51656.153   0.14256391 
   47900    287.25724     3.857206    148517.72   -47761.835    3944.7864   -51706.622   0.13177432 
   48000     285.3598   -26.827443    148525.39   -47721.075    3918.7297   -51639.804   0.14457045 
   48100    289.80816    15.184939    148508.85   -47762.469    3979.8172   -51742.286   0.13137349 
   48200    288.74226    11.313092    148514.26   -47748.792    3965.1796   -51713.972   0.14117054 
   48300    286.61588    5.1673806    148526.33   -47702.263    3935.9789   -51638.242   0.13657851 
   48400    286.41928   -20.266398    148531.21   -47742.767    3933.2791   -51676.046   0.13820919 
   48500    279.05941    -14.31837    148511.85   -47826.916     3832.209   -51659.125   0.13479581 
   48600     278.1466    12.803748    148530.53   -47819.628    3819.6737   -51639.301   0.13902038 
   48700    285.69419   -18.168583    148526.43   -47711.622    3923.3217   -51634.944   0.13492357 
   48800    284.86481    7.2310809    148528.64   -47698.401    3911.9321   -51610.333   0.14407008 
   48900    289.13224    4.1161529    148544.37   -47727.113    3970.5351   -51697.648   0.13298803 
   49000      286.875     16.11782    148537.35   -47760.153    3939.5374    -51699.69   0.13945792 
   49100    286.96933   -11.090657    148552.15   -47678.164    3940.8328   -51618.997   0.13564309 
   49200    284.09528    -21.92673    148555.71   -47719.204    3901.3645   -51620.568   0.14146164 
   49300    286.01048   -40.362712    148538.29   -47778.987    3927.6653   -51706.652   0.13797647 
   49400    289.20899    9.1719079    148534.06   -47795.917    3971.5891   -51767.506   0.13238329 
   49500    287.44659   -25.042243    148519.62    -47735.83    3947.3867   -51683.217   0.14421209 
   49600    279.40159   -13.059745    148515.16   -47730.918     3836.908   -51567.826   0.13999771 
   49700    286.37525    -18.46684    148554.77   -47738.014    3932.6745   -51670.689   0.14055924 
   49800    285.35347   -16.384504    148554.76   -47749.462    3918.6427   -51668.104   0.13461275 
   49900    287.61682    6.4893897    148562.66   -47731.352    3949.7244   -51681.076   0.13716313 
   50000    288.28912    3.5727233    148559.23   -47739.302    3958.9569   -51698.259   0.13511672 
   50100     291.3561    27.040752    148566.46   -47595.502    4001.0744   -51596.576    0.1399401 
   50200    288.68797    -13.24307    148574.13   -47671.074    3964.4341   -51635.508   0.13802015 
   50300    286.79131  -0.66049896    148536.25   -47684.111     3938.388   -51622.499   0.14180617 
   50400    285.67095    -5.683652    148540.03   -47702.611    3923.0025   -51625.613    0.1338186 
   50500    287.48996   -3.1560724     148553.6   -47609.052    3947.9824   -51557.034   0.14676454 
   50600    290.09498   -22.812271    148591.19   -47541.968    3983.7559   -51525.724   0.13857507 
   50700    281.72457   -23.105945    148551.42   -47781.135    3868.8085   -51649.944   0.14249366 
   50800    286.26524  0.053652596    148512.78   -47756.958    3931.1638   -51688.122   0.13446539 
   50900    286.58706   -3.6606711    148507.99   -47782.253    3935.5831   -51717.836     0.137621 
   51000    285.53193    5.8724929    148518.49   -47736.892    3921.0935   -51657.986   0.13605113 
   51100    287.28804   0.87560889    148532.34   -47752.249    3945.2094   -51697.458   0.13555698 
   51200    282.32662   -18.570018       148518   -47808.015    3877.0763   -51685.091   0.13736221 
   51300    280.70711    17.502907    148498.06   -47815.308    3854.8361   -51670.144   0.13702485 
   51400    289.48616    16.816785    148517.49    -47756.37    3975.3953   -51731.765    0.1371391 
   51500    283.52714   -30.320592    148475.59   -47809.709    3893.5625   -51703.272   0.14197799 
   51600    287.51154   -27.737157    148490.23    -47725.85    3948.2787   -51674.129   0.13898018 
   51700    288.63097  -0.18971444    148527.38   -47624.281    3963.6513   -51587.932   0.14373498 
   51800    287.52072   -27.722229    148530.53   -47673.914    3948.4048   -51622.318   0.13995082 
   51900    286.02694    -24.75196    148528.13   -47741.102    3927.8912   -51668.993   0.13971935 
   52000    286.91994    24.859603     148492.6   -47716.048    3940.1544   -51656.203   0.13957315 
   52100    282.03901    16.782579    148508.03   -47802.809    3873.1266   -51675.935     0.134107 
   52200    279.83406    10.571877    148484.97   -47850.666    3842.8469   -51693.513   0.13885954 
   52300    287.56567    7.1211621    148491.38    -47832.86    3949.0219   -51781.882   0.12986523 
   52400    281.39166   -24.093665    148456.79   -47915.981    3864.2368   -51780.218    0.1409708 
   52500    283.75933    21.772026    148469.19    -47763.41    3896.7511   -51660.161   0.13640284 
   52600    283.72603   -23.578433    148516.26   -47731.241    3896.2938   -51627.535   0.14350856 
   52700    291.89746    -1.264718    148532.02   -47671.778    4008.5087   -51680.286   0.13733134 
   52800    290.11949    42.483913     148549.5    -47638.79    3984.0926   -51622.882   0.14121498 
   52900    290.53361    -11.10161    148565.77   -47669.084    3989.7795   -51658.863   0.13562003 
   53000    290.93039    12.539799    148569.54   -47618.393    3995.2284   -51613.621   0.14190399 
   53100    286.32874   -27.472728    148528.62   -47751.827    3932.0358   -51683.863   0.13485029 
   53200    288.61768    4.4964492    148506.84   -47798.104    3963.4689   -51761.573   0.13885417 
   53300    286.83342    20.131691    148516.42   -47758.997    3938.9662   -51697.963   0.12959382 
   53400    285.14391    7.0425588    148541.08   -47692.966    3915.7649   -51608.731   0.14378379 
   53500    290.86133    28.120647    148542.22   -47683.213      3994.28   -51677.493   0.13467996 
   53600    283.43465    9.7911706    148519.16   -47749.095    3892.2924   -51641.387   0.14036262 
   53700    280.95846   -40.806251    148528.75   -47733.777    3858.2879   -51592.064   0.14290576 
   53800    285.10829    1.8039256     148508.7   -47759.871    3915.2758   -51675.147   0.13468188 
   53900    284.60103   -11.565761    148490.11   -47760.721    3908.3097   -51669.031   0.14409504 
   54000    282.49514    6.1652193    148495.41   -47769.314    3879.3904   -51648.704   0.13253576 
   54100    280.87742   -9.0027532    148496.72   -47744.422     3857.175   -51601.597   0.14376877 
   54200    291.73568    3.8355841    148533.37   -47695.984     4006.287   -51702.271   0.13835963 
   54300    294.33634   -3.4776823    148519.94   -47620.237    4042.0009   -51662.238   0.13970476 
   54400    290.21687   -16.526518    148548.53   -47541.482    3985.4298   -51526.912   0.14297071 
   54500    289.57218   -3.8785952    148522.81   -47609.612    3976.5766   -51586.188   0.14002309 
   54600    285.16185   -7.9275106    148497.49   -47623.946    3916.0113   -51539.957   0.14392137 
   54700    284.95519  -0.44501629    148492.13   -47685.147    3913.1734    -51598.32   0.14383385 
   54800    292.91702     18.12001    148512.16    -47615.43    4022.5099    -51637.94   0.13749548 
   54900    292.03124     7.210263    148503.49   -47630.892    4010.3458   -51641.238   0.14522108 
   55000    291.99078   -24.518337    148519.65   -47665.537    4009.7902   -51675.328   0.13679592 
   55100     284.1912   -5.8927908    148510.64   -47677.267    3902.6818   -51579.949   0.14141971 
   55200    282.70372    -11.81616     148482.7   -47793.378    3882.2548   -51675.632     0.139458 
   55300    285.02103    1.7969996    148461.21   -47836.372    3914.0775    -51750.45   0.13905362 
   55400    284.47544    10.754899    148485.38   -47796.022    3906.5851   -51702.607   0.13691105 
   55500     288.1363    4.1183317    148489.28   -47757.832    3956.8582    -51714.69   0.13846593 
   55600    288.78039    25.993472    148517.54   -47655.615    3965.7033   -51621.318   0.13807671 
   55700    284.72587    25.648575    148533.56   -47617.528    3910.0242   -51527.552   0.14580229 
   55800    284.37219   -7.0799761    148579.69   -47606.419    3905.1672   -51511.586   0.13999753 
   55900    288.62696   -7.5481352    148559.61   -47616.684    3963.5963    -51580.28   0.14285668 
   56000    290.41435    8.7357207     148574.6   -47628.591    3988.1418   -51616.733   0.13634111 
   56100    285.46439    4.2370377     148545.3   -47610.186     3920.166   -51530.352    0.1436343 
   56200     286.0988   -21.229121    148542.49   -47644.387    3928.8781   -51573.265   0.14119351 
   56300    289.35126   -11.557083    148540.29   -47720.038    3973.5428   -51693.581   0.13473115 
   56400    283.98026   -21.509822    148513.97   -47768.014     3899.785   -51667.799   0.14168312 
   56500    281.34464   -1.4411804    148491.29    -47816.72    3863.5911   -51680.311   0.13098349 
   56600      282.785    17.655703    148493.71   -47872.334    3883.3709   -51755.705   0.13587902 
   56700    281.42155    0.4388162    148501.39   -47854.208    3864.6473   -51718.856   0.13356888 
   56800    287.99815    10.930353    148534.05    -47746.98    3954.9611   -51701.941   0.13874608 
   56900    278.27866   -23.359267    148508.31    -47845.43    3821.4873   -51666.917   0.13600383 
   57000    285.50133   0.13643366    148500.77   -47824.248    3920.6732   -51744.921   0.13445559 
   57100    281.97095   -3.8018021    148532.63   -47746.591     3872.192   -51618.783   0.13512262 
   57200    286.38754    4.8177693    148536.64     -47694.2    3932.8432   -51627.043    0.1403695 
   57300    282.94709    11.084754    148522.54   -47829.584    3885.5969   -51715.181   0.13318761 
   57400    289.64895    31.465395    148521.99   -47712.505    3977.6308   -51690.135   0.13630902 
   57500     283.4937   -7.1501185    148522.76   -47678.804    3893.1033   -51571.907   0.14102829 
   57600    284.63272    21.261065    148517.35   -47791.881    3908.7449   -51700.626   0.13497755 
   57700    290.40434    11.120288     148535.1   -47706.119    3988.0043   -51694.124   0.13409436 
   57800    288.03269   0.50974381    148558.73   -47654.749    3955.4354   -51610.185   0.13850574 
   57900    291.04503   -3.1681239    148543.55   -47688.984    3996.8026   -51685.787   0.13502289 
   58000    289.84364   -28.002617    148568.65   -47651.483    3980.3045   -51631.787   0.13745895 
   58100     285.3769   -13.107915    148551.41   -47699.401    3918.9645   -51618.366   0.13917269 
   58200    288.84064    1.5303442    148568.38   -47595.692    3966.5307   -51562.223   0.13960004 
   58300    294.57517    50.185017    148548.32   -47664.854    4045.2806   -51710.134   0.13573168 
   58400    280.11641    16.598658    148535.03   -47709.066    3846.7243   -51555.791   0.13827032 
   58500    283.10213   -32.664601    148529.79   -47710.722    3887.7261   -51598.448   0.14201263 
   58600    283.88075    11.288097    148514.29   -47744.006    3898.4185   -51642.424   0.13660454 
   58700    282.47374   -12.044411    148523.99   -47699.861    3879.0967   -51578.957   0.13839828 
   58800    285.86923     14.70603    148513.35   -47741.113    3925.7255   -51666.839   0.13541398 
   58900    288.94866    40.998397    148552.22   -47661.368     3968.014   -51629.382   0.13760515 
   59000     285.3968     33.86559    148574.67   -47628.757    3919.2378   -51547.995   0.13570957 
   59100    289.11059     1.253373    148580.91   -47595.916    3970.2377   -51566.154   0.13886821 
   59200    288.57736    2.6721483     148555.9   -47711.923    3962.9151   -51674.838   0.13236974 
   59300     285.8762   -23.225834    148567.03   -47699.081    3925.8212   -51624.902   0.14186109 
   59400    286.25892   -30.197581    148538.36   -47678.861    3931.0769   -51609.938   0.13579156 
   59500    282.49727     36.61783    148486.57   -47778.349    3879.4197   -51657.769   0.13818707 
   59600    288.85047    19.770913    148512.62   -47755.524    3966.6656    -51722.19   0.13113213 
   59700    286.51662    6.0615927    148522.18   -47685.166    3934.6159   -51619.782   0.13879813 
   59800    284.76574   -45.088525     148506.7   -47801.379    3910.5717   -51711.951   0.13397237 
   59900    281.20872   -25.465166    148498.74   -47791.774    3861.7247   -51653.499   0.13635332 
   60000    282.98192   -13.661595    148519.92    -47759.05    3886.0753   -51645.126    0.1387773 
   60100    286.87434    4.3132789    148514.11   -47718.833    3939.5282   -51658.362    0.1375907 
   60200    288.95258     14.66179    148508.93   -47683.157    3968.0679   -51651.225   0.13689682 
   60300    285.88214    3.8320986    148526.09   -47645.736    3925.9028   -51571.639   0.14083044 
   60400    292.48493   -10.828258    148561.65   -47599.193    4016.5762    -51615.77   0.13986336 
   60500      287.827   -14.808214    148565.01   -47628.114    3952.6107   -51580.725   0.13926519 
   60600    285.34654   -33.309452     148533.2   -47686.982    3918.5476    -51605.53   0.14017257 
   60700    292.73473   0.48879306    148553.11   -47515.567    4020.0066   -51535.573   0.13802125 
   60800    295.96498    16.373612    148573.22   -47539.283    4064.3663   -51603.649   0.13989074 
   60900    291.66884    2.5736441    148554.43   -47631.726    4005.3691   -51637.095   0.13296073 
   61000     284.8992   -15.013218    148523.45    -47669.16    3912.4045   -51581.564   0.14673401 
   61100    289.09347   -18.998965    148548.32   -47655.409    3970.0027   -51625.411   0.13721584 
   61200    293.57097    22.849064    148555.27   -47598.157    4031.4903   -51629.647   0.13924143 
   61300    287.65382   -8.7889967    148534.78   -47692.674    3950.2326   -51642.907   0.13648764 
   61400    289.19632   -4.5188614    148517.41   -47743.206    3971.4151   -51714.621   0.13898042 
   61500    284.95757    2.7431615    148523.22   -47680.586     3913.206   -51593.792   0.13949074 
   61600     289.4327   -10.895201    148529.59   -47722.711    3974.6612   -51697.373   0.13862602 
   61700    285.26916   -28.592411    148521.39   -47790.733    3917.4849   -51708.218   0.13656633 
   61800    284.33067    5.1308685    148516.85   -47779.005     3904.597   -51683.602   0.13937256 
   61900    289.48913    16.155704    148549.28   -47673.418    3975.4361   -51648.854   0.13288809 
   62000    285.41146    4.9432954     148528.8   -47685.578    3919.4392   -51605.017   0.14002481 
   62100    288.67199     3.502791    148539.51   -47756.392    3964.2146   -51720.606   0.13389723 
   62200    287.37161     5.872664    148558.63   -47650.319    3946.3571   -51596.676   0.13917581 
   62300    289.76567    11.097185    148535.11   -47689.774    3979.2337   -51669.008   0.13915814 
   62400    284.60207    11.174372    148530.69   -47740.019     3908.324   -51648.343    0.1361182 
   62500    287.70654   -26.943101    148524.47    -47729.06    3950.9565   -51680.016   0.14389263 
   62600    286.99747    13.572822    148520.62   -47762.175    3941.2192   -51703.394   0.13648679 
   62700      282.054   -38.900623    148474.85    -47791.71    3873.3325   -51665.043   0.14333686 
   62800    281.17943   -16.745928    148475.52   -47767.396    3861.3224   -51628.719   0.14110924 
   62900    291.06512    14.099743    148503.88   -47677.727    3997.0785   -51674.805   0.13731293 
   63000    286.52196     16.10984    148488.17   -47700.081    3934.6891   -51634.771   0.13910837 
   63100    283.98436  -0.96464914    148472.03   -47773.117    3899.8413   -51672.959   0.13654432 
   63200    287.14044   -16.946865    148497.02   -47654.785    3943.1825   -51597.968    0.1453148 
   63300     288.3284    33.917056    148511.09   -47751.879    3959.4962   -51711.376     0.140642 
   63400    279.55332    27.304197    148485.19   -47839.704    3838.9917   -51678.695   0.13334567 
   63500      275.117   -21.537371    148486.29   -47814.676    3778.0695   -51592.746   0.14372048 
   63600    281.28505    21.306797    148491.86   -47862.601    3862.7728   -51725.374   0.13369127 
   63700    284.59415     36.64188    148488.91   -47833.198    3908.2153   -51741.413   0.13542093 
   63800     280.5324    4.3496921    148487.98   -47901.502    3852.4369   -51753.939   0.13241243 
   63900    282.24561    21.164923    148504.88   -47794.889    3875.9638   -51670.852   0.13891074 
   64000    286.69795   -13.665176    148512.88   -47709.637     3937.106   -51646.743   0.13877229 
   64100    289.21455    3.7257632    148519.79   -47665.154    3971.6654   -51636.819   0.13979656 
   64200    285.74027   -26.927982    148522.89   -47656.902    3923.9545   -51580.857   0.14388977 
   64300    281.36589   -54.774726    148534.41   -47695.499     3863.883   -51559.382   0.14413621 
   64400    285.38056   -9.1058167    148504.29   -47746.728    3919.0148   -51665.742   0.13756292 
   64500    289.02425    37.685187    148504.16   -47735.404    3969.0521   -51704.457   0.13675159 
   64600    284.14954    20.510188     148509.8   -47770.726    3902.1097   -51672.836   0.13660657 
   64700     279.6592    5.3661745    148505.65   -47774.536    3840.4457   -51614.981   0.14057168 
   64800    286.97173   -6.6894198     148494.1   -47719.524    3940.8657    -51660.39    0.1394974 
   64900    287.13164   -14.804471    148512.17   -47633.072    3943.0616   -51576.134   0.14116009 
   65000    288.31932   -4.4268435    148540.27   -47625.858    3959.3715   -51585.229   0.14083505 
   65100    289.93048   -11.429536    148521.55   -47695.711    3981.4969   -51677.208   0.13666981 
   65200    288.36114   -6.2131979    148505.53   -47708.551    3959.9459   -51668.497   0.14571815 
   65300    287.56556    19.670893    148536.31   -47647.012    3949.0205   -51596.033   0.13635236 
   65400    286.83094   -6.7502589     148521.5   -47687.796    3938.9322   -51626.728   0.14417597 
   65500    289.28312   -22.035512    148546.46   -47626.546     3972.607   -51599.153   0.13775415 
   65600    290.08066   -31.485352    148566.87   -47644.052    3983.5594   -51627.612   0.14327546 
   65700    282.22476    2.4710581    148569.07   -47596.786    3875.6775   -51472.464   0.14337206 
   65800    285.27486     3.462287    148555.07   -47666.112    3917.5632   -51583.675   0.14181596 
   65900    291.48483    5.1253174    148541.62   -47681.271    4002.8423   -51684.114   0.13789567 
   66000    290.01298    18.680906    148551.29   -47693.763    3982.6299   -51676.393   0.13558136 
   66100    288.11507   -25.107521    148543.21   -47660.151    3956.5666   -51616.718   0.14060318 
   66200    285.39117     10.65437    148549.76   -47797.646    3919.1605   -51716.806   0.13455842 
   66300    288.20595  -0.64476864    148523.69   -47721.169    3957.8147   -51678.984    0.1359404 
   66400    291.15745   -10.459958    148539.92   -47729.645    3998.3464   -51727.992   0.13916253 
   66500    286.92386    21.390848    148508.74   -47758.443    3940.2083   -51698.651    0.1341717 
   66600    287.32914    17.960521     148510.5   -47760.707    3945.7738   -51706.481   0.13615477 
   66700    284.53743    32.311433    148514.62   -47741.728    3907.4364   -51649.165   0.13768472 
   66800    283.43003   -8.5791033    148511.67   -47763.713     3892.229   -51655.942   0.13797153 
   66900    284.48482    8.2470445    148512.98   -47776.281    3906.7139   -51682.995   0.13896663 
   67000    281.31687    4.1157181    148488.05   -47883.125    3863.2098   -51746.334   0.12896987 
   67100    287.21275   -12.394417    148529.06   -47723.108    3944.1755   -51667.284   0.13948337 
   67200    278.52133   -11.472984    148537.77   -47825.668    3824.8198   -51650.488    0.1374632 
   67300    284.21022    2.4208685    148530.23    -47747.02     3902.943   -51649.963   0.13809563 
   67400    287.82801    21.945969     148534.9   -47722.237    3952.6246   -51674.862   0.13938433 
   67500    289.89108   -40.542439    148548.55   -47716.031    3980.9559   -51696.987    0.1378004 
   67600    286.64833     18.63057    148566.85   -47572.652    3936.4246   -51509.076   0.13912841 
   67700    288.09591   -18.140117    148554.63     -47645.1    3956.3036   -51601.403   0.14024758 
   67800    290.42941    19.124265    148568.43   -47688.312    3988.3485    -51676.66   0.13221507 
   67900    287.14566    10.253549    148555.38   -47718.931    3943.2541   -51662.185   0.14131645 
   68000    287.61697   -12.394279    148548.81   -47755.129    3949.7264   -51704.855   0.13380461 
   68100    284.07037   -4.7072457    148528.49    -47755.21    3901.0224   -51656.233   0.14194373 
   68200    282.47523   -22.247455    148525.68   -47724.587     3879.117   -51603.704   0.13969959 
   68300    287.94915   -21.843954    148535.84   -47669.671    3954.2882   -51623.959   0.14163538 
   68400    289.32541   -19.535762    148564.26    -47638.71    3973.1877   -51611.898   0.14157293 
   68500    292.09273   -26.751779    148585.61   -47639.875    4011.1903   -51651.066   0.13831829 
   68600    282.68035 -0.029634502    148561.53    -47727.95    3881.9339   -51609.884   0.13519647 
   68700    288.13262    14.411762    148547.16   -47702.013    3956.8077    -51658.82   0.13603806 
   68800    284.51606    1.2824158    148567.66   -47699.518     3907.143   -51606.661   0.13785709 
   68900    287.61806   -28.396055    148533.07   -47699.813    3949.7415   -51649.554   0.14166519 
   69000    286.60262  -0.30454085    148556.16   -47698.913    3935.7968    -51634.71   0.13797354 
   69100    285.84124    20.850581    148529.99   -47761.817    3925.3411   -51687.158   0.13338281 
   69200    279.67085   -11.920635     148507.9   -47768.774    3840.6056    -51609.38   0.14166939 
   69300    283.91216    14.020144     148502.3   -47798.124    3898.8499   -51696.974   0.13521522 
   69400    282.86765    15.196549    148491.88   -47851.749     3884.506   -51736.255   0.13509671 
   69500    284.86081    5.7811525    148511.89   -47717.952    3911.8772   -51629.829   0.13655373 
   69600    286.92628    10.926219    148549.34   -47610.323    3940.2415   -51550.565   0.14334545 
   69700    284.43659   -12.774351    148543.38   -47707.812    3906.0516   -51613.864   0.13870949 
   69800    287.75932    25.839744    148510.79    -47703.18    3951.6813   -51654.861    0.1391312 
   69900    286.35583     5.796092    148499.78   -47796.208    3932.4077   -51728.616   0.13710638 
   70000    284.51087   -22.361659     148502.5   -47729.428    3907.0716     -51636.5   0.14232792 
   70100    285.39386   -34.531529    148497.27   -47848.696    3919.1974   -51767.893   0.13423374 
   70200    285.91931    4.6663619    148538.55   -47693.288    3926.4131   -51619.701   0.13600419 
   70300    287.65173    25.650088    148522.89    -47692.63    3950.2038   -51642.833   0.13774463 
   70400    287.91989   -10.665065    148566.82   -47586.768    3953.8863   -51540.654   0.14096585 
   70500    289.84821    18.711692     148544.3   -47658.027    3980.3671   -51638.395   0.13626778 
   70600    282.13762   -15.981899    148538.96   -47714.972    3874.4808   -51589.453   0.13789036 
   70700    288.93043   -18.489605    148545.49   -47687.892    3967.7637   -51655.656    0.1361922 
   70800    288.40403   -23.176463    148559.31   -47724.178    3960.5348   -51684.713   0.13623744 
   70900    287.33346   -10.259173    148554.36   -47716.779    3945.8332   -51662.612   0.13903731 
   71000    290.34461   -11.835872    148542.79   -47734.993     3987.184   -51722.177   0.13294281 
   71100     287.8734    11.026511    148537.48   -47729.718    3953.2479   -51682.966   0.13278954 
   71200    282.81021   -13.137447    148542.68   -47763.692    3883.7172   -51647.409   0.13448282 
   71300    284.02952   -6.5670686    148529.45   -47813.816    3900.4615   -51714.278   0.13267554 
   71400    284.11276   -34.302802    148495.91   -47752.897    3901.6046   -51654.501   0.13887473 
   71500    287.42423    25.291941    148521.37   -47701.639    3947.0797   -51648.718   0.13670016 
   71600    284.87536    1.1851053    148547.63   -47725.108     3912.077   -51637.185   0.13197074 
   71700    285.88369    10.418806    148541.72   -47712.025     3925.924   -51637.949   0.13598458 
   71800     277.8406   -27.958136    148525.55   -47885.568    3815.4715    -51701.04   0.13336922 
   71900    286.51229    17.816175    148514.82   -47826.166    3934.5564   -51760.722   0.13234905 
   72000     287.0158    31.501985    148522.21   -47793.028    3941.4708   -51734.499   0.13346729 
   72100    292.63634  0.074540619    148547.86   -47659.028    4018.6554   -51677.683   0.13398492 
   72200    291.44738    35.238011    148596.64   -47556.325     4002.328   -51558.653   0.13588992 
   72300    294.87544    23.153004     148615.7   -47532.536    4049.4041    -51581.94    0.1383846 
   72400    284.59077   -9.5843927    148575.92   -47651.777    3908.1689   -51559.946   0.13789024 
   72500     285.5302    23.906948    148592.42   -47651.988    3921.0697   -51573.057   0.14137866 
   72600    288.13124    17.883123    148585.89   -47587.435    3956.7887   -51544.224   0.13732482 
   72700    284.34987   -21.234103    148574.98    -47751.91    3904.8607   -51656.771   0.13456836 
   72800    287.21654     -15.7613    148552.41   -47674.127    3944.2275   -51618.354   0.13794152 
   72900    285.95838     5.031202    148549.77   -47681.462    3926.9497   -51608.412   0.13866647 
   73000    284.41722   0.20091553    148543.35   -47685.771    3905.7856   -51591.557   0.13984663 
   73100    288.87839    5.6357873    148550.14   -47649.171    3967.0491   -51616.221   0.13840025 
   73200    289.00678    18.191244    148570.13   -47633.822    3968.8122   -51602.634   0.13796149 
   73300    288.01171     8.964528    148584.42   -47614.798    3955.1473   -51569.945   0.13728715 
   73400    290.27961    31.603915    148559.37   -47593.318    3986.2915    -51579.61   0.13717959 
   73500    289.70744    6.3837169    148587.22   -47603.708    3978.4341   -51582.142   0.13681802 
   73600    287.54381    17.798301     148576.8   -47644.122    3948.7217   -51592.844   0.13761483 
   73700    291.45443   -3.2061745    148566.35   -47693.987    4002.4247   -51696.412   0.13561624 
   73800    283.75234    -57.48505    148515.65   -47790.106     3896.655   -51686.761   0.13961081 
   73900    281.85636   -9.6994853    148505.07   -47765.294    3870.6184   -51635.912   0.13884068 
   74000    284.19795   -8.5778188    148498.58   -47690.082    3902.7745   -51592.857   0.14085063 
   74100    292.52878    38.439176    148563.89   -47528.814    4017.1784   -51545.993   0.13488963 
   74200    290.46741   -19.395055    148531.21   -47694.866    3988.8703   -51683.737   0.13905388 
   74300    288.02022    18.646384    148506.86   -47693.474    3955.2641   -51648.738   0.13700965 
   74400    281.86787     10.20735    148514.71   -47727.013    3870.7764   -51597.789   0.13780173 
   74500    286.24279   -1.0388126    148501.16   -47739.384    3930.8554   -51670.239   0.13760621 
   74600    282.04355   -43.186785    148520.84   -47748.242     3873.189   -51621.431   0.13909488 
   74700    287.32911    7.5575143    148562.24   -47663.569    3945.7733   -51609.342   0.13773667 
   74800    286.09355  -0.93288913    148545.04    -47720.56     3928.806   -51649.366   0.13721109 
   74900    285.67574    34.918541    148542.22   -47719.191    3923.0684   -51642.259   0.13357906 
   75000    286.97834    5.9480225     148527.7   -47701.877    3940.9564   -51642.834   0.13757951 
   75100    290.81414    1.9722375    148550.24   -47636.061    3993.6319   -51629.693   0.13823558 
   75200    286.62074   -4.2660398    148557.95    -47684.86    3936.0456   -51620.906   0.13756565 
   75300     287.0766   -37.455874    148535.07   -47734.637    3942.3057   -51676.943   0.14134714 
   75400    284.52588    20.065764    148535.84   -47743.331    3907.2778   -51650.609   0.13347964 
   75500    291.34816    29.838781    148535.17   -47738.647    4000.9654   -51739.613   0.13064741 
   75600     285.9444    11.493762    148558.17   -47668.857    3926.7577   -51595.615   0.13772928 
   75700    284.13997   -9.0448575    148560.23    -47622.57    3901.9783   -51524.549   0.14351848 
   75800    288.05547   -17.014524    148566.83   -47649.817    3955.7482   -51605.565   0.14413332 
   75900    284.33321   -10.392016    148566.54   -47666.898    3904.6319    -51571.53   0.13930982 
   76000    288.81279  -0.37646812    148547.13   -47670.442    3966.1481    -51636.59   0.13669523 
   76100    288.22018    17.669162    148519.25   -47758.985    3958.0101   -51716.995   0.13448594 
   76200    283.71117   -25.178913    148508.77   -47799.678    3896.0897   -51695.768   0.13441933 
   76300    284.96615   -7.4882988    148525.13   -47742.448    3913.3239   -51655.772    0.1405805 
   76400    284.96226   -15.862772    148520.89   -47741.886    3913.2705   -51655.157   0.13974808 
   76500    283.33067   -6.2567429    148536.62   -47729.018    3890.8644   -51619.883   0.13840367 
[...]
   81900    284.06724    23.022445     148521.4   -47765.361    3900.9795    -51666.34   0.13789925 
   82000     288.4828    -2.189951     148552.5    -47679.61    3961.6165   -51641.227   0.13794286 
   82100    287.40825    3.4113418    148576.08   -47630.835    3946.8602   -51577.695   0.14055496 
   82200    290.61677    24.802263    148575.45    -47645.56    3990.9214   -51636.482   0.14139384 
   82300    286.75469    9.2965857    148560.69   -47716.625    3937.8852   -51654.511    0.1367426 
   82400    285.12194   -12.684334    148582.72   -47596.871    3915.4632   -51512.334   0.14855775 
   82500    291.63067   -12.125566     148626.8   -47501.811     4004.845   -51506.656    0.1401195 
   82600    286.00917   -40.959459    148608.23   -47600.684    3927.6472   -51528.331   0.14497235 
   82700    282.85815   -27.926916    148571.31   -47685.976    3884.3755   -51570.352   0.14091384 
   82800    281.77621   -4.2025295    148556.85   -47693.441    3869.5177   -51562.958   0.13806519 
   82900    288.16795   -20.131739    148565.76   -47650.704    3957.2929   -51607.997   0.14254627 
   83000    294.13478 -0.080007805    148568.33   -47586.596    4039.2329   -51625.829    0.1404902 
   83100    287.33993   0.40126465    148554.63   -47624.361     3945.922   -51570.283   0.14139138 
   83200    288.47302   -19.556342    148541.41   -47653.897    3961.4822   -51615.379   0.14214231 
   83300    289.19132    22.068562    148529.43   -47643.661    3971.3464   -51615.008   0.14007508 
   83400    283.59202   -11.015846    148517.55   -47723.949    3894.4535   -51618.403   0.14385406 
   83500    281.76397     28.27955    148483.25   -47826.783    3869.3496   -51696.133   0.13358884 
   83600    284.94503   -5.3135337    148511.79   -47774.699    3913.0338   -51687.732   0.13469433 
   83700    281.22386   -21.557361    148504.31   -47799.766    3861.9325   -51661.699   0.14117164 
   83800    283.53597    16.651158    148490.04   -47755.995    3893.6837   -51649.679   0.13599596 
   83900      283.254   -23.368045    148479.44   -47758.459    3889.8117   -51648.271    0.1444048 
   84000    288.03276    6.5746198    148496.25   -47778.644    3955.4363    -51734.08   0.13697867 
   84100     288.7373    11.172998    148502.32   -47706.316    3965.1115   -51671.427   0.13786807 
   84200    291.67203   -11.017983    148500.79   -47664.919    4005.4129   -51670.331   0.14167494 
   84300     286.2816    34.209938    148497.99   -47708.016    3931.3883   -51639.404   0.13720602 
   84400    286.28573    -11.26349    148517.06   -47711.241    3931.4451   -51642.686   0.14550081 
   84500    283.75864   -16.548009    148504.66   -47762.383    3896.7416   -51659.125   0.13865462 
   84600    286.39562    -6.302487    148521.99   -47676.492    3932.9542   -51609.446   0.14161491 
   84700     289.5197    45.825506    148529.15   -47684.047    3975.8559   -51659.903   0.13484713 
   84800    288.07242    17.420659    148538.23   -47682.565    3955.9809   -51638.546   0.13605951 
   84900    289.63759   -9.2082018    148550.97   -47604.145    3977.4748    -51581.62   0.14493054 
   85000    290.58389    9.0148091    148581.78   -47679.123      3990.47   -51669.593   0.13687457 
   85100    289.51262   -35.604967    148547.05   -47694.757    3975.7586   -51670.516   0.14013409 
   85200    287.04091    2.2852601    148538.88   -47738.534    3941.8156    -51680.35   0.13473414 
   85300    283.53252   -8.0303307     148523.5   -47750.146    3893.6364   -51643.782   0.13775401 
   85400     283.1696   -26.986019    148508.88    -47780.75    3888.6526   -51669.403   0.14117147 
   85500    286.10303   -19.222738    148545.01   -47729.095    3928.9362   -51658.031   0.14191539 
   85600    285.29229    16.798035    148543.15   -47758.152    3917.8026   -51675.954   0.13283854 
   85700    291.18324    34.501498    148543.58   -47694.253    3998.7006   -51692.954   0.13829018 
   85800    288.19934   -18.883356    148548.76   -47687.258     3957.724   -51644.982   0.13670529 
   85900    287.06054   -7.2395516    148550.86   -47656.421    3942.0852   -51598.506   0.14585686 
   86000    286.30055    -20.65729    148534.32   -47713.516    3931.6486   -51645.165    0.1397096 
   86100    290.04277    11.762929    148531.16   -47687.934     3983.039   -51670.973   0.13683867 
   86200    289.18887    35.795654    148535.58   -47649.784    3971.3127   -51621.096   0.13997762 
   86300    289.46582     31.34688    148529.62   -47693.691     3975.116   -51668.807   0.13258654 
   86400    281.35219   -2.5611696    148502.32   -47752.452    3863.6948   -51616.147   0.14591007 
   86500    285.18663    11.242877    148504.15   -47785.842    3916.3516   -51702.194   0.13671182 
   86600    294.15642    3.4254391    148509.78   -47625.702      4039.53   -51665.232   0.14342395 
   86700    289.86455      9.17037    148527.98   -47626.272    3980.5915   -51606.864   0.13892833 
   86800    282.41738   -2.7503096    148511.46   -47749.566    3878.3226   -51627.889   0.13931716 
   86900    281.19859    17.639733    148522.87   -47728.628    3861.5854   -51590.213   0.14055339 
   87000    280.29526    -13.55218     148533.2   -47703.623    3849.1804   -51552.803   0.14469716 
   87100    288.80551    32.825432    148545.33   -47676.365    3966.0482   -51642.413   0.13858266 
   87200    289.34125    2.3904574     148567.9   -47612.768    3973.4053   -51586.173   0.13992792 
   87300    285.83199   -46.547491    148588.29   -47626.724    3925.2141   -51551.938   0.14162875 
   87400    290.41209   -18.992338    148556.95   -47680.376    3988.1107   -51668.487   0.13911143 
   87500    287.07504   -4.5677682     148570.4   -47658.283    3942.2843   -51600.567   0.14174752 
   87600    287.12691  -0.73262908    148561.76   -47685.068    3942.9967   -51628.065   0.14005666 
   87700     287.7661   -30.850366    148544.45   -47651.568    3951.7744   -51603.342   0.14148626 
   87800    284.94466   -21.460161    148526.97   -47738.949    3913.0287   -51651.978   0.14174131 
   87900    281.38799    36.739274     148534.9   -47755.671    3864.1865   -51619.858    0.1393788 
   88000    287.70586    2.7466617    148541.04   -47731.112    3950.9472   -51682.059   0.14267885 
   88100    283.26914   -17.886036    148572.95   -47699.033    3890.0194   -51589.053   0.14306786 
   88200    289.43974    17.401013    148563.98   -47798.903    3974.7579    -51773.66   0.13288467 
   88300    287.55938     23.38193    148555.55    -47742.98    3948.9356   -51691.915    0.1388755 
   88400    288.22487    37.233581    148569.94   -47666.461    3958.0745   -51624.535   0.14122189 
   88500    285.59904    26.227736    148583.75   -47742.422    3922.0151   -51664.437   0.13642936 
   88600    283.26637   -16.569207    148593.43     -47734.8    3889.9815   -51624.781   0.14108741 
   88700    289.59576    3.0979767    148594.48   -47705.913    3976.9005   -51682.814    0.1321438 
   88800    286.65154    13.840447     148603.6   -47772.695    3936.4686   -51709.164   0.13319959 
   88900     285.2678    18.299411    148569.99   -47703.704    3917.4663    -51621.17   0.13862325 
   89000    291.17436    3.0965289    148578.19   -47674.213    3998.5787   -51672.792   0.13995562 
   89100    283.31371    28.686299    148572.98   -47722.319    3890.6316   -51612.951    0.1395757 
   89200     288.0719   -16.916497     148589.9   -47680.088    3955.9738   -51636.062   0.13871097 
   89300    285.69702   -17.178963    148535.22   -47793.773    3923.3606   -51717.134   0.13974264 
   89400    289.02056    12.488062    148569.77   -47696.371    3969.0014   -51665.372   0.13629554 
   89500    281.74564   0.10763189    148555.51   -47793.923    3869.0979   -51663.021   0.13920114 
   89600    281.42055   -9.9674877    148546.14   -47818.627    3864.6336   -51683.261   0.13355738 
   89700    285.20113   -17.124004    148547.31   -47732.546    3916.5507   -51649.097   0.13925437 
   89800    291.88831    14.355323    148570.12   -47669.214     4008.383   -51677.597   0.13615869 
   89900    284.97946   -50.188863    148561.15   -47653.889    3913.5066   -51567.396   0.14406566 
   90000    292.68288    20.298261    148553.24   -47676.981    4019.2945   -51696.276   0.14038958 
   90100    291.90944   -6.6302874    148555.36   -47663.072    4008.6732   -51671.746    0.1393365 
   90200    285.91451   -19.936612    148556.91   -47732.872    3926.3473   -51659.219   0.13795397 
   90300    288.89249    10.923786    148552.94   -47708.123    3967.2427   -51675.365   0.13903084 
   90400    292.27156    32.625847    148558.07   -47693.026    4013.6461   -51706.672    0.1328991 
   90500    288.01022   -35.015392    148553.78   -47704.802    3955.1269   -51659.929   0.14255862 
   90600    285.67036    -8.254453    148554.68   -47731.395    3922.9945   -51654.389   0.13847499 
   90700    281.22707   -27.299457    148562.83   -47761.986    3861.9766   -51623.963   0.13785976 
   90800    284.76064   0.38008318    148540.92   -47775.661    3910.5017   -51686.163   0.13844913 
   90900    283.44931   -14.034495    148553.02   -47749.641    3892.4937   -51642.135   0.13500142 
   91000    285.69594    3.9891469    148550.34   -47770.556    3923.3458   -51693.902   0.13970228 
   91100     281.0855   -3.4833438    148525.58   -47872.726    3860.0325   -51732.759   0.13312095 
   91200    282.79579   -29.049595    148525.63   -47820.088    3883.5191   -51703.607   0.13965182 
   91300    289.32214   -7.6015925    148545.65   -47756.784    3973.1429   -51729.927   0.13896586 
   91400    286.49757   -13.526186    148551.38   -47728.341    3934.3542   -51662.696    0.1385428 
   91500    290.55455   -3.0700349    148565.12   -47560.971     3990.067   -51551.038   0.14558561 
   91600    287.48287    7.6871707    148570.12   -47627.943     3947.885   -51575.828   0.14006721 
   91700    284.52625    -12.83999    148536.27   -47698.003    3907.2829   -51605.286   0.14017983 
   91800    287.11591     36.53445     148560.4   -47671.965    3942.8457    -51614.81   0.13969835 
   91900    288.42075   -9.2677983    148562.19   -47665.748    3960.7644   -51626.512   0.13844863 
   92000    283.41329    5.2110677    148546.77   -47708.793    3891.9991   -51600.793   0.14241097 
   92100    286.86514   -22.191857    148536.66   -47693.328    3939.4019    -51632.73   0.13954292 
   92200    287.67368  -0.52186934     148527.5   -47722.681    3950.5053   -51673.186   0.13895786 
   92300    289.64026   0.33434703    148565.64    -47598.05    3977.5114   -51575.561   0.14284095 
   92400    292.00786    27.986744    148548.42   -47639.677    4010.0248   -51649.702   0.14198287 
   92500    295.74834    18.468669    148522.82   -47631.975    4061.3913   -51693.366   0.14487583 
   92600    295.24093    41.887291     148564.6   -47547.255    4054.4233   -51601.679   0.14077796 
   92700    284.51548   -64.019154    148572.77   -47678.769    3907.1349   -51585.904   0.14731234 
   92800    288.09575    -7.325713    148556.68   -47687.905    3956.3014   -51644.206   0.14181713 
   92900    285.90406  -0.69102135    148524.49   -47725.973    3926.2038   -51652.177   0.13905714 
   93000    284.44427   -29.765813    148509.39   -47736.565    3906.1571   -51642.722   0.14700754 
   93100    285.40409    23.916248    148528.32   -47653.717    3919.3379   -51573.055   0.14124715 
   93200    283.22736   -19.438365    148514.15   -47709.211    3889.4457   -51598.657   0.14516982 
   93300    285.25508    4.3931477    148522.76     -47755.2    3917.2916   -51672.492   0.13589018 
   93400    284.18024   -42.733027    148501.38   -47816.587    3902.5313   -51719.118    0.1387359 
   93500    278.91953   -45.542046    148475.53   -47812.342    3830.2881    -51642.63   0.14282569 
   93600     282.7098   0.16867222    148481.35   -47764.665    3882.3383   -51647.003    0.1397502 
   93700    284.52791    1.5421888    148496.76   -47743.503    3907.3057   -51650.809   0.14153226 
   93800    288.72786     19.48966    148498.15   -47742.689    3964.9818   -51707.671   0.13715467 
   93900    282.20894    29.581757    148488.88   -47817.651    3875.4603   -51693.111    0.1356113 
   94000    283.57376    3.2715304    148487.32   -47783.592    3894.2028   -51677.795    0.1382422 
   94100    285.35026   -9.1234229    148516.13   -47671.626    3918.5987   -51590.224   0.14539946 
   94200    290.27382    12.788341    148537.75    -47661.54    3986.2119   -51647.752   0.13757413 
   94300    288.32317   -32.894104    148531.66   -47675.398    3959.4245   -51634.823   0.14462185 
   94400    287.25432   -17.923125    148535.62   -47669.837    3944.7463   -51614.583   0.14034043 
   94500    290.00841    21.570922    148528.62   -47672.934    3982.5671   -51655.501   0.14047972 
   94600    284.33085   -23.079404     148520.3   -47677.188    3904.5996   -51581.788   0.14242891 
   94700    288.56557   -19.259653    148554.41   -47726.035    3962.7532   -51688.788    0.1443627 
   94800    284.24914   -7.7414241    148527.15   -47758.526    3903.4774   -51662.004   0.13832185 
   94900    278.24756    17.798611    148498.08   -47780.978    3821.0602   -51602.038   0.14326432 
   95000    284.73953    25.144896     148502.3   -47737.103    3910.2117   -51647.315   0.14149832 
   95100    288.42166    40.379559    148518.68   -47704.035     3960.777   -51664.812   0.14176157 
   95200    282.89478   -12.200912     148517.2   -47736.486    3884.8786   -51621.364   0.14801594 
   95300    286.34295    16.297762    148522.99   -47689.899    3932.2308   -51622.129   0.13618297 
   95400    292.56835    34.787167    148527.51   -47659.169    4017.7217   -51676.891   0.14415816 
   95500    287.03847   -18.286508    148526.33   -47676.482    3941.7822   -51618.265   0.13916622 
   95600    290.74748    35.414303    148500.54    -47659.42    3992.7165   -51652.136   0.14404637 
   95700     286.0373   -44.475575    148507.54   -47701.616    3928.0335   -51629.649   0.14723229 
   95800    287.48866     10.94633    148533.78   -47643.215    3947.9645   -51591.179   0.14306585 
   95900    292.20404    5.3357602    148545.31   -47667.102    4012.7188   -51679.821   0.14314477 
   96000       287.51   -5.3140094    148541.22   -47629.397    3948.2575   -51577.655   0.14004856 
   96100    288.74315    -13.80068    148552.86   -47578.861    3965.1918   -51544.052     0.148276 
   96200    293.92675   -12.756247    148560.12   -47604.795    4036.3761   -51641.171   0.14366443 
   96300    285.71692   0.75220107    148563.43   -47621.038    3923.6338   -51544.672   0.14429661 
   96400    286.60665   -4.6421898    148558.09   -47674.532    3935.8522   -51610.384   0.14244447 
   96500    291.72262    27.667149     148555.6   -47672.531    4006.1077   -51678.639   0.13738934 
   96600    282.91355    33.564773    148526.76   -47719.965    3885.1364   -51605.102   0.14277158 
   96700     285.3139   -25.931386    148532.81   -47691.688    3918.0994   -51609.787   0.14489616 
   96800    290.48395   0.96190452    148540.66   -47712.305    3989.0976   -51701.402   0.14258561 
   96900    286.43104    23.707032    148525.63   -47717.737    3933.4405   -51651.178   0.14350421 
   97000    281.77685    2.5433256    148488.22   -47786.768    3869.5265   -51656.295   0.14006365 
   97100    286.04249   -12.684916    148465.17   -47755.775    3928.1047    -51683.88   0.14531528 
   97200    287.92244    41.526207    148481.26    -47695.53    3953.9213   -51649.451   0.14468706 
   97300    289.50892   -5.5487289    148524.29   -47590.501    3975.7078   -51566.209   0.14706561 
   97400    287.64851   -36.053812    148537.58   -47687.361    3950.1596   -51637.521   0.14857421 
   97500     290.2629     4.130324    148540.82    -47658.07    3986.0619   -51644.131   0.13908592 
   97600    292.63277    8.5804691    148540.39    -47595.44    4018.6065   -51614.046   0.14887848 
   97700    291.12923    11.306022    148535.12   -47553.721    3997.9589    -51551.68   0.14580181 
   97800    290.30947   -16.413843    148516.19   -47662.627    3986.7015   -51649.329   0.14598907 
   97900    286.19358   0.79351787    148525.88   -47620.416    3930.1797   -51550.596   0.14822993 
   98000     291.5854    13.684264    148512.76   -47708.976    4004.2234     -51713.2   0.13745122 
   98100    286.04802   -15.412356     148494.5   -47689.148    3928.1807   -51617.328   0.15197537 
   98200     288.3587   -4.4471788    148511.88   -47689.415    3959.9124   -51649.327    0.1444269 
   98300    286.76659    9.3775016    148516.78   -47624.661    3938.0485   -51562.709   0.15257328 
   98400    280.84938   -17.980682    148527.61   -47671.096      3856.79   -51527.886   0.14646124 
   98500    281.94608    11.529244    148534.81   -47647.439    3871.8505    -51519.29   0.14582744 
   98600    283.40168   -6.5994013     148528.4   -47653.405    3891.8396   -51545.245   0.14815588 
   98700    289.72563    26.046974    148532.06   -47620.086    3978.6839    -51598.77   0.14186765 
   98800    284.98001   -26.986784    148530.57   -47631.744    3913.5142   -51545.258   0.14967607 
   98900    289.65915  -0.84407118    148527.13   -47695.839    3977.7708   -51673.609   0.13909507 
   99000    288.76158    12.821145    148509.49   -47691.311     3965.445   -51656.756   0.14419321 
   99100    283.42537    7.8574588    148505.07    -47751.38    3892.1649   -51643.545   0.14263463 
   99200    285.64028   -20.514095    148533.21   -47755.416    3922.5814   -51677.997   0.14216344 
   99300    289.36556   -5.7923792    148525.94    -47681.86    3973.7391   -51655.599   0.14384402 
   99400    289.21672     10.68083    148511.74   -47720.783    3971.6951   -51692.478   0.13965558 
   99500     287.2797    14.901607    148544.27    -47674.07    3945.0949   -51619.165   0.14201469 
   99600    285.78966    -24.53485    148548.05    -47671.27    3924.6328   -51595.903   0.14567811 
   99700    287.01556   -10.912054    148547.46   -47718.337    3941.4676   -51659.805   0.13696567 
   99800    278.92317   -39.128511    148521.43   -47728.486     3830.338   -51558.824   0.14906628 
   99900    280.85507    4.7550393    148513.24   -47784.798     3856.868   -51641.666   0.14190025 
  100000    282.70225    -12.74076    148553.14   -47700.918    3882.2346   -51583.153   0.14359517 
Loop time of 53.1818 on 6 procs for 100000 steps with 4608 atoms

Performance: 812.308 ns/day, 0.030 hours/ns, 1880.343 timesteps/s
97.7% CPU use with 6 MPI tasks x no OpenMP threads

MPI task timing breakdown:
Section |  min time  |  avg time  |  max time  |%varavg| %total
---------------------------------------------------------------
Pair    | 39.045     | 39.328     | 40.09      |   5.8 | 73.95
Neigh   | 6.1586     | 6.2392     | 6.3751     |   3.8 | 11.73
Comm    | 4.2637     | 4.9429     | 5.2454     |  14.2 |  9.29
Output  | 0.17122    | 0.17214    | 0.17634    |   0.5 |  0.32
Modify  | 1.8366     | 1.8947     | 1.9415     |   2.3 |  3.56
Other   |            | 0.6047     |            |       |  1.14

Nlocal:        768.000 ave         785 max         745 min
Histogram: 1 0 0 0 0 2 1 1 0 1
Nghost:        1392.00 ave        1410 max        1378 min
Histogram: 1 0 0 2 1 1 0 0 0 1
Neighs:        0.00000 ave           0 max           0 min
Histogram: 6 0 0 0 0 0 0 0 0 0
FullNghs:      21874.7 ave       22405 max       21192 min
Histogram: 1 0 0 0 0 2 2 0 0 1

Total # of neighbors = 131248
Ave neighs/atom = 28.482639
Neighbor list builds = 6161
Dangerous builds = 0

undump              1
unfix               2
unfix               3
unfix               4




################################################
#######         Run Simulation         #########
################################################

reset_timestep      0
log                 log.run_${NAME}
log                 log.run_ice_287K_1atm_ML
