

read_data data.ice_${TEMP}K_${PRES}atm_ML group ice
read_data data.ice_287K_${PRES}atm_ML group ice
read_data data.ice_287K_1atm_ML group ice
Reading data file ...
  orthogonal box = (-0.0098048138 -0.0087153901 -0.0087153901) to (57.280315 50.915835 50.915835)
  3 by 1 by 2 MPI processor grid
  reading atoms ...
  4608 atoms
  reading velocities ...
  4608 velocities
  read_data CPU = 0.016 seconds
read_data data.liq_${TEMP}K_${PRES}atm_ML add append shift ${X_HI} ${YZ_LO} ${YZ_LO} group water
read_data data.liq_287K_${PRES}atm_ML add append shift ${X_HI} ${YZ_LO} ${YZ_LO} group water
read_data data.liq_287K_1atm_ML add append shift ${X_HI} ${YZ_LO} ${YZ_LO} group water
read_data data.liq_287K_1atm_ML add append shift 50.9158353900743 ${YZ_LO} ${YZ_LO} group water
read_data data.liq_287K_1atm_ML add append shift 50.9158353900743 0.0087153900736503 ${YZ_LO} group water
read_data data.liq_287K_1atm_ML add append shift 50.9158353900743 0.0087153900736503 0.0087153900736503 group water
Reading data file ...
  orthogonal box = (-0.0098048138 -0.0087153901 -0.0087153901) to (104.28890 50.915835 50.915835)
  3 by 1 by 2 MPI processor grid
  reading atoms ...
  4608 atoms
  reading velocities ...
  4608 velocities
  read_data CPU = 0.010 seconds

write_data data.icewater_test
System init for write_data ...
WARNING: Communication cutoff is 0.0. No ghost atoms will be generated. Atoms may get lost. (../comm_brick.cpp:167)

# Define potential
#
pair_style sw
pair_coeff * * /data/emrosky-sim/Freezing_Simulations/Melting/MLmW_fancy/ML_mW.sw mW
Reading sw potential file /data/emrosky-sim/Freezing_Simulations/Melting/MLmW_fancy/ML_mW.sw with DATE: 2019-02-27

# Delete water and ice atoms that are overlapping
#
delete_atoms overlap 2.5 water ice
System init for delete_atoms ...
Neighbor list info ...
  update every 1 steps, delay 10 steps, check yes
  max neighbors/atom: 2000, page size: 100000
  master list distance cutoff = 6.0032907
  ghost atom cutoff = 6.0032907
  binsize = 3.0016454, bins = 35 17 17
  2 neighbor lists, perpetual/occasional/extra = 1 1 0
  (1) command delete_atoms, occasional, copy from (2)
      attributes: full, newton on
      pair build: copy
      stencil: none
      bin: none
  (2) pair sw, perpetual
      attributes: full, newton on
      pair build: full/bin/atomonly
      stencil: full/bin/3d
      bin: standard
Deleted 670 atoms, new total = 8546

# set timestep
#
timestep 10.0

# Define output
#
compute 1 all msd
thermo 50
thermo_style custom step temp press vol etotal ke pe c_1[4]

# Neighbor lists
#
neigh_modify delay 0 every 1 check yes

# Set fixes
#
fix 1 all momentum 10 linear 1 1 1 rescale
fix 2 all nph iso ${PRES} ${PRES} ${PCOUPL}
fix 2 all nph iso 1 ${PRES} ${PCOUPL}
fix 2 all nph iso 1 1 ${PCOUPL}
fix 2 all nph iso 1 1 10000.0
fix 3 all temp/csvr ${TEMP} ${TEMP} ${TCOUPL} 837492
fix 3 all temp/csvr 287 ${TEMP} ${TCOUPL} 837492
fix 3 all temp/csvr 287 287 ${TCOUPL} 837492
fix 3 all temp/csvr 287 287 5000.0 837492


# Fix ice atoms in place
#
velocity ice set 0.0 0.0 0.0
fix 4 ice setforce 0.0 0.0 0.0

# Run 1.0 ns equilibration of water
#
dump 1 all atom 1000 eq.all.${NAME}.dump
dump 1 all atom 1000 eq.all.coexist_287K_1atm_ML.dump
run 100000
Neighbor list info ...
  update every 1 steps, delay 0 steps, check yes
  max neighbors/atom: 2000, page size: 100000
  master list distance cutoff = 6.0032907
  ghost atom cutoff = 6.0032907
  binsize = 3.0016454, bins = 35 17 17
  1 neighbor lists, perpetual/occasional/extra = 1 0 0
  (1) pair sw, perpetual
      attributes: full, newton on
      pair build: full/bin/atomonly
      stencil: full/bin/3d
      bin: standard
Per MPI rank memory allocation (min/avg/max) = 4.590 | 4.597 | 4.603 Mbytes
Step Temp Press Volume TotEng KinEng PotEng c_1[4] 
       0    130.00004   -321.28229    270478.86   -84667.482    3311.2338   -87978.716            0 
      50    158.20386   -352.22926     269769.3   -84308.051     4029.614   -88337.665   0.83977131 
     100    166.73012    133.44873    268103.63    -84014.29    4246.7864   -88261.077    1.7653914 
     150    172.97826    507.37822     267075.6   -83696.857    4405.9329    -88102.79     2.872831 
     200    177.43206    402.46169    267733.86   -83419.438    4519.3759   -87938.813    3.9227101 
     250    182.43806    61.536246    269445.64    -83153.65    4646.8838   -87800.534    4.9320868 
     300    188.07556   -370.74049    270199.18   -82871.357    4790.4767   -87661.834    6.0802143 
     350    193.07753   -8.4559541    269603.93   -82571.692     4917.882   -87489.574    7.3592438 
     400    198.95952    650.51875    268858.13   -82390.296    5067.7022   -87457.998    8.7297849 
     450    199.47738    357.35603    269073.33   -82181.445    5080.8927   -87262.337    10.284396 
     500    203.84006   -46.707728     269878.5   -81975.622    5192.0147   -87167.637    11.783764 
     550    206.47367   -144.74594    270596.96    -81795.48    5259.0954   -87054.575    13.406937 
     600    209.15682    81.527534    270647.77   -81587.876     5327.438   -86915.314    15.134505 
     650    208.33112     131.5012    270317.04    -81424.55    5306.4066   -86730.956    16.838682 
     700    214.03865    252.89019    270152.18   -81201.991     5451.783   -86653.774    18.701451 
     750    219.78373   -84.702046    270388.38   -81046.616    5598.1162   -86644.733    20.555582 
     800    220.78252    -377.6332    270818.55   -80882.718    5623.5564   -86506.274    22.586372 
     850    222.69784    -166.7625    270942.38   -80746.938    5672.3415   -86419.279     24.51464 
     900    229.15167   -4.4507501    270798.66   -80607.836    5836.7273   -86444.564    26.641106 
     950    226.51279    111.36958    270980.15   -80469.895    5769.5121   -86239.407    28.708957 
    1000    229.30572   -65.426186    271494.19   -80292.006     5840.651   -86132.657    30.948346 
    1050    231.50498   -121.65508    272093.69   -80178.064    5896.6685   -86074.733    32.981088 
    1100    235.72586   -101.76293    271881.03   -80020.863    6004.1786   -86025.042    35.091698 
    1150    240.48111    209.76486    271379.63    -79867.14    6125.2995    -85992.44    37.381465 
    1200    235.82649    333.11474    271467.81   -79782.701    6006.7417   -85789.442    39.903735 
    1250    243.81125   -5.6363801    271949.16   -79681.356    6210.1217   -85891.477    42.671934 
    1300    244.20318   -133.74062    272458.83   -79612.908    6220.1044   -85833.013    45.161853 
    1350    248.18238   -46.954375    272586.37   -79451.219    6321.4589   -85772.678    47.674403 
    1400    245.83327   -64.217568    272457.59   -79342.365    6261.6246    -85603.99    50.194666 
    1450    255.57375     115.8989     272150.8   -79232.554    6509.7245   -85742.279    52.607924 
    1500    248.12228    300.75889    272069.04   -79196.237    6319.9281   -85516.165    54.817461 
    1550    256.88717    91.462609    272474.14   -79086.133    6543.1788   -85629.312    57.374515 
    1600    256.17149    20.113918    273058.82   -79007.753    6524.9496   -85532.703    59.837027 
    1650    254.74352   -42.698442    273369.32    -78948.45    6488.5778   -85437.028    62.565538 
    1700    261.11939   -13.286463    273019.63   -78879.038    6650.9777   -85530.016    64.877551 
    1750    257.98693    391.98922    272372.59   -78774.085    6571.1908   -85345.276    67.535445 
    1800    259.48446    95.532231    272411.33   -78740.284    6609.3343   -85349.618    70.379575 
    1850    261.53868     177.4564    273077.69   -78641.717    6661.6574   -85303.374    73.159659 
    1900    263.31546   -6.5874394       273738    -78577.74    6706.9138   -85284.653    76.044434 
    1950    261.20192   -22.518592    273930.55   -78508.014    6653.0798   -85161.094    78.870195 
    2000    264.50016   -248.63387    273717.99   -78402.733    6737.0893   -85139.823     81.05286 
    2050    262.78157    94.021687    272933.26   -78366.138    6693.3152   -85059.453    83.420165 
    2100     268.5582    362.63984    272625.73   -78325.798    6840.4518   -85166.249    86.371608 
    2150    272.20179    184.28832    273054.93   -78233.479    6933.2578   -85166.737    89.751885 
    2200    271.31256   -344.61368    273824.73   -78170.729    6910.6081   -85081.338    92.562619 
    2250    270.41146   -273.41283    274076.61   -78146.511    6887.6561   -85034.168     95.52438 
    2300    274.27721   -144.89691    273872.46   -78127.396    6986.1209   -85113.517    98.511873 
    2350    271.37768     356.5784    273395.48   -78062.651    6912.2668   -84974.918    101.62776 
    2400    274.72767   -53.244188    273417.54   -78067.184    6997.5944   -85064.778    104.65505 
    2450    270.62624   -169.78053     273649.3   -78081.158     6893.127   -84974.285    107.14511 
    2500    272.43198    10.190924    273682.06   -78094.055     6939.121   -85033.176    110.07626 
    2550    272.90741   -11.091964     273547.3   -78005.569    6951.2306   -84956.799    112.99716 
    2600    276.60421   -126.00021    273547.54   -78016.211    7045.3918   -85061.603    116.06075 
    2650    271.89201   -116.19177    273816.61   -78020.811    6925.3673   -84946.179    118.53375 
    2700    270.35936    132.13727    273818.66   -77963.662    6886.3291   -84849.991    120.99503 
    2750     276.8115   -27.957193     273793.4   -77926.328    7050.6717       -84977    124.52226 
    2800    275.87294    83.563568    273728.59   -77952.654    7026.7658    -84979.42    127.67307 
    2850    279.64082   -143.70534    273989.03    -77919.44    7122.7373   -85042.177     131.3301 
    2900    279.86401    4.2121086    274081.37   -77878.935    7128.4224   -85007.358    134.16803 
    2950    275.99421    175.54935    274189.21   -77863.816    7029.8547    -84893.67    137.45694 
    3000    276.58269   -336.82511    274478.19   -77864.409    7044.8436   -84909.253    140.44574 
    3050    280.50877    24.113829    274165.07   -77837.857     7144.845   -84982.702    142.93777 
    3100    282.21017    116.99037    273858.12   -77765.587    7188.1815   -84953.768    145.62541 
    3150    280.64457    171.76394    273800.89   -77730.193    7148.3041   -84878.497    148.12311 
    3200    287.19087    31.899458    273847.77   -77699.986    7315.0448    -85015.03    150.68472 
    3250    282.13649     130.7559    273987.69   -77673.019    7186.3048   -84859.324    153.99514 
    3300    281.39884   -28.241293     274232.3    -77690.04     7167.516   -84857.556    157.09813 
    3350    281.43863    86.507054    274172.71   -77714.848    7168.5295   -84883.378     159.9982 
    3400    283.08391   -35.412725    273949.11   -77726.254    7210.4364   -84936.691    162.45371 
    3450    282.88775   -42.710712    273478.13   -77777.815      7205.44   -84983.255    164.77679 
    3500    280.54905    355.02539    273235.16   -77783.138    7145.8709   -84929.009    167.69768 
    3550    276.59092    131.29287    273779.68   -77772.204    7045.0533   -84817.257    170.58165 
    3600    276.59789   -113.39446    274284.73   -77748.591    7045.2308   -84793.821    174.04844 
    3650    279.26934    201.05347    274365.95   -77723.787    7113.2754   -84837.063    176.99139 
    3700    277.86314   -232.45282    274312.42   -77674.318    7077.4581   -84751.776    179.22442 
    3750    289.94327    230.60757    273908.51   -77580.026    7385.1513   -84965.177    181.53999 
    3800    281.89026    41.969123    273970.02   -77575.201     7180.033   -84755.234    184.73781 
    3850    282.93475    2.6365008     274163.5   -77522.846    7206.6372   -84729.483    187.36987 
    3900    288.47101   -211.77421    274367.11   -77491.043    7347.6514   -84838.695    189.72143 
    3950    288.01607    21.081759    274410.24   -77489.641    7336.0635   -84825.705    192.51909 
    4000    282.38936     52.50752    274416.31   -77544.368    7192.7456   -84737.113     194.9452 
    4050    283.31074   -166.10366    274290.62   -77549.066    7216.2141    -84765.28    197.17674 
    4100    283.28822     502.7263    273812.11   -77535.224    7215.6404   -84750.864    199.79231 
    4150    279.81988   -50.539656    273817.04    -77576.19    7127.2984   -84703.488    202.87686 
    4200    280.59056    66.130811     273910.2   -77544.156    7146.9284   -84691.084    205.35256 
    4250    283.00581     291.8053    274106.98   -77519.939    7208.4472   -84728.386    207.89285 
    4300    286.87018    138.11513    274349.64   -77507.906    7306.8765   -84814.782    210.49895 
    4350    281.28893     45.89379     274479.7   -77500.959    7164.7164   -84665.676    213.27671 
    4400    284.52069    15.723192    274435.49   -77524.937    7247.0328    -84771.97    216.31571 
    4450    281.00546   -14.985134    274244.96    -77499.13    7157.4963   -84656.626    218.88518 
    4500    287.92816    19.886708    274022.54   -77483.117    7333.8244   -84816.941    221.51945 
    4550    288.77433   -35.486044    273929.34   -77479.005    7355.3773   -84834.382    224.37341 
    4600    288.91033     109.4868     274264.8   -77454.521    7358.8414   -84813.362    226.84056 
    4650    282.71102   -335.06579    274686.67   -77449.594    7200.9385   -84650.533    229.49281 
    4700    284.77373     379.3315    274494.73   -77442.542    7253.4778    -84696.02    232.06251 
    4750    284.97895    20.555078    274440.97   -77467.596    7258.7051   -84726.301     234.3207 
    4800    287.31475    28.901363    274340.77   -77440.064    7318.2002   -84758.264    237.03209 
    4850    288.72457   -85.951473    274505.56    -77398.71    7354.1097   -84752.819    240.35777 
    4900    287.56284    95.342996    274464.79   -77408.917    7324.5193   -84733.436     243.3316 
    4950    285.94233   -178.93236     274710.5   -77412.739    7283.2432   -84695.982    245.66917 
    5000    285.81972     255.4367    274613.06   -77414.444    7280.1202   -84694.565    248.01889 
    5050    287.17099   -177.49221    274684.53   -77422.783    7314.5384   -84737.321     251.0305 
    5100    284.63945   -210.75713    274481.19   -77408.631    7250.0576   -84658.688    253.92597 
    5150    286.01475    135.41056    273929.61   -77432.526     7285.088   -84717.614    256.37557 
    5200    288.33063    303.82281    273784.76   -77391.015    7344.0758   -84735.091     259.2547 
    5250    288.58262   -217.67799    274145.88   -77369.978    7350.4942   -84720.472    262.31681 
    5300    287.37644    272.35937    274365.03    -77325.94    7319.7715   -84645.711    265.37435 
    5350     288.0353   -116.73984    274592.87   -77317.555    7336.5533   -84654.108    268.95971 
    5400     290.8598   -76.036115    274444.58   -77330.998    7408.4963   -84739.495    271.90684 
    5450    287.54737     4.214698     274311.3   -77311.284    7324.1253    -84635.41    275.31765 
    5500    287.58736    47.202805    274266.69   -77317.414    7325.1439   -84642.558    277.82676 
    5550    287.25714    315.56455    274291.96   -77353.739    7316.7329   -84670.472    280.00228 
    5600    289.27416   -248.96541    274604.81   -77323.547    7368.1085   -84691.656    283.21749 
    5650    288.87782    26.088343    274803.51    -77310.83    7358.0132   -84668.843    286.08393 
    5700    291.50691   -173.61851    274870.03   -77256.135     7424.979   -84681.114      289.428 
    5750    291.33102    17.720568    274661.99   -77282.185    7420.4987   -84702.684     290.7847 
    5800    291.83089    305.90958    274270.78    -77308.42     7433.231   -84741.651    293.06256 
    5850    289.13848    161.09177    274365.84   -77297.818    7364.6524    -84662.47    295.28887 
    5900    290.94867   -6.7986376    274901.77   -77253.767    7410.7599   -84664.527     297.8649 
    5950    287.55372   -87.511359    274877.92   -77228.347    7324.2872   -84552.634    301.28117 
    6000    288.05464   -126.47918    274587.24   -77276.037    7337.0459   -84613.083    303.36089 
    6050    290.21108    285.94097     274416.9   -77322.358    7391.9728   -84714.331    307.16536 
    6100    287.46294     154.0561    274198.52   -77319.874    7321.9747   -84641.849    309.72669 
    6150    288.32343   -285.65687    274258.39   -77284.914    7343.8925   -84628.806    312.07337 
    6200    292.03358    189.64174    274434.71   -77283.828    7438.3938   -84722.222    314.46778 
    6250    292.15738   -12.197753    274802.91   -77243.773    7441.5471    -84685.32    317.12155 
    6300    291.81413   -134.63793    274834.18    -77243.89    7432.8041   -84676.694    320.28459 
    6350    294.08417    122.93924    274594.45   -77286.842    7490.6243   -84777.466    322.80944 
    6400    286.43487    64.857542    274416.23   -77212.547    7295.7889   -84508.336    325.77661 
    6450    291.85756    57.229479    274498.69   -77209.728    7433.9102   -84643.639    328.13119 
    6500    289.76518    83.114976     274622.8   -77212.875    7380.6153    -84593.49    331.73827 
    6550    288.95932    246.18583    274891.61   -77216.081    7360.0891    -84576.17    335.09007 
    6600    287.19264   -617.25077    275294.84   -77300.911      7315.09   -84616.001    337.77641 
    6650    291.95129   -42.704859    274471.58   -77331.718    7436.2976   -84768.016    338.62389 
    6700    284.20211    109.21423    273738.88   -77345.482    7238.9182     -84584.4    340.52422 
    6750    291.53035    126.33011    273916.27   -77374.474    7425.5759    -84800.05    342.84761 
    6800    288.08289    119.03298    274540.98   -77385.323    7337.7655   -84723.089    346.75075 
    6850    284.79265   -291.52447    274962.96   -77391.974    7253.9597   -84645.934    350.17073 
    6900    285.63628    174.39578    274627.04   -77416.644     7275.448   -84692.092    352.39817 
    6950    288.77517   -60.139437    274428.12   -77390.398    7355.3987   -84745.797    354.72548 
    7000    281.56541    301.05539    274183.69   -77375.244    7171.7586   -84547.002    357.51755 
    7050    289.43437   -16.272946    274372.78   -77367.786    7372.1891   -84739.975    360.36935 
    7100    288.80241    25.508483    274632.43   -77319.799    7356.0924   -84675.892    363.54311 
    7150     292.4458   -215.12557    274817.22   -77332.491    7448.8934   -84781.385     367.5354 
    7200    287.15589      85.4642     274856.7   -77303.489     7314.154   -84617.643    370.68624 
    7250    292.84315   -132.12625    274727.84    -77264.87    7459.0142   -84723.885    374.16194 
    7300    287.47034    134.52342    274503.78   -77251.235    7322.1634   -84573.399     376.7867 
    7350     292.4624    240.24068    274376.31   -77276.121    7449.3162   -84725.437    379.59265 
    7400    290.56422    99.813691    274469.41   -77274.327    7400.9676   -84675.295     382.3926 
    7450    287.87027    190.98888    274672.64   -77248.928    7332.3501   -84581.278    385.06545 
    7500    287.77585   -51.736368    274832.89   -77280.654     7329.945   -84610.599    387.19782 
    7550    290.67948   -137.33484    274699.42   -77330.486    7403.9033   -84734.389    389.56993 
    7600    288.52725    275.87891    274366.64   -77330.486    7349.0838    -84679.57    393.05216 
    7650    288.98891    257.99138    274396.49   -77311.786    7360.8429   -84672.629    396.27689 
    7700    288.27091    1.3140669    274722.18   -77308.718    7342.5546   -84651.273    399.56677 
    7750    286.78712   -273.40711    274919.37   -77329.016    7304.7611   -84633.777    402.37724 
    7800    286.08423   -152.56404    274790.67     -77368.4    7286.8577   -84655.258    404.55185 
    7850    288.75178    -63.50083    274394.24   -77349.038    7354.8029   -84703.841    406.46113 
    7900    291.66855    117.67093    274005.41   -77312.438    7429.0959   -84741.534    408.32064 
    7950     282.8863    119.96555     273996.9   -77329.339    7205.4032   -84534.742    412.14532 
    8000    292.10937   -55.958485    274481.04   -77329.669    7440.3243   -84769.993    416.51293 
    8050    287.09372   -14.709856    274926.14   -77345.678    7312.5704   -84658.248    419.58694 
    8100    286.34421   -68.372225    275169.86   -77379.617    7293.4797   -84673.097    422.06992 
    8150    290.49598   -189.89648    274889.53   -77427.784    7399.2294   -84827.014    424.54747 
    8200    288.93202   -135.63861    274151.13   -77386.911    7359.3937   -84746.304    427.76666 
    8250    287.01829    395.66722    273838.25   -77389.209    7310.6492   -84699.859    430.17672 
    8300    290.16087   -173.56672    274555.83   -77372.241    7390.6938   -84762.935    434.29363 
    8350       285.59   -326.82067    275010.35   -77433.216    7274.2691   -84707.485    436.46569 
    8400    284.09269   -137.84878    274498.13   -77441.535    7236.1311   -84677.666    438.84565 
    8450    280.74427    12.574319    273897.47   -77427.563    7150.8434   -84578.407    440.80099 
    8500    289.82668    315.71942    273772.03   -77378.063    7382.1817   -84760.245    443.48684 
    8550     288.8586   -37.980641     274162.2    -77338.12    7357.5237   -84695.644    447.28964 
    8600    282.57478   -168.98906    274695.53   -77341.172    7197.4684    -84538.64    451.40305 
    8650    286.88108   -209.37588    274859.76   -77296.358    7307.1543   -84603.513    454.36431 
    8700    288.64906   -186.52978    274824.68   -77266.125    7352.1865   -84618.311    457.37553 
    8750    290.04057   -88.963119    274760.55   -77252.629    7387.6298   -84640.259    460.70927 
    8800     289.6191    103.90102    274496.74   -77234.054    7376.8946   -84610.948    462.90278 
    8850    287.02445    8.5319833    274450.62   -77203.619    7310.8061   -84514.425    465.35846 
    8900    289.97002    202.55551    274651.55   -77207.836    7385.8327   -84593.669    468.20287 
    8950    289.79905    9.3237601    275101.65   -77182.524    7381.4779   -84564.002    471.65976 
    9000    292.67438    -176.9167    275163.61   -77202.767    7454.7156   -84657.483    476.10844 
    9050    285.73937   0.82317767    274833.23   -77173.769    7278.0738   -84451.842    478.64166 
    9100    293.19954    118.08168    274705.05   -77187.625    7468.0919   -84655.717    481.16513 
    9150    290.33019   -63.406309    274817.14   -77215.051    7395.0066   -84610.057      483.756 
    9200    293.06168   -76.302659    274834.92   -77173.357    7464.5805   -84637.937    485.88448 
    9250    295.61107   -509.68394    274579.13   -77154.519     7529.516   -84684.035    488.34115 
    9300    289.51942     60.63565     274038.6   -77217.144    7374.3556   -84591.499     489.4824 
    9350     291.4978   -65.279915    274111.35   -77223.387    7424.7467   -84648.133    490.78222 
    9400    288.83266    32.520455    274670.94   -77265.234    7356.8631   -84622.097    493.93373 
    9450    292.33909   -262.09069    275163.24   -77273.433    7446.1754   -84719.608    498.05388 
    9500     292.2997   -136.58933    275157.34   -77263.287     7445.172   -84708.459    499.70678 
    9550    291.52399    54.863775    274692.11   -77271.521    7425.4139   -84696.935    501.73619 
    9600     286.6897    47.964727    274272.22   -77267.828    7302.2796   -84570.107    502.80973 
    9650    286.52798   0.79173315    274368.97   -77230.211    7298.1605   -84528.371    506.01308 
    9700     290.1995    59.332676    274651.24   -77231.242    7391.6777    -84622.92    509.56719 
    9750    294.23999    83.619126    274929.78   -77315.056    7494.5931   -84809.649    513.85494 
    9800    285.86952     274.8486     274961.3   -77287.076    7281.3888   -84568.464    517.68001 
    9850    288.63729   -231.88901    274541.35   -77292.578    7351.8866   -84644.464    521.08467 
    9900    291.07513    219.73158    273974.73   -77249.611     7413.981   -84663.592    523.47263 
    9950    287.05118    20.358139    274303.84   -77265.278     7311.487   -84576.765    526.91215 
   10000    290.29841   -164.84113    274846.85     -77277.2    7394.1973   -84671.397    530.08022 
   10050    291.18715    27.686757    274790.06   -77276.087    7416.8344   -84692.922    531.68719 
   10100    284.52097     138.4765    274290.84   -77262.593    7247.0399   -84509.633    534.10268 
   10150    283.53748    179.08932    274131.76   -77256.338    7221.9892   -84478.327    537.21992 
   10200    284.37783    176.30914    274385.81   -77290.204    7243.3939   -84533.598    539.82008 
   10250     289.7615   -258.28022    274822.81   -77237.249    7380.5214    -84617.77    543.34418 
   10300     290.8319   -61.243198    274965.29   -77205.089    7407.7857   -84612.875    547.13475 
   10350    289.95757   -200.66208     274959.6   -77228.691    7385.5155   -84614.207    549.07931 
   10400    285.85411    124.41608    274530.51    -77251.23    7280.9964   -84532.226     551.1689 
   10450    293.37583     304.7218     274146.4   -77228.121    7472.5823   -84700.703    552.77466 
   10500    296.42616    198.02664    274301.52   -77208.599    7550.2772   -84758.877     554.8903 
   10550    287.80869   -154.19182    275090.34    -77184.27    7330.7814   -84515.051    557.45271 
   10600    292.21712   -97.953165    275266.29   -77183.664    7443.0688   -84626.733     559.9358 
   10650    291.39389   -292.36165    274681.09   -77217.449    7422.1002    -84639.55    562.12383 
   10700    289.20426   -10.581847    274050.89   -77267.119    7366.3281   -84633.448    563.55015 
   10750    289.84856    49.398378    273979.53    -77266.15     7382.739   -84648.889    566.68514 
   10800    290.25771    178.95055    274383.92   -77275.447    7393.1605   -84668.607    570.74651 
   10850     286.0316   -66.846672    274915.15   -77282.013     7285.517    -84567.53    573.43004 
   10900    289.76672   -182.15518    275227.63   -77273.775    7380.6544   -84654.429    574.74772 
   10950    286.53464   -490.15031    275050.35   -77310.794    7298.3302   -84609.124    576.25311 
   11000    288.27233    181.85271    274179.78   -77340.752    7342.5908   -84683.343    577.45621 
   11050    287.66652    84.696658    273898.77   -77327.843    7327.1603   -84655.004    580.14628 
   11100    291.80445    189.70588    274060.71   -77372.796    7432.5575   -84805.354     583.6811 
   11150    291.92315   -4.2761219    274571.57   -77369.132     7435.581   -84804.713    586.50189 
   11200    284.12368   -10.258763    274925.63   -77384.917    7236.9204   -84621.837     590.2593 
   11250    287.25165    46.759915    274703.95   -77373.639    7316.5931   -84690.232    592.93975 
   11300    284.40325   -71.086737    274346.08   -77395.247    7244.0414   -84639.289    595.08904 
   11350    287.72819     24.47387    273994.74    -77400.81    7328.7311   -84729.541    597.35195 
   11400    285.92219   -42.782641    273992.42   -77417.374    7282.7304   -84700.105    600.53589 
   11450    288.67682    218.88773    274424.46   -77380.873    7352.8937   -84733.767    604.58793 
   11500    284.16733   -160.71222    275162.87   -77304.462    7238.0323   -84542.494    606.84921 
   11550    290.12571   -152.63837    275170.82   -77296.805    7389.7982   -84686.603    610.71115 
   11600    291.01791   -10.250306    274354.54   -77328.519    7412.5236   -84741.043    612.12699 
   11650    285.70724    128.13723    273750.95   -77416.054    7277.2553   -84693.309    613.82187 
   11700    286.71119     165.2646    273765.87    -77386.17    7302.8271   -84688.997    616.02136 
   11750    287.67965   -38.961267    274341.89    -77430.03    7327.4946   -84757.525    619.84569 
   11800    282.44259   -114.72013    274856.16    -77461.32    7194.1014   -84655.421    622.89217 
   11850      282.612   -145.04851    274619.81   -77469.738    7198.4165   -84668.155    624.57629 
   11900    286.95716    35.643501    274002.87   -77453.325    7309.0921   -84762.417    624.91212 
   11950    289.80866    296.73767    273683.31   -77442.972    7381.7228   -84824.695    625.80091 
   12000     288.9902   -131.47205    274243.78   -77468.206    7360.8758   -84829.082    628.92778 
   12050     280.1205    88.081931    274944.21    -77487.26    7134.9554   -84622.215    632.85248 
   12100    285.04317    6.2679106    275035.91   -77456.684    7260.3407   -84717.025    635.90613 
   12150    287.31929   -126.46292     274699.6   -77408.985     7318.316   -84727.301    637.71581 
   12200    293.01957    138.45012    274305.52   -77379.355    7463.5078   -84842.863    639.52227 
   12250    291.71298    214.41589    273925.08   -77415.664    7430.2278   -84845.892    641.69678 
   12300     288.6377    339.69332    273860.92   -77327.004    7351.8972   -84678.901     644.9657 
   12350    285.76672   -153.64935    274520.58   -77372.475    7278.7704   -84651.246    649.30953 
   12400    294.16673   -88.719622    274790.19   -77339.223    7492.7272    -84831.95    652.83215 
   12450    287.66838   -334.61125    274628.65   -77311.267    7327.2076   -84638.474    656.42546 
   12500    290.10472      344.154    274169.66   -77333.871    7389.2636   -84723.134    658.87274 
   12550     290.4294      -276.01    274242.76   -77330.898    7397.5337   -84728.432    661.18198 
   12600    283.76553    316.31609     274112.1   -77353.805    7227.7981   -84581.603    663.37915 
   12650    284.67522    204.33098    274345.45   -77363.598    7250.9688   -84614.567     667.0624 
   12700    285.51161   -229.97854    274921.47   -77380.116    7272.2724   -84652.388    670.79839 
   12750    290.27191   -97.359683    275163.94   -77372.915    7393.5221   -84766.437    673.85042 
   12800    282.87614   -35.148732     274992.4   -77391.057    7205.1442   -84596.202    675.09242 
   12850    288.93813  0.094560722    274202.72   -77430.268    7359.5494   -84789.818    675.69574 
   12900    292.01124    97.822813     273793.8   -77406.778    7437.8247   -84844.603    676.05312 
   12950    290.49155    95.505808     274103.9   -77407.331    7399.1165   -84806.447    678.76116 
   13000    287.13852   -64.775658    274600.86   -77374.738    7313.7115   -84688.449    682.07672 
   13050    281.70747    86.133322    274950.24   -77341.273     7175.377    -84516.65    685.03076 
   13100    287.36247   -135.02495     275087.4   -77296.454    7319.4157   -84615.869    687.85267 
   13150    286.76814   -60.999308    274939.92     -77315.8    7304.2775   -84620.077    690.02132 
   13200    290.70972   -337.44208    274646.96   -77339.342    7404.6735   -84744.016    691.67755 
   13250    288.48743    297.60347    274095.08   -77319.777    7348.0696   -84667.846    692.07003 
   13300    289.60153    31.727296    274232.38   -77330.142    7376.4468   -84706.589    695.19544 
   13350    289.96217   -334.30552    274908.36   -77323.553    7385.6328   -84709.186    699.72603 
   13400    283.04763   -21.505726    274782.87   -77365.635    7209.5123   -84575.148    701.40797 
   13450    290.37054    113.63385    274539.79   -77329.664    7396.0344   -84725.699     702.6507 
   13500    289.93185   -32.928215    274615.46   -77317.018    7384.8605   -84701.878    704.38438 
   13550    291.29006    129.95342    274493.36   -77306.214    7419.4554   -84725.669    706.59731 
   13600    287.96369   -66.140353    274448.22   -77320.103    7334.7293   -84654.832    710.64334 
   13650    288.52381    150.21744     274568.3    -77349.57    7348.9963   -84698.567    714.11898 
   13700    286.89617   -185.83706    274555.19   -77360.841    7307.5386   -84668.379    717.09245 
   13750    288.38331   -46.921236    274085.28   -77354.276    7345.4176   -84699.693    719.22838 
   13800    289.14583    218.58479    274026.58   -77338.561    7364.8398   -84703.401    722.99385 
   13850    291.27942     -98.5898    274304.65   -77337.438    7419.1846   -84756.622    726.47438 
   13900     289.9539   -84.042457    274676.39   -77359.378    7385.4221     -84744.8    729.79709 
   13950    289.95718   -247.91257    274911.46   -77374.718    7385.5057   -84760.224    733.03342 
   14000    279.22789    140.02032    274631.62    -77378.12    7112.2197    -84490.34    735.76194 
   14050    286.50582    7.8488677    274516.21   -77383.807     7297.596   -84681.404    737.93639 
   14100    285.26507   -146.26345    274355.68   -77348.469     7265.993   -84614.462    741.47926 
   14150    282.47851     251.1212    273960.09   -77350.553    7195.0163   -84545.569    743.37833 
   14200    289.57531   -6.4690147    274146.38   -77393.506     7375.779   -84769.285    746.24657 
   14250    288.47489   -190.46624    274561.75   -77428.293    7347.7503   -84776.043    750.35828 
   14300    284.00429   -140.84728    274686.45    -77425.83    7233.8794    -84659.71    752.47333 
   14350    283.50869   -3.6504734    274515.16   -77447.108    7221.2561   -84668.364    754.07768 
   14400    288.14607   -124.29113    274369.04   -77435.382    7339.3748   -84774.757    756.38155 
   14450    283.49988    478.64739    274206.22   -77424.112    7221.0317   -84645.144    757.69158 
   14500    284.10049    15.638694    274425.06    -77379.61    7236.3297    -84615.94    758.93671 
   14550    282.23614   -40.928315    274612.72   -77390.496    7188.8429   -84579.339    762.90887 
   14600      288.278    122.06642    274375.91   -77405.741    7342.7353   -84748.476    765.11782 
   14650    289.43929    1.7869934    274055.29   -77390.712    7372.3144   -84763.026    766.83304 
   14700    288.76754    43.928277    274004.03    -77334.87    7355.2043   -84690.074    769.10311 
   14750     285.0364   -157.96004    274469.14    -77352.06    7260.1683   -84612.228    771.23178 
   14800    285.72789    39.862161     274926.4   -77343.342    7277.7813   -84621.123    774.25573 
   14850    288.11283   -247.11109    274846.13   -77350.031    7338.5282    -84688.56     776.7252 
   14900    289.52431    125.61071    274337.67   -77349.087    7374.4799   -84723.567    778.54765 
   14950      290.273    -209.2626    274181.56   -77411.504    7393.5499   -84805.054    780.65695 
   15000    290.39341    328.23631    273982.87   -77416.156    7396.6168   -84812.772    783.97332 
   15050    283.39466   -3.9521357    274391.68   -77447.524    7218.3516   -84665.875    787.09277 
   15100    281.91752   -51.372727    274797.04    -77455.33    7180.7273   -84636.057    789.35378 
   15150    280.43893   -125.57839    274709.49   -77479.944     7143.066    -84623.01    791.55006 
   15200    280.93365   -21.864019    274335.14   -77517.111     7155.667   -84672.778    793.99381 
   15250    282.89987   -12.504445     273905.3   -77499.037    7205.7488   -84704.785    795.44983 
   15300    286.10414     0.422881    273875.79   -77505.531    7287.3649   -84792.896    798.71843 
   15350    286.10108   -243.94727    274544.79   -77514.322    7287.2868   -84801.609    802.04271 
   15400    279.48583   -472.95521    274926.52   -77526.241    7118.7896    -84645.03    807.00538 
   15450    280.80541   -244.68023    274605.36   -77628.957    7152.4007   -84781.358    810.01627 
   15500    281.91304    201.32492    274202.16   -77646.607    7180.6133    -84827.22    811.87654 
   15550    282.92216    120.71166    274051.41   -77665.435    7206.3165   -84871.752    814.53068 
   15600    278.51016    68.873392    274087.68   -77602.905    7093.9384   -84696.844    817.44254 
   15650    286.04417   -219.96672    274378.09   -77554.624    7285.8373   -84840.461    821.86418 
   15700    282.46896   -129.43208    274469.61   -77506.658     7194.773   -84701.431     826.5381 
   15750    286.45647   -21.487223    274343.84   -77466.522    7296.3391   -84762.861    828.07444 
   15800    284.48426   -113.63636     274298.4   -77483.065    7246.1049    -84729.17    830.21289 
   15850    287.02133    145.55928    274238.26   -77483.378    7310.7266   -84794.105    833.21831 
   15900    288.68834   -214.26286    274228.17   -77495.204    7353.1871   -84848.392    835.83185 
   15950    285.66217    134.96683    274382.08   -77514.691    7276.1073   -84790.798    838.45116 
   16000    282.98235    49.933764    274428.19   -77484.725    7207.8497   -84692.575    841.48872 
   16050    285.26304     123.2757    274194.12   -77497.975    7265.9411   -84763.916    843.99573 
   16100    288.98252    27.410203    274143.81   -77506.079    7360.6802   -84866.759    847.48709 
   16150    287.00861   -188.16329     274225.8   -77491.895    7310.4027   -84802.298    849.93471 
   16200    286.21734    190.52149    274252.57   -77409.851     7290.248   -84700.099    852.06697 
   16250    291.50246   -132.15024    274442.71   -77409.671    7424.8655   -84834.536    855.56819 
   16300    290.15261   -47.803483    274931.57   -77388.927    7390.4835    -84779.41    860.84975 
   16350    287.61176   -238.04115    275201.67   -77342.721    7325.7653   -84668.486    864.63405 
   16400    288.92804    107.46322     274670.5   -77381.096    7359.2925   -84740.389    868.47277 
   16450    289.68439    390.56959    274078.63   -77364.062    7378.5574    -84742.62    868.70562 
   16500    287.83381    76.932641    273971.41   -77380.614    7331.4214   -84712.036    868.74343 
   16550    285.22596    6.6242255    274074.12   -77448.102    7264.9966   -84713.099    872.34835 
   16600    286.08846    200.24936    274133.62   -77425.079    7286.9653   -84712.044    876.65507 
   16650    285.84534   -39.575578    274361.32   -77474.232    7280.7729   -84755.005    879.53602 
   16700    287.43606   -264.47562    274764.53   -77445.096    7321.2903   -84766.386    884.19968 
   16750    284.37569    130.42886    274618.28   -77408.234    7243.3394   -84651.574    887.05256 
   16800    285.29809     42.27978    274287.42   -77368.644     7266.834   -84635.478    889.51857 
   16850    291.29672    43.218505    274214.43   -77358.815    7419.6251    -84778.44    890.72355 
   16900    288.49681   -145.64552    274551.52    -77374.77    7348.3086   -84723.078    894.29475 
   16950    284.47041   -447.39492    274832.71   -77370.365    7245.7521   -84616.117    897.00531 
   17000    286.44451    194.71135    274130.07   -77383.606    7296.0345    -84679.64     897.8412 
   17050    290.09536     349.6842    273460.17   -77359.439    7389.0252   -84748.464    899.20967 
   17100    288.22238    266.11587    273868.78   -77350.557    7341.3184   -84691.876    903.45187 
   17150    286.61724   -32.502493    274915.36   -77370.297    7300.4339   -84670.731    908.28005 
   17200    282.94413   -132.56203    275223.28   -77388.236    7206.8761   -84595.112     912.4267 
   17250    288.16766   -113.06905    274681.66   -77401.739    7339.9249   -84741.664    912.57776 
   17300    286.29307    303.59177    273964.58   -77420.004     7292.177   -84712.181    914.10828 
   17350    287.85416    167.73176    273790.81   -77446.862    7331.9396   -84778.802    917.16449 
   17400    284.17801    177.46916    274174.21   -77455.398    7238.3043   -84693.702    919.95389 
   17450    286.69565   -287.16472    274746.42   -77442.992    7302.4311   -84745.423    922.63754 
   17500    285.22102   -97.585205    274705.77   -77510.074    7264.8709   -84774.944    925.26648 
   17550    279.11766    152.33329    274310.19   -77505.373    7109.4121   -84614.785    926.34675 
   17600    281.60738    267.66471    274077.16   -77507.615    7172.8278   -84680.443    927.65308 
   17650    280.57035   -67.023718    274354.68    -77480.82    7146.4135   -84627.234    929.43919 
   17700    284.03194   -156.03635    274633.61   -77505.264    7234.5839   -84739.848    931.80704 
   17750    284.15315   -106.00547    274726.55   -77520.316    7237.6711   -84757.987    933.77232 
   17800    283.71957   -48.194172    274308.83   -77538.295    7226.6275   -84764.922     934.5266 
   17850    285.99498    41.939956    273815.57   -77574.354    7284.5843   -84858.938     935.1969 
   17900    283.63998    210.07229    273796.14   -77524.707    7224.6002   -84749.307    937.39574 
   17950    283.39284     128.7888    274321.33   -77559.626    7218.3053   -84777.931    939.39057 
   18000     281.1788   -212.90435    274886.38   -77548.919    7161.9114    -84710.83    942.53088 
   18050    286.69168    -388.3266     274811.7   -77591.536    7302.3301   -84893.867    943.83943 
   18100    284.31269    140.08892     273837.1   -77598.956    7241.7347   -84840.691     944.0223 
   18150    278.83416    318.04724    273252.05     -77598.9    7102.1911   -84701.091    946.39097 
   18200    288.11337   -58.006513    273517.56   -77609.238     7338.542    -84947.78     949.4298 
   18250    283.95718    291.34262    274219.65   -77645.553    7232.6796   -84878.233    953.05585 
   18300    282.90235   -102.61786    274913.14   -77619.734     7205.812   -84825.546    958.24255 
   18350    281.57728   -93.355172    275091.19   -77586.834    7172.0611   -84758.895    960.52978 
   18400    282.21408    286.23027    274504.28   -77614.516    7188.2809   -84802.797     961.7326 
   18450    287.95427    58.669031    273915.48   -77603.935    7334.4895   -84938.424    962.35878 
   18500    279.84325      542.809    273485.11   -77563.615    7127.8937   -84691.509    963.57461 
   18550    282.81844    251.36157    273846.66   -77539.287    7203.6748   -84742.962    967.54807 
   18600    282.59818   -100.00429    274644.46   -77539.384    7198.0645   -84737.449    971.07845 
   18650    283.34015    -41.02141     274841.8   -77509.745    7216.9631   -84726.708    971.49059 
   18700    281.97855   -112.29683    274522.31   -77444.835    7182.2817   -84627.117    972.50391 
   18750    286.96195    34.210557    274250.57   -77432.796    7309.2141    -84742.01    973.71027 
   18800    291.12944   -148.52539     274303.3   -77377.751    7415.3644   -84793.115    975.24638 
   18850    290.71655    116.18201    274339.94   -77381.602    7404.8476    -84786.45    978.35752 
   18900    286.29161   -37.993942     274485.3   -77428.167    7292.1398   -84720.306    982.92227 
   18950    287.65374   -106.65094    274581.84   -77483.775    7326.8347    -84810.61    986.01862 
   19000    287.20905    -103.3441    274397.86   -77453.018    7315.5081   -84768.526     988.1626 
   19050    288.95227   -241.33863    274417.15   -77483.532    7359.9096   -84843.442    990.89238 
   19100    280.18753   -155.35473    274340.76   -77467.145    7136.6626   -84603.808    993.47857 
   19150    286.17094   -121.19868     274398.3   -77448.035    7289.0661   -84737.101    996.14271 
   19200    286.23592   -129.21227    274394.67   -77429.352    7290.7214   -84720.073    999.44064 
   19250    282.22608    158.53562    274444.67   -77418.179    7188.5867   -84606.766    1001.4651 
   19300    283.85978   -67.127166    274709.08   -77408.557    7230.1986   -84638.756    1003.5213 
   19350    285.40821    -403.5277    274827.64   -77397.255    7269.6387   -84666.894    1007.6048 
   19400    286.01364    28.702839    274440.92   -77383.558    7285.0597   -84668.617    1009.5979 
   19450    285.13724    242.94461    273910.66   -77353.663    7262.7368     -84616.4    1010.6629 
   19500     289.4319    20.473261    274105.67   -77345.702    7372.1263   -84717.828     1015.106 
   19550    291.03611   -265.90696     274614.6   -77394.982    7412.9872    -84807.97    1020.9816 
   19600    282.61491    103.86586    274682.48   -77405.112    7198.4907   -84603.602    1025.1036 
   19650    284.50554    17.282375    274536.04   -77389.459    7246.6468   -84636.106    1027.8823 
   19700     286.3739    121.79197    274235.95   -77397.128    7294.2358   -84691.364    1029.8962 
   19750    286.96241   -20.200988    274179.19   -77378.731    7309.2259   -84687.957    1032.2355 
   19800    282.41071    43.642066    274395.78   -77368.228    7193.2894   -84561.517    1035.5855 
   19850     284.9651   -31.446253    274569.45    -77372.13    7258.3524   -84630.483    1038.3464 
   19900    285.48404    34.106638    274510.27   -77352.289    7271.5702   -84623.859    1040.6634 
   19950    286.59182    49.800558    274374.12   -77356.732    7299.7865   -84656.519    1044.0253 
   20000    281.32031   -4.8596916    274594.67   -77370.994    7165.5157   -84536.509    1048.3292 
   20050    286.99834   -315.26333    274756.69   -77395.536    7310.1411   -84705.677    1053.3662 
   20100    285.31407   -76.742466    274525.35   -77414.058    7267.2409   -84681.299     1053.114 
   20150    285.70476   -277.76558    274322.36   -77469.784    7277.1921   -84746.976    1054.0274 
   20200    282.98103     390.4735    273924.01   -77453.841     7207.816   -84661.657    1056.6267 
   20250     283.7419   -78.754424    274034.48   -77450.598    7227.1961   -84677.794    1059.6555 
   20300    286.40414    54.875254    274465.79   -77456.405    7295.0062   -84751.411    1061.3289 
   20350    283.44617    232.12512    274917.29   -77414.815    7219.6637   -84634.479     1067.233 
   20400    283.39593    29.280145    275048.25   -77404.682    7218.3839   -84623.066    1070.8591 
   20450    286.48095     25.81631    274579.27   -77420.678    7296.9626    -84717.64    1071.7818 
   20500    286.53072    172.90209    273994.05   -77446.941    7298.2302   -84745.171     1072.221 
   20550    289.34471    229.00211     274065.6   -77424.261    7369.9055   -84794.166     1073.758 
   20600    283.34681   -23.277497    274718.34   -77409.153    7217.1328   -84626.286     1078.339 
   20650    286.24656    58.944048    274908.85    -77434.71    7290.9924   -84725.703    1081.2641 
   20700    287.94143   -110.56568    274721.95   -77454.665    7334.1624   -84788.827    1082.8085 
   20750    288.98992    132.02512    274149.83   -77404.952    7360.8686    -84765.82    1084.8267 
   20800    284.42122    13.699026    273815.05   -77434.458    7244.4992   -84678.958    1084.2426 
   20850    284.70015     564.9822    273794.45   -77404.566    7251.6038    -84656.17     1086.509 
   20900    286.29037    142.51816    274238.86   -77401.627    7292.1082   -84693.735     1090.122 
   20950    285.93246   -73.960015    274672.42   -77438.575    7282.9921   -84721.567     1095.668 
   21000    285.37661   -111.56195    274840.33   -77414.964    7268.8338   -84683.798    1100.1902 
   21050    288.44951   -222.10888    274634.69       -77431    7347.1038   -84778.104    1100.6612 
   21100    288.49934    344.47114    274170.89   -77431.408    7348.3731   -84779.781     1102.744 
   21150    287.84314     39.39331    274149.32   -77431.103    7331.6588   -84762.762    1105.2009 
   21200    285.51854    194.36031    274357.13   -77407.264    7272.4489   -84679.713    1106.3683 
   21250    283.31153   0.67805286       274756    -77419.98    7216.2341   -84636.214    1109.3084 
   21300    282.42503   -276.42171    274940.14   -77400.242    7193.6542   -84593.897    1112.6154 
   21350    286.11994    86.814853    274516.61   -77406.023    7287.7674   -84693.791    1113.3438 
   21400    290.79346    150.77763    274126.22   -77402.666    7406.8066   -84809.473     1115.378 
   21450    287.98666    67.550728    274329.08   -77361.451    7335.3146   -84696.766    1118.0138 
   21500    287.89783   -154.36956    274744.05   -77366.923    7333.0519   -84699.974    1121.5548 
   21550    289.50167    19.555843       274744   -77353.186    7373.9033   -84727.089    1123.4846 
   21600    291.96212    73.352786    274779.91    -77333.63    7436.5736   -84770.203    1126.3926 
   21650    291.73886   -108.19143    274578.31   -77301.459    7430.8869   -84732.346    1127.1954 
   21700    293.68335    377.99868       274087   -77271.896    7480.4151   -84752.311    1126.7681 
   21750    288.33408    11.155913    274375.24   -77308.395    7344.1638   -84652.559    1131.8497 
   21800    288.09435   -130.22049    274973.28   -77281.374    7338.0574   -84619.432    1136.5993 
   21850    284.83139   -37.691915    274897.65    -77256.29    7254.9466   -84511.237    1139.5153 
   21900    288.83823    248.33208    274309.48   -77279.181    7357.0048   -84636.185    1138.3347 
   21950    286.37517    194.16944    274172.69   -77288.849    7294.2682   -84583.117    1140.1824 
   22000    285.04491    229.19294    274391.95   -77290.473    7260.3851   -84550.859    1143.4793 
   22050    290.06033    1.1163617    274588.38   -77264.233    7388.1331   -84652.366    1147.7703 
   22100    288.69554   -98.040831    274677.14   -77253.546    7353.3704   -84606.917    1150.5951 
   22150    289.98784    166.87645    274698.02   -77274.206    7386.2866   -84660.493      1153.59 
   22200     293.5274   -111.50315     274858.3   -77231.965    7476.4427   -84708.408    1156.9499 
   22250    286.76061   -146.53626    274881.65   -77230.394    7304.0859    -84534.48    1156.5529 
   22300    294.14429    7.3638926    274747.17   -77167.792    7492.1556   -84659.947     1158.961 
   22350    286.10235   -129.36434    274729.31   -77179.434    7287.3192   -84466.753    1161.7172 
   22400    289.38838    23.059114    274411.04   -77216.667    7371.0177   -84587.685    1164.6298 
   22450    287.41227   -10.854507    274344.53   -77215.354    7320.6843   -84536.038    1168.2714 
   22500    289.69522    244.41093    274493.77   -77187.188    7378.8334   -84566.022    1172.6244 
   22550    287.10042   -72.517083     274916.6   -77195.977    7312.7411   -84508.718    1176.9947 
   22600    285.15003    160.42749    275037.15   -77252.003    7263.0626   -84515.065    1180.9903 
   22650    294.42042   -28.404856    274744.68   -77215.079    7499.1888   -84714.267    1183.3565 
   22700    285.61902    249.98567    274300.31   -77230.805    7275.0083   -84505.814    1183.9645 
   22750     289.9978    191.27807    274140.45   -77222.599    7386.5404    -84609.14    1187.6014 
   22800    292.67002    264.50742    274374.77   -77245.301    7454.6044   -84699.905    1190.9133 
   22850    289.36171   -283.79278    274984.86   -77244.222    7370.3385   -84614.561    1194.8998 
   22900    286.02325   -350.10242    275079.43   -77271.639    7285.3046   -84556.944    1199.0784 
   22950    287.85845    29.586989    274568.49   -77285.787    7332.0489   -84617.836    1201.5127 
   23000    293.33853    338.45758    274017.94   -77318.326     7471.632   -84789.958    1202.6437 
   23050    291.45345    152.87741    274265.36   -77271.654    7423.6171   -84695.271    1208.0021 
   23100    291.57948   -149.07176    274796.65   -77250.657    7426.8274   -84677.484    1213.2285 
   23150    289.50844   -241.42657    275125.09   -77256.909    7374.0757   -84630.985    1217.1681 
   23200    287.18658   -66.610454    275179.47   -77262.453    7314.9356   -84577.389    1221.7319 
   23250    288.83477    -214.3565    275025.92   -77277.555    7356.9167   -84634.472    1224.5441 
   23300    287.98141    9.8305377     274414.1   -77292.176    7335.1807   -84627.356     1224.266 
   23350    288.25759    36.556716    274017.57   -77298.659    7342.2155   -84640.874    1226.3429 
   23400    289.31316     43.13684    274224.95   -77317.279    7369.1018   -84686.381    1230.9313 
   23450    285.81575   -15.554733    274531.27   -77324.457    7280.0193   -84604.477    1235.8804 
   23500    284.43923   -163.94139    274522.53   -77364.432     7244.958    -84609.39    1238.4175 
   23550    288.10217   -27.082928    274068.03   -77360.937    7338.2567   -84699.194     1239.117 
   23600    291.61825    253.50451    273939.82   -77335.217    7427.8148   -84763.032     1239.804 
   23650    287.79801    323.88246    274236.91   -77299.279    7330.5095   -84629.788    1242.5563 
   23700    288.37372   -73.905648    274688.47   -77247.286    7345.1733   -84592.459    1245.8857 
   23750    288.30096   -403.17894    274843.37   -77246.124      7343.32   -84589.444    1248.7858 
   23800     292.6265    109.56057    274539.56   -77219.314    7453.4961    -84672.81     1248.234 
   23850    294.93891   -323.11009    274877.19   -77240.489    7512.3954   -84752.885    1250.2436 
   23900    291.48605   -303.80732    274970.28   -77250.841    7424.4477   -84675.289     1253.287 
   23950    290.86636    139.40372    274585.07   -77305.136    7408.6635   -84713.799    1255.1138 
   24000    284.09127    107.26201    274395.36    -77317.74     7236.095   -84553.835    1257.3553 
   24050    287.78049   -127.89333    274411.76    -77280.97    7330.0631   -84611.033    1259.8582 
   24100    287.38115   -57.920925    274391.42   -77245.973    7319.8915   -84565.865    1262.9323 
   24150    289.87801    81.944738    274533.67   -77264.013    7383.4892   -84647.502    1265.9439 
   24200    291.13755   -173.79607    274910.09   -77294.679    7415.5709    -84710.25    1270.5055 
   24250      287.903   -114.92434    274905.29    -77321.16    7333.1836   -84654.344    1272.5914 
   24300    289.34559   -102.35018    274282.36   -77301.646    7369.9279   -84671.574     1271.712 
   24350    291.53588    333.18931    273614.07   -77320.176    7425.7168   -84745.893    1273.6461 
   24400     290.4013    79.776392    274026.91   -77287.418    7396.8179   -84684.236    1278.3877 
   24450    288.15889    30.199812    274657.89   -77354.594    7339.7013   -84694.295    1281.6268 
   24500    287.08916   -110.29817    275070.25   -77357.546    7312.4542   -84670.001    1285.8599 
   24550     284.2171   -77.630472    275111.73   -77331.059       7239.3   -84570.359    1288.4368 
   24600     287.5123   -188.54054    274787.08    -77318.38    7323.2322   -84641.613    1290.0001 
   24650    291.58057     41.84112    274072.02   -77303.814    7426.8551   -84730.669    1290.1292 
   24700    291.65732    467.20919    273638.76   -77263.413    7428.8099   -84692.223    1291.0871 
   24750    285.63584    435.66998    273630.52   -77248.258    7275.4367   -84523.695    1293.1482 
   24800    288.91496    46.021575     274502.7   -77188.826    7358.9592   -84547.785    1296.8452 
   24850    291.87621   -125.83189    275282.34   -77164.257    7434.3854   -84598.642    1300.8774 
   24900    289.66614   -312.71334    275391.93   -77133.483    7378.0926   -84511.576    1302.6761 
   24950    289.60367    -40.91071    274994.48   -77173.682    7376.5015   -84550.184    1303.3746 
   25000    290.64762    320.43247    274426.11    -77208.24     7403.092   -84611.332    1304.2031 
   25050    288.61792    18.915015    274309.25   -77236.727    7351.3933    -84588.12    1306.5428 
   25100    292.16113   -41.372859    274528.95   -77193.384    7441.6424   -84635.027    1308.6585 
   25150    284.67665    -36.16647    274891.49   -77219.678    7251.0052   -84470.684    1312.0363 
   25200     285.7108   -170.88938    274942.44   -77248.253    7277.3461   -84525.599    1315.4323 
   25250    291.59474    38.956315    274382.41    -77298.91    7427.2161   -84726.126    1315.7844 
   25300    292.44215    398.86658    273827.98   -77342.373    7448.8005   -84791.174    1316.9479 
   25350    288.73754   -5.4173954    274017.82   -77386.524    7354.4403   -84740.964    1320.6682 
   25400    287.72196   -186.81892     274545.7   -77406.363    7328.5724   -84734.935    1324.1075 
   25450    289.91007     120.2441    274663.14   -77354.184    7384.3057    -84738.49    1326.2529 
   25500    284.37838   -124.77151    274688.33   -77344.496    7243.4081   -84587.904    1328.9253 
   25550    286.40586    31.761598       274431   -77382.989    7295.0498   -84678.038    1331.4288 
   25600     289.3451   -118.64704    274411.78   -77402.949    7369.9155   -84772.865    1333.9557 
   25650    287.17642   -50.524891     274372.7   -77408.773    7314.6769   -84723.449     1337.469 
   25700    291.96755   -2.1902722    274057.51   -77390.116    7436.7117   -84826.827     1338.231 
   25750    291.05442    287.77023    273858.43   -77390.494    7413.4535   -84803.947    1340.3409 
   25800    287.96696    171.11186    274139.72    -77402.27    7334.8126   -84737.082     1344.918 
   25850    288.28185    107.81627    274731.03   -77396.443    7342.8333   -84739.276    1351.0926 
   25900    285.57999   -148.60296     275088.7   -77345.151    7274.0143   -84619.165    1355.1428 
   25950     288.4681    201.30803    274806.86   -77375.408    7347.5773   -84722.986    1357.4716 
   26000    284.35766    256.73214    274523.57   -77353.887    7242.8801   -84596.767    1360.6184 
   26050    288.62513    22.403376    274331.71   -77436.036    7351.5771   -84787.613    1363.8296 
   26100    287.06663    19.720237    274099.05   -77460.518    7311.8803   -84772.398    1365.6353 
   26150    286.01333    8.0495483    273958.42   -77463.447    7285.0517   -84748.498    1368.9065 
   26200    286.14176   -75.597304    274148.18   -77454.958    7288.3229   -84743.281    1371.4045 
   26250    282.81307    122.63752    274387.45   -77444.011    7203.5378   -84647.549    1373.5021 
   26300    285.69183   -186.95451    274539.13    -77473.56    7276.8629   -84750.423     1376.209 
   26350    287.42665   -89.180162    274423.11    -77487.91    7321.0504    -84808.96    1377.9616 
   26400    289.42607    108.04321    274287.91   -77481.982    7371.9778    -84853.96    1378.3677 
   26450    287.57872    114.37504    274237.29    -77437.74    7324.9238   -84762.664    1382.2527 
   26500    288.88898    47.329889     274141.1   -77446.493    7358.2976    -84804.79    1383.9489 
   26550    285.51979   -131.35274    274353.15   -77437.003    7272.4807   -84709.484    1388.0119 
   26600    287.09793    44.775296    274797.26   -77449.378    7312.6776   -84762.056    1392.1204 
   26650    281.27216   -92.218806    275042.23   -77433.983    7164.2894   -84598.272     1396.899 
   26700    292.67851   -106.36296    274753.36   -77402.659    7454.8208    -84857.48    1399.5708 
   26750    290.22973    270.75383    274160.33   -77408.261    7392.4479   -84800.709    1400.9196 
   26800    286.03493   -98.789729    273918.17   -77458.214    7285.6019   -84743.815    1405.1785 
   26850    282.79803    26.000893    274100.24   -77447.022    7203.1548   -84650.177    1408.3478 
   26900    288.02367    39.578571    274547.38    -77407.53    7336.2571   -84743.787    1411.5505 
   26950    285.03079   -301.45892    274850.72   -77428.146    7260.0256   -84688.171    1415.4094 
   27000    282.61543   -100.41247    274468.59    -77437.17    7198.5039   -84635.674    1418.1923 
   27050    284.71715     135.4872    273893.48     -77443.1    7252.0368   -84695.136    1419.2235 
   27100    287.46644    444.28404    273715.09   -77412.397     7322.064   -84734.461    1421.4778 
   27150    288.59668    -160.0522    274566.26   -77445.712    7350.8525   -84796.564    1427.6679 
   27200     285.7336   -132.18567    275044.45   -77421.646    7277.9268   -84699.573    1430.5409 
   27250    283.62649   -67.826683    274741.02   -77400.153    7224.2566   -84624.409    1431.7575 
   27300    282.70938    267.37104    274124.19   -77402.151    7200.8968   -84603.047    1432.5332 
   27350    285.84597    409.35877    273803.27   -77376.482    7280.7891   -84657.272    1434.6702 
   27400    289.67296     76.12172    274122.01   -77338.876    7378.2663   -84717.143    1439.2464 
   27450    286.26543   -32.040098    274631.79   -77361.921    7291.4731   -84653.395    1444.4254 
   27500    290.78906   -32.552362     274755.3   -77346.825    7406.6945   -84753.519    1448.8787 
   27550    284.25099    98.595149    274720.02    -77341.14    7240.1633   -84581.304    1450.3295 
   27600    287.88074   -83.012556    274548.58   -77346.132    7332.6166   -84678.749    1452.1666 
   27650    287.30762    -328.8362    274281.36   -77360.184    7318.0187   -84678.203    1455.1277 
   27700    284.70884    252.98924    273881.76   -77376.445    7251.8252    -84628.27     1456.705 
   27750    289.33063    202.03201     273890.9   -77349.013    7369.5468    -84718.56    1459.5909 
   27800    289.43566   -26.418813    274430.34   -77364.907     7372.222   -84737.129    1465.1585 
   27850     283.2833   -297.50823    275046.79   -77323.067    7215.5152   -84538.582    1469.6507 
   27900    290.92056   -92.674671     274871.4   -77345.102     7410.044   -84755.146     1471.624 
   27950    288.84802   -29.184381    274131.48   -77361.558    7357.2541   -84718.812    1471.2315 
   28000    284.22518    361.07777    273796.19   -77362.911    7239.5059   -84602.417    1469.9929 
   28050    284.34193    362.57329    274156.38   -77353.078    7242.4796   -84595.557    1472.7334 
   28100    287.67412   -64.800198    274854.49   -77374.413    7327.3538   -84701.767    1477.1682 
   28150     281.9481   -171.17229    275322.21   -77343.136    7181.5062   -84524.643    1481.9536 
   28200    289.42066   -575.31855    275193.99   -77353.541      7371.84   -84725.381    1482.2597 
   28250    286.41402   -56.305317    274302.85    -77416.61    7295.2578   -84711.868    1481.0839 
   28300    287.13743    599.78878     273443.9   -77403.547    7313.6837    -84717.23    1478.2362 
   28350    288.20607    420.28869    273748.86   -77406.406    7340.9031   -84747.309    1481.7507 
   28400     288.7511    77.109423    274693.77   -77373.951    7354.7857   -84728.737    1487.2525 
   28450    287.55406   -84.471167    275323.02   -77364.239    7324.2957   -84688.534    1492.2714 
   28500    288.13183   -219.83963    275065.46   -77364.447    7339.0121   -84703.459    1494.7843 
   28550    289.84503    131.12551    274361.18   -77390.509    7382.6491   -84773.158    1493.8564 
   28600    291.32542    320.84422    274146.44   -77380.251    7420.3562   -84800.607    1495.9802 
   28650    288.40195   -210.19877    274524.01   -77398.795    7345.8923   -84744.687     1501.615 
   28700    288.11385     10.81617    274691.55   -77404.687    7338.5541   -84743.241     1504.864 
   28750    282.79173    87.936949    274705.06   -77397.459    7202.9943   -84600.453    1505.5066 
   28800    287.18484    147.71992    274490.79   -77418.294    7314.8913   -84733.185     1507.377 
   28850    287.99144    25.304485     274162.6   -77392.629    7335.4364   -84728.065    1508.5569 
   28900    290.42489   -107.95198    274134.75   -77442.772    7397.4188   -84840.191    1510.7167 
   28950    285.92701    58.294533       274437   -77466.035    7282.8531   -84748.888    1515.3937 
   29000    284.45545   -268.36421     274893.3   -77488.133    7245.3709   -84733.504    1520.0197 
   29050    286.78726   -106.52891    274660.88   -77475.798    7304.7647   -84780.563      1520.96 
   29100    285.59109    101.53921    274222.92   -77499.463     7274.297    -84773.76    1522.4258 
   29150    283.47649    248.67193    273983.68   -77497.298    7220.4359   -84717.734    1525.6145 
   29200    286.19605   -86.664826    274220.55   -77506.557    7289.7058   -84796.262    1529.1127 
   29250    284.55261   -17.879475    274429.02   -77511.343    7247.8457   -84759.189    1532.0238 
   29300    283.91482    4.3354339    274374.49    -77536.16    7231.6006   -84767.761    1534.6545 
   29350    286.93883   -80.012286    274389.94   -77522.254    7308.6253   -84830.879    1538.4869 
   29400    286.69842   -33.915143     274207.6   -77504.646    7302.5019   -84807.148     1540.121 
   29450    284.05218    158.93419    273928.51   -77478.037    7235.0992   -84713.136     1542.429 
   29500    284.35858    407.34888    273967.22    -77457.46    7242.9037   -84700.363    1545.1873 
   29550    290.56576    301.04197    274309.92   -77411.505    7401.0068   -84812.512    1548.1762 
   29600    285.31286    69.849354    274724.71   -77412.135      7267.21   -84679.345    1550.8919 
   29650    280.56574    8.3365276    274825.61   -77381.856    7146.2962   -84528.152    1552.1506 
   29700    288.53643   -220.32076    274456.15   -77389.007    7349.3178   -84738.325    1552.0303 
   29750    293.02705    151.10726    273785.08   -77352.197    7463.6985   -84815.895    1554.3535 
   29800    286.45464    362.98158       273875   -77319.414    7296.2923   -84615.707    1557.9385 
   29850    292.27151    34.367222    274418.36   -77292.653    7444.4541   -84737.107    1562.1404 
   29900    289.10379   -170.31018    274843.23   -77308.293    7363.7689   -84672.062    1568.6745 
   29950    291.71217    23.887341    274932.11    -77304.74    7430.2071   -84734.947    1571.2122 
   30000    285.11458    -52.88191    274949.56   -77283.049    7262.1596   -84545.208    1571.8736 
   30050    288.21936    73.996043    274454.32   -77268.039    7341.2417   -84609.281    1572.3954 
   30100    293.68104    265.66999    274114.84   -77290.322    7480.3561   -84770.679    1574.1852 
   30150    289.13889   -110.04547    274437.37   -77276.887     7364.663    -84641.55    1578.8232 
   30200    289.41909    -391.9678    274653.27   -77303.755       7371.8   -84675.554    1583.4915 
   30250    288.33242   -143.39235    274637.15   -77325.035    7344.1213   -84669.156    1584.1412 
   30300    287.69836   -169.18899    274280.37   -77373.851    7327.9711   -84701.822    1586.3616 
   30350     285.4473    316.82165    274143.44   -77389.994    7270.6345   -84660.629    1588.6858 
   30400    289.02499   -170.39587    274607.46   -77422.557    7361.7619   -84784.319    1594.7709 
   30450    287.92618    -121.4695    274978.71   -77450.877    7333.7741   -84784.651     1600.149 
   30500    282.96324   -184.05691    274764.68   -77436.278     7207.363   -84643.641    1602.4595 
   30550    288.63814    68.763369    274010.58    -77372.52    7351.9085   -84724.429    1599.7519 
   30600    289.12427    180.87585    274040.14   -77345.749    7364.2906   -84710.039    1601.0733 
   30650     290.1526   -47.415159    274835.65   -77304.394    7390.4833   -84694.877    1606.4356 
   30700    290.00038   -120.52763    275291.08   -77297.008     7386.606   -84683.614    1611.0213 
   30750    292.75669   -138.31152    275222.11    -77290.04     7456.812   -84746.852    1613.4991 
   30800     288.2401   -168.29979    274560.14   -77293.778      7341.77   -84635.548    1612.5227 
   30850    291.07702    313.26439    273796.97   -77259.161    7414.0292    -84673.19    1610.5891 
   30900    286.72504    272.73405     273945.7   -77240.019    7303.1796   -84543.199    1612.6785 
   30950    287.78054   -138.84965    274686.76    -77279.81    7330.0643   -84609.874    1619.4098 
   31000    294.18255   -470.62277    275357.67     -77286.2    7493.1302   -84779.331    1623.1557 
   31050    285.82719   -73.352956    275191.43   -77302.139    7280.3105   -84582.449    1623.1141 
   31100    292.96419   -236.80324    274477.02   -77278.829    7462.0973   -84740.926    1624.0721 
   31150    290.36517    288.65155    274097.83   -77249.941    7395.8977   -84645.839    1623.8335 
   31200    287.62878    196.46667    274641.97   -77287.125     7326.199   -84613.324    1628.1319 
   31250    286.16221   -47.486944    275060.79   -77301.812    7288.8438   -84590.656    1632.6571 
   31300    284.62609   -68.688318    274795.94   -77289.429    7249.7173   -84539.147    1634.6601 
   31350    286.91768    -43.80824    274560.18   -77301.023    7308.0866    -84609.11    1638.3821 
   31400    285.65213     29.73587    274438.01   -77311.207    7275.8518   -84587.059    1641.2056 
   31450    286.76012   -37.098647    274529.89   -77310.213    7304.0733   -84614.287    1646.0013 
   31500    289.39498   -14.373245    274700.78   -77362.725    7371.1859    -84733.91    1649.4199 
   31550    292.12119   -30.693486    274690.22   -77434.853    7440.6252   -84875.478    1652.7654 
   31600    287.23378     87.01371    274417.92   -77383.456    7316.1379   -84699.593    1654.9056 
   31650    286.71821   -123.43115    274151.44   -77350.562    7303.0059   -84653.567    1653.3767 
   31700     285.1555    90.610591    273981.19    -77320.14    7263.2019   -84583.342     1654.523 
   31750    295.40697   -117.21217    274224.86   -77306.539    7524.3175   -84830.856     1658.433 
   31800    286.30304     -85.0484    274829.83   -77355.386    7292.4311   -84647.817    1663.3731 
   31850    285.97419   -54.868911    275212.05   -77329.734    7284.0548   -84613.789    1667.0886 
   31900    295.90916   -231.52316    274891.45   -77318.422    7537.1086   -84855.531    1666.6816 
   31950    293.82561    241.54967    274056.76   -77314.001    7484.0385    -84798.04    1665.3054 
   32000    292.22752    316.96649    273669.77   -77297.136    7443.3336   -84740.469    1665.2923 
   32050    289.47389    115.71474     274028.6   -77318.816    7373.1959   -84692.012    1671.4545 
   32100    287.90522   -98.068423    274619.33    -77341.61    7333.2402   -84674.851    1674.3326 
   32150    287.79261   -322.13669    274826.79   -77373.823    7330.3718   -84704.194    1677.3407 
   32200     286.8572   -99.387264    274465.34   -77386.341    7306.5461   -84692.887    1678.0784 
   32250    289.75299   0.41948529    274253.63   -77320.664    7380.3047   -84700.968    1680.2443 
   32300    288.64245    69.669354    274448.91   -77317.148    7352.0182   -84669.167    1684.1104 
   32350    288.33174   -440.30013    274751.99   -77360.022    7344.1041   -84704.126    1686.1646 
   32400     282.2416   -50.743072    274450.24   -77398.078    7188.9819    -84587.06    1687.1261 
   32450    292.08523   -132.00964    274023.63    -77357.19    7439.7094   -84796.899    1687.6619 
   32500    286.33276    473.59548    273856.31   -77332.346    7293.1881   -84625.534    1692.3233 
   32550    283.92014   -78.667267    274410.76   -77323.142    7231.7361   -84554.879    1698.3343 
   32600      285.047    73.437039    274791.83   -77339.318    7260.4383   -84599.757    1702.9428 
   32650    285.76582   -266.47603    274923.97   -77330.916    7278.7475   -84609.663      1704.73 
   32700      287.388   -94.764961    274568.43   -77342.277     7320.066   -84662.343     1705.666 
   32750    285.48951   -25.836826     274121.9   -77349.689    7271.7097   -84621.399    1704.8657 
   32800    290.71268    85.326275    274074.78   -77322.138    7404.7491   -84726.887    1705.3677 
   32850    286.74373    219.98677    274310.53   -77311.781    7303.6557   -84615.437    1708.3319 
   32900    284.51107    30.194036    274640.15   -77287.261    7246.7878   -84534.049    1711.6046 
   32950    289.47464    -210.7145    274815.52   -77309.526     7373.215   -84682.741    1711.6523 
   33000    288.87535     57.64983    274764.48   -77314.019    7357.9502   -84671.969    1712.2327 
   33050    287.00024   -99.908165    274508.69   -77301.061    7310.1893    -84611.25     1713.261 
   33100    291.39192   -225.70754    274270.11   -77306.089    7422.0498   -84728.139    1713.3325 
   33150     289.0284    163.96305    274305.71   -77293.959    7361.8486   -84655.807    1714.1666 
   33200    290.90988   -115.96214    274855.13   -77322.329    7409.7718   -84732.101    1717.2314 
   33250    286.06276    35.002016    275091.82   -77273.152    7286.3108   -84559.463    1719.5211 
   33300    286.12896   -133.54596    274898.51   -77253.544     7287.997   -84541.541    1718.8319 
   33350    285.91734    98.890709    274360.31   -77249.157    7282.6068   -84531.763    1718.6901 
   33400    288.19747    145.91543    274063.73   -77253.116    7340.6841     -84593.8    1716.9557 
   33450    290.15147     132.6597    274234.06   -77225.299    7390.4544   -84615.753     1719.607 
   33500    294.80574     -245.154    274856.95   -77195.545    7509.0034   -84704.548    1723.5926 
   33550    294.42477   -251.13057     274933.4   -77135.574    7499.2998   -84634.874    1724.5694 
   33600    289.50177    74.398239    274587.65   -77149.305     7373.906   -84523.211    1725.0209 
   33650    290.30115    243.30047    274555.54   -77148.363    7394.2669    -84542.63    1727.5567 
   33700    289.56185   -90.316488    274803.75   -77162.221    7375.4361   -84537.657    1729.4149 
   33750    290.12653   -190.83154    274956.86   -77203.107    7389.8192   -84592.926    1730.1455 
   33800    287.93741    -107.0758    274686.45   -77233.277    7334.0601   -84567.337    1728.6602 
   33850    292.16926     219.4028    274290.29   -77280.661    7441.8497    -84722.51    1726.8568 
   33900    290.23582    56.436045    274383.22   -77278.726    7392.6028   -84671.329    1729.1532 
   33950    289.76594    43.454561    274682.97   -77277.748    7380.6346   -84658.383    1731.1613 
   34000     290.0388   -232.72394    274940.76    -77272.98    7387.5847   -84660.565     1735.198 
   34050    288.21443   -140.30225    274819.35   -77318.119    7341.1161   -84659.235    1736.9831 
   34100    290.16012     162.1828    274460.23   -77326.272    7390.6748   -84716.947    1737.8036 
   34150    286.10856    293.19065    274385.92   -77358.494    7287.4774   -84645.971    1738.4441 
   34200    289.53316   -174.52555    274520.59   -77344.034    7374.7054   -84718.739    1742.1198 
   34250    286.71602   -74.858393     274434.9   -77417.768      7302.95   -84720.718    1744.6227 
   34300    283.02366     70.03456    274264.17   -77443.787    7208.9019   -84652.688    1746.4779 
   34350    288.93112    37.677995    274224.55   -77425.709    7359.3709    -84785.08    1746.8965 
   34400    288.84696    189.13581    274260.63   -77465.102    7357.2272    -84822.33    1747.9179 
   34450    289.21641    9.4882234    274464.03   -77436.416    7366.6375   -84803.053    1751.6903 
   34500    284.94358    254.41579    274456.82   -77468.336    7257.8042    -84726.14     1751.508 
   34550    285.19915    244.73905    274318.07   -77419.878    7264.3139   -84684.192    1753.9685 
   34600    285.04235   -227.36376    274701.09   -77399.733    7260.3199   -84660.053    1757.9572 
   34650    281.85305   -195.96349    275038.97   -77390.999    7179.0851   -84570.084    1759.9988 
   34700    284.36346   -209.51588    274830.33   -77369.966    7243.0279   -84612.994    1759.6496 
   34750    285.03495    253.21498    274198.03   -77470.259    7260.1314   -84730.391    1758.2297 
   34800    288.20787   -7.4707198    273960.98   -77453.838     7340.949   -84794.787    1758.9039 
   34850      285.574    94.054817    274020.03   -77483.304    7273.8617   -84757.166    1759.9863 
   34900    289.50097    235.24531    274262.01   -77465.549    7373.8855   -84839.434    1762.1603 
   34950    284.22069    50.339997    274762.41   -77495.593    7239.3914   -84734.985    1767.1257 
   35000    283.01386   -322.98929    275025.65   -77472.302    7208.6522   -84680.954    1770.0619 
   35050    285.31221   -238.06909    274540.07   -77508.328    7267.1936   -84775.522    1768.8729 
   35100     286.8395    102.78692    273968.18   -77499.829    7306.0951   -84805.924    1768.5878 
   35150    285.78348    125.25761    274077.63   -77493.005    7279.1973   -84772.203    1771.2047 
   35200    281.54271   -204.13543    274730.45   -77466.751    7171.1805   -84637.931    1776.7642 
   35250    282.97274    51.335696    275009.76   -77468.845    7207.6048    -84676.45    1780.1626 
   35300    286.21505   -126.60827    274633.99    -77407.42    7290.1898   -84697.609    1782.1438 
   35350    284.03594    130.53252     274192.5   -77403.548    7234.6856   -84638.233    1782.9754 
   35400    291.84238    334.72579    274200.65   -77382.619    7433.5236   -84816.142    1784.3338 
   35450    286.47842   -194.55908    274559.51    -77408.97    7296.8982   -84705.868    1788.1272 
   35500    285.82884   -245.88252    274807.13   -77409.596    7280.3526   -84689.949    1792.3437 
   35550    286.93133   -120.48935    274710.71   -77416.555    7308.4342   -84724.989    1794.6849 
   35600    286.99685    198.13116    274224.92   -77362.406     7310.103   -84672.509    1795.2258 
   35650     291.1547    64.144291    274002.84   -77368.948    7416.0077   -84784.956    1795.5893 
   35700    281.22686    106.43882    274505.83   -77380.349    7163.1355   -84543.484    1801.4609 
   35750    285.43159   -388.92002     275034.5   -77357.972    7270.2342   -84628.206    1806.5358 
   35800    287.58482    -66.41459    274885.04    -77355.24    7325.0792   -84680.319    1806.8071 
   35850    288.45467    190.04032    274439.31   -77355.265    7347.2352     -84702.5    1807.5501 
   35900    290.13002      192.113    274387.95   -77307.724    7389.9081   -84697.632    1809.4042 
   35950    282.28977   -117.97729    274704.27   -77335.251    7190.2089    -84525.46     1813.984 
   36000     286.6276    21.212134    275060.17   -77330.711    7300.6979   -84631.409    1818.8171 
   36050    285.14951   -141.44815    275023.93   -77383.271    7263.0493   -84646.321    1820.0526 
   36100    288.39917   -84.594434    274513.43   -77337.793    7345.8217   -84683.614    1820.5974 
   36150    286.88977   -80.333996    274033.33   -77351.509    7307.3756   -84658.885    1820.4694 
   36200    286.74932   -49.378989    274035.59   -77379.624    7303.7982   -84683.422    1823.6396 
   36250    282.95074    224.94743    274397.08   -77395.228    7207.0445   -84602.272    1826.6254 
   36300    286.07278   -132.32736    274902.49   -77404.249     7286.566   -84690.815    1830.6536 
   36350    285.81955   -37.650616    274891.76   -77420.898    7280.1161   -84701.014     1833.288 
   36400    283.69767    199.05203    274377.84   -77413.055    7226.0696   -84639.125    1833.2967 
   36450    286.25184    165.27689    273987.26   -77353.097     7291.127   -84644.224    1832.1078 
   36500    290.73924    146.05795    273991.39   -77302.098    7405.4255   -84707.523    1834.9525 
   36550    284.18406   -37.146506    274330.18   -77316.002    7238.4583    -84554.46    1840.3546 
   36600    292.25811   -42.317737    274897.12   -77379.613    7444.1127   -84823.726    1846.1934 
   36650    287.72945   -159.90751    274984.58   -77385.281    7328.7631   -84714.044    1849.3386 
   36700    289.18043    72.770156     274405.7   -77423.197     7365.721   -84788.918    1850.1409 
   36750    284.78486    373.24505    273901.24   -77415.534    7253.7613   -84669.296    1852.1645 
   36800     285.9139   -34.792193    274137.61   -77420.319    7282.5192   -84702.838    1855.6104 
   36850    284.03053    15.544845     274624.5   -77402.078    7234.5478   -84636.626    1859.9681 
   36900    284.46058   -76.693146    274905.85   -77385.599    7245.5015     -84631.1    1863.6118 
   36950    283.28621   -235.37905    274852.17     -77396.7    7215.5893   -84612.289    1863.9529 
   37000    282.88875    24.449552    274286.83   -77402.573    7205.4657   -84608.039     1863.804 
   37050    285.24213    139.76682    273865.86   -77399.552    7265.4085    -84664.96    1863.1464 
   37100    289.44268    267.91668    274009.11   -77339.694    7372.4008   -84712.094    1867.5952 
   37150    288.39039    -129.7855    274690.95   -77335.387     7345.598   -84680.985    1871.5242 
   37200    288.45326   -173.41554    275206.24   -77338.644    7347.1994   -84685.843    1877.1343 
   37250    288.15022   -23.104487    274855.49   -77365.267    7339.4806   -84704.747    1877.1837 
   37300     288.4243    296.49769    274138.93   -77401.864    7346.4617   -84748.326    1874.1979 
   37350    286.17068    221.92474    274007.94   -77373.457    7289.0596   -84662.516    1876.0198 
   37400    284.69724   -45.656409    274297.89   -77342.407    7251.5296   -84593.937    1880.3291 
   37450    289.28162     112.3679    274764.96   -77330.366    7368.2984   -84698.665    1885.0198 
   37500    292.45131   -239.13464    274905.94   -77286.438    7449.0338   -84735.472    1890.0266 
   37550     290.6033   -322.29017    274577.72    -77351.11    7401.9631   -84753.073    1892.7778 
   37600    289.92161   -50.508348    274231.01   -77373.592    7384.5996   -84758.191    1893.3935 
   37650    289.94327   -289.10927    274165.98   -77377.692    7385.1514   -84762.843    1897.5344 
[...]
   90850    289.60684    235.96888    273323.73   -77469.182    7376.5822   -84845.764     4435.863 
   90900    286.74133    554.92191    273102.49    -77462.27    7303.5947   -84765.865    4436.1665 
   90950    288.47854   -97.119897    274237.72   -77466.787    7347.8433    -84814.63    4447.3483 
   91000    285.49117   -136.59175     275318.9   -77481.709    7271.7518   -84753.461    4460.6127 
   91050    280.84522   -267.60642    275417.54   -77508.013    7153.4147   -84661.428     4463.842 
   91100    285.73327    79.328575    274420.17   -77461.305    7277.9184   -84739.223    4457.8445 
   91150    287.03307    608.88089     273696.6   -77431.051    7311.0256   -84742.077    4451.4865 
   91200    287.56003    17.863356    274078.01   -77451.676    7324.4477   -84776.124    4455.2484 
   91250    277.73955    46.430574    274402.25   -77408.216    7074.3101   -84482.526    4461.9733 
   91300     282.3299    28.049561    274474.07    -77420.39     7191.231   -84611.621    4469.2717 
   91350     288.3589    107.95797    274296.44   -77435.221    7344.7958   -84780.017    4471.8185 
   91400    286.94727   -119.16683    274295.83   -77469.454    7308.8402   -84778.295    4475.6906 
   91450     286.6357   -205.17461    274469.83   -77419.082    7300.9042   -84719.987    4480.6777 
   91500    279.98775    76.833992    274587.64   -77470.956     7131.574    -84602.53    4483.9814 
   91550    288.90319    112.38408    274294.11   -77432.533    7358.6594   -84791.192    4484.1691 
   91600    287.45779    222.12426    274112.11   -77444.007    7321.8436    -84765.85    4487.7847 
   91650     287.6591   -261.39171     274220.3   -77409.204    7326.9711   -84736.175    4491.8312 
   91700    289.46691    97.369909    274443.97   -77433.353    7373.0179   -84806.371     4499.047 
   91750    286.22169   -137.74636    274861.01   -77405.796    7290.3589   -84696.155    4505.2482 
   91800    283.72222    124.81208     275016.2   -77420.321     7226.695   -84647.016    4510.5429 
   91850    288.86905   -46.035519    274565.62   -77423.309    7357.7898   -84781.099    4507.5103 
   91900    285.59559    294.63223    273921.64   -77396.617    7274.4115   -84671.029    4502.9491 
   91950    287.79201    336.07363     273807.1   -77391.912    7330.3565   -84722.268    4504.7038 
   92000    287.05941   -140.45806    274664.63   -77448.397    7311.6964   -84760.093    4519.1053 
   92050    285.10433   -17.071138    275267.62   -77459.838    7261.8986   -84721.736    4527.2555 
   92100     282.1863   -133.63109    275046.83   -77431.532    7187.5734   -84619.105    4526.0832 
   92150    285.00732   -313.83259    274258.44   -77463.884    7259.4276   -84723.311    4520.9416 
   92200    285.31572    169.82499    273674.65   -77433.825     7267.283   -84701.108    4515.4434 
   92250    285.36472    214.76526    273892.23   -77407.594    7268.5311   -84676.125    4521.9922 
   92300    282.69751    46.630416    274586.55   -77396.527    7200.5945   -84597.122    4530.5504 
   92350    286.94339   -45.372485    274919.02    -77358.27    7308.7413   -84667.012    4535.0695 
   92400    290.46256   -26.507257    274602.55   -77385.715    7398.3783   -84784.093    4533.8276 
   92450    287.40899    1.7046084    274121.55   -77397.586    7320.6006   -84718.187    4531.1175 
   92500    289.57247    78.718108    273749.59    -77445.85    7375.7067   -84821.557    4527.3072 
   92550    287.52663    120.19238    273750.51   -77485.267    7323.5971   -84808.864    4528.6213 
   92600    282.11721   -264.90181    274141.45   -77457.498    7185.8135   -84643.311    4537.0001 
   92650    284.89921   -18.662572    274545.66   -77417.762    7256.6741   -84674.436    4544.1509 
   92700     281.2326    -112.0971    274762.15   -77418.106    7163.2816   -84581.388    4549.2823 
   92750     289.5786    127.33946     274591.1   -77401.035     7375.863   -84776.898    4549.7455 
   92800    288.33299   -25.778725     274340.4   -77397.237    7344.1359   -84741.372    4549.0801 
   92850     286.4759   -103.49204    274055.06   -77348.756    7296.8338    -84645.59    4548.8265 
   92900    288.63297    301.73413    273985.28   -77345.465    7351.7766   -84697.242    4550.6928 
   92950    288.54636     113.4894    274375.67   -77318.273    7349.5705   -84667.843     4558.636 
   93000    288.36324    144.53716    274905.53   -77256.338    7344.9064   -84601.245    4566.9233 
   93050    293.14239    180.90883    275022.01   -77237.393    7466.6363   -84704.029    4570.7966 
   93100     290.6662   -186.64322    274881.95   -77261.703    7403.5652   -84665.268    4570.4995 
   93150    290.00249   -141.45102    274438.27   -77289.357    7386.6598   -84676.016    4569.7851 
   93200    285.58504    149.26496    273946.61   -77342.723    7274.1427   -84616.865    4567.8518 
   93250    282.08472    36.303071    273886.41   -77340.402    7184.9861   -84525.388    4569.4982 
   93300    287.68804    314.94685    274099.34   -77330.415    7327.7083   -84658.123    4573.5217 
   93350    291.68359    35.954929    274590.91   -77345.186    7429.4791   -84774.665    4583.2098 
   93400    289.31219   -399.19924    275195.33   -77301.224     7369.077   -84670.301    4595.2442 
   93450    288.69065   -386.09065    275053.56   -77317.351    7353.2459   -84670.597    4596.6609 
   93500    288.17015    66.687547    274401.08   -77347.141    7339.9883   -84687.129    4588.4925 
   93550    286.84644    61.520986    273929.51   -77306.147    7306.2719   -84612.419    4588.0841 
   93600    286.87788    67.693276    274029.37    -77296.06    7307.0729   -84603.133     4590.365 
   93650    289.61043     66.58442       274366   -77281.303    7376.6736   -84657.977    4597.2552 
   93700     292.5836    222.36873    274750.71   -77245.233    7452.4034   -84697.636     4607.024 
   93750    286.98636   -175.35244    275061.67   -77288.073    7309.8359   -84597.909    4611.2758 
   93800    289.62742   -7.5160482    274901.96   -77312.726    7377.1064   -84689.832    4613.4316 
   93850    288.87812    105.10565    274706.66   -77325.252     7358.021   -84683.273    4615.4284 
   93900    291.39801   -297.03587    274662.08   -77318.888    7422.2051   -84741.093    4618.3718 
   93950    283.19912    41.822611    274362.89   -77311.094     7213.371   -84524.465    4618.2639 
   94000    287.85651    50.864082    274250.12   -77363.334    7331.9995   -84695.333    4621.9714 
   94050    288.48056    24.368307    274396.46   -77434.627    7347.8947   -84782.521    4630.1935 
   94100    285.98484   -111.33729    274707.91   -77441.325     7284.326   -84725.651    4640.2802 
   94150    285.04097    14.834685    274859.64   -77466.357    7260.2848   -84726.641    4645.7067 
   94200    278.82239    223.47715    274457.92   -77427.359    7101.8912    -84529.25    4644.3471 
   94250    289.10821     173.6479    274167.91   -77379.597    7363.8815   -84743.478    4643.8281 
   94300    283.15482    186.75836    274340.95   -77378.731    7212.2425   -84590.974    4649.9942 
   94350    286.81511   -52.682659    274633.49   -77397.653     7305.474   -84703.127    4658.7487 
   94400    282.90656   -258.07574    275007.97   -77391.397    7205.9192   -84597.316    4662.6219 
   94450    289.29341   -113.63825    274889.34   -77394.935    7368.5987   -84763.534    4664.3272 
   94500    286.26455    50.037245    274500.96   -77414.967    7291.4505   -84706.418    4664.6082 
   94550    289.39308   -98.916044    274203.11   -77400.236    7371.1375   -84771.373    4663.7981 
   94600    285.08595   -70.478566    274255.09    -77380.13    7261.4305    -84641.56    4668.3908 
   94650    287.74586    16.785927    274410.86   -77402.601    7329.1811   -84731.782    4672.8634 
   94700    288.72553    251.49433     274541.5   -77385.828    7354.1343   -84739.963    4678.9014 
   94750    288.67531   -207.37708     274656.7   -77436.328     7352.855   -84789.183    4680.2339 
   94800    287.41658    86.920968    274427.84   -77484.615    7320.7941   -84805.409    4680.6605 
   94850    283.26829    339.17565     274299.8    -77522.82    7215.1327   -84737.952    4684.1294 
   94900    286.88037    6.9051614    274407.77   -77531.772    7307.1363   -84838.908    4687.6298 
   94950    282.79089   -79.653149    274428.64   -77483.572     7202.973   -84686.545    4688.6176 
   95000    282.13288   -79.900162    274443.52   -77545.713    7186.2129   -84731.926    4689.4493 
   95050     280.1914    96.452262    274439.65    -77561.23    7136.7612   -84697.991    4690.0468 
   95100    282.72445    2.0183975     274320.5   -77526.544    7201.2805   -84727.825    4691.9082 
   95150    287.04523     132.7255    274177.07    -77504.49    7311.3354   -84815.826    4693.5836 
   95200    284.90021   -77.666052     274373.9   -77518.102    7256.6996   -84774.802    4699.7476 
   95250    288.36109   -479.65564    274564.54   -77539.528    7344.8518    -84884.38    4707.0688 
   95300    282.20381   -60.934236    274258.75   -77562.081    7188.0195   -84750.101    4705.8039 
   95350    288.33175   -124.83773    274020.51    -77561.93    7344.1042   -84906.035    4707.3458 
   95400     289.0801    183.15726    274086.51   -77522.155    7363.1655   -84885.321    4709.2421 
   95450    290.37087    15.537901    274351.04   -77511.077    7396.0428    -84907.12    4717.3429 
   95500    285.58512   -180.94108    274747.78   -77486.363    7274.1449   -84760.508    4725.8423 
   95550    292.50694   -93.548947    274907.78   -77434.574    7450.4507   -84885.025    4729.8268 
   95600    284.50694    18.347975    274718.37   -77442.376    7246.6825   -84689.058    4725.4868 
   95650    287.95396   -65.276821     273979.5   -77409.857    7334.4817   -84744.339    4721.6534 
   95700    290.52796    357.02753    273688.53   -77412.472    7400.0439   -84812.516    4721.6046 
   95750    286.88826   0.55809615    274342.99   -77405.878     7307.337   -84713.215    4733.5119 
   95800    287.04735   -23.892478    275005.29   -77397.641    7311.3892   -84709.031    4742.0713 
   95850    281.55678   -118.71375    275150.88   -77377.567    7171.5388   -84549.106    4743.5906 
   95900    290.05625    -32.80086    274594.43   -77389.709    7388.0292   -84777.738    4738.8977 
   95950    288.33748    202.23465    274017.71   -77368.205    7344.2503   -84712.455    4732.0174 
   96000    291.67137   -197.74839    273867.82   -77368.109    7429.1677   -84797.277    4727.8438 
   96050     286.2583    3.9485543    273944.06   -77356.496    7291.2915   -84647.788    4734.1263 
   96100    286.94069   -58.594335    274219.96   -77422.244    7308.6725   -84730.916    4737.2517 
   96150    286.92853    220.90555    274361.79   -77437.147    7308.3628    -84745.51    4743.1783 
   96200    281.56878   -208.77789    274686.81    -77424.07    7171.8446   -84595.914    4750.5191 
   96250    290.15834   -301.47122    274728.92   -77444.451    7390.6296   -84835.081     4754.726 
   96300    290.49124   -58.304789    274459.39   -77416.564    7399.1088   -84815.673    4756.5666 
   96350    284.01145    573.58743     274189.9   -77432.961    7234.0619   -84667.023     4758.123 
   96400     287.7114   -106.40158    274337.98   -77462.025    7328.3035   -84790.328    4761.6936 
   96450    286.61582   -44.764504    274552.88   -77431.345    7300.3979   -84731.743    4766.7885 
   96500    286.72376   -53.116511    274769.56   -77411.025    7303.1472   -84714.173    4771.4936 
   96550    284.34492    6.8337032    274632.37   -77437.082    7242.5556   -84679.638    4774.8787 
   96600    284.02379    40.083107    274241.95   -77499.922    7234.3761   -84734.298    4772.5409 
   96650    289.87247    290.62936    273757.03   -77530.956    7383.3479   -84914.304    4768.7749 
   96700    285.93589   -9.6950432    273895.16   -77539.814    7283.0794   -84822.893    4775.7717 
   96750    281.25188    214.10261    274483.39   -77573.746    7163.7728   -84737.518    4786.6546 
   96800    281.02005   -478.70591    275216.03   -77587.833    7157.8678   -84745.701    4796.6918 
   96850    282.40246     46.15875    274861.93   -77576.634    7193.0792   -84769.714    4796.7679 
   96900     284.1128    29.238042     274081.8   -77556.547    7236.6434    -84793.19    4787.6688 
   96950    286.54444    -36.70479    273684.35   -77552.774    7298.5798   -84851.354    4784.0245 
   97000    291.47421    65.920732    273836.36   -77476.462     7424.146   -84900.608    4784.9569 
   97050    282.95811   -140.44286    274335.23   -77467.048    7207.2322    -84674.28    4794.2048 
   97100    286.30102   -250.22143    274825.11   -77474.107    7292.3795   -84766.487    4799.8834 
   97150     282.1999   -252.03207    274833.76   -77501.201    7187.9198    -84689.12    4797.9061 
   97200    282.10012   -167.29222    274439.04   -77473.653    7185.3783   -84659.031    4794.2266 
   97250    288.77287    182.12173    274047.05   -77472.498      7355.34   -84827.838    4792.3158 
   97300    285.72852    210.83531     273731.1   -77422.261    7277.7975   -84700.059    4786.9757 
   97350    285.65137    136.04339    273814.52   -77381.826    7275.8323   -84657.658    4789.5734 
   97400    284.71206   -172.04125    274491.55   -77361.623    7251.9072    -84613.53    4797.8868 
   97450    282.38002   -42.532293    275037.08    -77349.04    7192.5076   -84541.548    4803.8908 
   97500    289.87943   -554.66839    275200.36   -77366.361    7383.5254   -84749.887    4805.4306 
   97550    288.11743     35.32565    274466.02   -77358.213    7338.6454   -84696.858    4797.7107 
   97600    287.18281    195.88718    273819.76   -77343.461    7314.8397   -84658.301    4792.0155 
   97650    290.76506    187.07056    274046.06   -77329.626    7406.0833   -84735.709    4797.5897 
   97700    285.29393   -219.21438    274832.47    -77325.39    7266.7278   -84592.117    4808.4922 
   97750     290.6151   -189.23945    275150.16   -77319.341    7402.2636   -84721.604    4813.5366 
   97800    287.75171    207.86897    274862.55   -77340.793    7329.3302   -84670.123    4812.7291 
   97850    289.11218   -37.780288    274304.84   -77358.314    7363.9827   -84722.297    4807.2728 
   97900    288.69534  -0.61942447    274290.39    -77349.82    7353.3654   -84703.186    4808.3822 
   97950    291.27825   -389.63347    274340.05   -77340.719    7419.1548   -84759.873     4812.506 
   98000    289.65221    42.171849    274107.59   -77322.181    7377.7379   -84699.919    4814.7268 
   98050    288.02428   -57.234726    274247.18   -77341.712    7336.2728   -84677.985    4818.3256 
   98100    289.16597    46.053705    274484.76   -77340.957    7365.3528    -84706.31     4822.078 
   98150    290.32023   -62.260541    274756.42   -77366.652    7394.7529   -84761.405    4829.2282 
   98200    284.59249     106.2897    274604.44   -77337.362    7248.8615   -84586.224    4827.7979 
   98250    292.02631   -79.688042    274497.27     -77285.6    7438.2085   -84723.809    4832.1005 
   98300    288.26572   -20.556472    274279.69   -77281.412    7342.4226   -84623.834    4828.2881 
   98350    290.58392   -83.115701    274329.82   -77223.377    7401.4694   -84624.847    4828.0147 
   98400    287.18316   -172.88276    274623.13   -77251.604    7314.8486   -84566.453    4831.8623 
   98450    291.61068   -415.22662    274967.21   -77279.865    7427.6219   -84707.487    4838.5607 
   98500    287.00436    327.39397    274889.59   -77329.073    7310.2943   -84639.367    4840.9709 
   98550    289.04137   -76.620471    274880.07   -77320.835    7362.1791   -84683.014    4844.2472 
   98600    286.45878   -146.85982    274574.87   -77312.438    7296.3978   -84608.836    4844.9934 
   98650    287.86239    495.10815    273999.23   -77262.598    7332.1492   -84594.748     4841.355 
   98700    286.99868    46.847541    273694.32   -77280.988    7310.1497   -84591.138    4842.9828 
   98750     288.0204    124.99746    273771.37   -77252.401     7336.174   -84588.575    4848.7431 
   98800    290.09479    160.13225    274469.42   -77272.442    7389.0107   -84661.453    4859.9719 
   98850    286.40555   -211.92198    275326.58   -77284.524    7295.0421   -84579.566    4872.8584 
   98900     289.7373   -3.1453025    275281.76    -77287.87    7379.9052   -84667.776    4870.8323 
   98950    294.32005   -217.91754    274666.27   -77276.622    7496.6324   -84773.254    4868.4993 
   99000    285.81074    384.91719    274077.83   -77279.605    7279.8917   -84559.497    4863.8568 
   99050    283.73314    328.49375    273943.03   -77325.872     7226.973   -84552.845    4863.3791 
   99100    286.19447    298.99413    274363.52   -77284.365    7289.6656   -84574.031    4869.5416 
   99150    283.29453   -368.15183    275133.12    -77346.82    7215.8011   -84562.621    4881.8365 
   99200    281.29843     -55.0436    274884.45   -77404.446    7164.9585   -84569.405    4879.7975 
   99250    285.79796    147.06437    273972.43   -77442.426    7279.5661   -84721.992    4869.5874 
   99300    284.69158    376.00765    273424.74   -77457.982    7251.3854   -84709.367    4864.9175 
   99350      284.147    212.97433    273697.57   -77506.931    7237.5145   -84744.445    4871.6923 
   99400     281.8634    -23.85504    274365.01   -77545.929    7179.3489   -84725.278    4879.9196 
   99450    285.83843   -344.85925    274841.65   -77528.046    7280.5968   -84808.643    4887.6754 
   99500    289.69435   -131.90849    274712.97   -77528.367     7378.811   -84907.178    4886.2841 
   99550    286.22042    66.508576    274459.08   -77556.097    7290.3265   -84846.424    4884.5702 
   99600    285.85823   -103.22942     274257.1   -77565.815    7281.1013   -84846.916    4884.4166 
   99650    280.95559    150.25264    274005.77   -77503.503    7156.2261   -84659.729    4881.9344 
   99700     286.5016    -52.99961    274067.31   -77492.408    7297.4885   -84789.896    4883.2646 
   99750    286.63481   -10.828793     274475.8   -77467.425    7300.8815   -84768.307    4887.1667 
   99800    284.34511   -273.79013    274985.07   -77481.504    7242.5606   -84724.064    4895.4264 
   99850    285.40268    25.645611    274828.68   -77517.073     7269.498   -84786.571    4897.9284 
   99900    286.44938   -168.14182    274264.13   -77493.251    7296.1584   -84789.409    4893.5652 
   99950     289.5126    164.88386    273891.41   -77480.337    7374.1818   -84854.519    4891.4881 
  100000    278.90686    148.25212    274543.74   -77479.141    7104.0428   -84583.184    4900.1537 
Loop time of 256.588 on 6 procs for 100000 steps with 8546 atoms

Performance: 336.727 ns/day, 0.071 hours/ns, 389.730 timesteps/s
99.4% CPU use with 6 MPI tasks x no OpenMP threads

MPI task timing breakdown:
Section |  min time  |  avg time  |  max time  |%varavg| %total
---------------------------------------------------------------
Pair    | 71.858     | 131.06     | 201.94     | 467.5 | 51.08
Neigh   | 30.915     | 36.383     | 40.419     |  66.0 | 14.18
Comm    | 7.8273     | 82.757     | 147.47     | 628.4 | 32.25
Output  | 0.1449     | 0.1477     | 0.1597     |   1.4 |  0.06
Modify  | 5.1389     | 5.1857     | 5.2438     |   1.7 |  2.02
Other   |            | 1.058      |            |       |  0.41

Nlocal:        1424.33 ave        1449 max        1388 min
Histogram: 2 0 0 0 0 0 0 1 2 1
Nghost:        2072.67 ave        2098 max        2035 min
Histogram: 2 0 0 0 0 0 0 1 1 2
Neighs:        0.00000 ave           0 max           0 min
Histogram: 6 0 0 0 0 0 0 0 0 0
FullNghs:      39881.3 ave       40805 max       39322 min
Histogram: 1 2 1 0 0 0 0 1 0 1

Total # of neighbors = 239288
Ave neighs/atom = 28.000000
Neighbor list builds = 20824
Dangerous builds = 0

# Create data file for import to other simulations
#
write_data data.${NAME}
write_data data.coexist_287K_1atm_ML
System init for write_data ...

Total wall time: 0:04:16
