
# Set production fixes - Nose/Hoover
#
fix                 2 all nph iso ${PRES} ${PRES} ${PCOUPL}
fix                 2 all nph iso 1 ${PRES} ${PCOUPL}
fix                 2 all nph iso 1 1 ${PCOUPL}
fix                 2 all nph iso 1 1 10000.0
fix                 3 all temp/csvr ${TEMP} ${TEMP} ${TCOUPL} 837492
fix                 3 all temp/csvr 287 ${TEMP} ${TCOUPL} 837492
fix                 3 all temp/csvr 287 287 ${TCOUPL} 837492
fix                 3 all temp/csvr 287 287 5000.0 837492

# Define Order parameter
#
compute             2 all orientorder/atom nnn NULL cutoff 3.5
thermo              200
thermo_style        custom step temp press vol etotal ke pe c_1[4]

# Run 1ns simulation
dump		    1 all custom 400 prod.${NAME}.dump id type x y z vx vy vz c_2[*]
dump		    1 all custom 400 prod.ice_287K_1atm_ML.dump id type x y z vx vy vz c_2[*]
run                 200000
Neighbor list info ...
  update every 1 steps, delay 0 steps, check yes
  max neighbors/atom: 2000, page size: 100000
  master list distance cutoff = 6.0032907
  ghost atom cutoff = 6.0032907
  binsize = 3.0016454, bins = 20 17 17
  2 neighbor lists, perpetual/occasional/extra = 1 1 0
  (1) pair sw, perpetual
      attributes: full, newton on
      pair build: full/bin/atomonly
      stencil: full/bin/3d
      bin: standard
  (2) compute orientorder/atom, occasional, copy from (1)
      attributes: full, newton on
      pair build: copy
      stencil: none
      bin: none
Per MPI rank memory allocation (min/avg/max) = 5.820 | 5.820 | 5.820 Mbytes
Step Temp Press Volume TotEng KinEng PotEng c_1[4] 
       0    282.70225   -12.348018    148553.14   -47700.927    3882.2346   -51583.162   0.14359517 
     200    282.57142    18.677178    148564.66   -47690.302     3880.438    -51570.74   0.13794019 
     400    285.66731    -5.301504    148585.72   -47684.604    3922.9526   -51607.556   0.14138429 
     600    285.15113      49.4737    148547.57   -47722.803    3915.8641   -51638.667   0.13674285 
     800    286.11967    23.217221    148514.59   -47738.189    3929.1647   -51667.353   0.14140846 
    1000    285.42499   -33.153122    148551.93   -47751.415    3919.6249   -51671.039   0.14214518 
    1200    287.13455   -35.551928    148560.39   -47776.238    3943.1016   -51719.339   0.13839943 
    1400    289.45733    37.110477    148504.52   -47766.972    3974.9993   -51741.972   0.13426064 
    1600    282.51345    14.984872    148512.17   -47770.796     3879.642   -51650.438   0.13892258 
    1800    289.11056   -21.244467    148606.42   -47777.427    3970.2373   -51747.664   0.13594516 
    2000    284.56254   -4.3200534    148569.16   -47731.778    3907.7813   -51639.559   0.14314989 
    2200    289.13399    67.393112    148487.48   -47701.178    3970.5591   -51671.737   0.13669709 
    2400    288.99037    38.837454    148537.38   -47720.066    3968.5867   -51688.652   0.13484463 
    2600    283.33884   -39.037131    148608.54   -47763.724    3890.9767     -51654.7   0.13832899 
    2800    281.65001    5.1470974     148489.9   -47780.153    3867.7847   -51647.938   0.14054142 
    3000     288.2417    77.353519    148406.21    -47791.91    3958.3056   -51750.216   0.13749887 
    3200    284.21214   -75.817882    148568.94   -47738.835    3902.9693   -51641.805   0.14466687 
    3400    284.31406   -112.24146    148647.73   -47777.118    3904.3689   -51681.487   0.14181489 
    3600    282.24835    88.322271    148421.83    -47804.71    3876.0013   -51680.711   0.13467457 
    3800    286.43652    112.76452    148374.23   -47732.328    3933.5159   -51665.843   0.14098701 
    4000    283.32178   -140.57157    148687.55   -47726.287    3890.7424   -51617.029   0.14690853 
    4200    282.03549   -125.09192    148661.98   -47741.912    3873.0783    -51614.99    0.1441777 
    4400    282.57593    193.19479    148287.67   -47728.447       3880.5   -51608.947   0.14017237 
    4600    284.24907    81.549337    148421.98   -47708.832    3903.4764   -51612.309   0.13971135 
    4800    286.02671   -215.21564    148791.89   -47698.466    3927.8881   -51626.354   0.14401786 
    5000    287.64839    -15.99898    148538.66   -47678.225     3950.158   -51628.383   0.14250479 
    5200    287.06372    206.41711     148224.3   -47680.604    3942.1289   -51622.733   0.14450832 
    5400    288.63429   -39.338923    148593.29   -47642.647     3963.697   -51606.344   0.14720996 
    5600    288.29059   -251.58625    148852.45   -47625.553     3958.977    -51584.53   0.14184693 
    5800    289.34042     97.38906    148385.23   -47615.009    3973.3939   -51588.403   0.14318792 
    6000    291.84564     264.1204    148222.66   -47600.939    4007.7971   -51608.737   0.14363868 
    6200    289.29981   -184.30882    148762.28   -47595.142    3972.8362   -51567.978   0.14716202 
    6400    294.17297   -200.40911    148819.05   -47563.262    4039.7574   -51603.019   0.14787123 
    6600    289.33061    225.31153    148266.97   -47601.891    3973.2591   -51575.151    0.1424292 
    6800    287.94176    139.89191    148331.72    -47641.92    3954.1866   -51596.106   0.14523826 
    7000    288.64742   -247.51224    148833.97   -47644.173    3963.8772    -51608.05   0.14440349 
    7200    286.74258   -96.037034    148633.51   -47591.914    3937.7188   -51529.633   0.14803436 
    7400     293.1797    271.27488    148210.76   -47577.148    4026.1172   -51603.265   0.14784369 
    7600    294.29676    54.407873    148535.55   -47611.757    4041.4573   -51653.215   0.14083776 
    7800    286.42063   -283.40454    148863.57   -47638.824    3933.2976   -51572.122   0.14957538 
    8000    286.57509    60.830144    148470.73   -47605.062    3935.4187   -51540.481    0.1434646 
    8200    287.97228    233.94547    148240.76   -47640.947    3954.6058   -51595.552   0.14399278 
    8400    286.73839   -160.11198    148662.56   -47667.833    3937.6612   -51605.495   0.14995445 
    8600    286.44044   -188.69289    148751.19    -47626.44    3933.5696    -51560.01   0.14610785 
    8800    291.24767    162.09436    148320.37   -47557.923    3999.5854   -51557.508    0.1452334 
    9000    296.26312    143.45148    148388.84   -47538.834    4068.4605   -51607.295   0.14464224 
    9200    292.12285   -184.29439     148820.6   -47522.214    4011.6039   -51533.818     0.146825 
    9400    290.21181   -57.669752    148627.24   -47570.006    3985.3603   -51555.367   0.15035735 
    9600    292.84339    232.63211    148231.34   -47560.252    4021.4988   -51581.751   0.14983526 
    9800    294.66917    32.017946    148533.22   -47578.277    4046.5715   -51624.849   0.14887406 
   10000    292.82217   -199.29401    148851.05   -47572.915    4021.2074   -51594.122   0.14395097 
   10200    290.64778    64.261731    148471.16   -47565.744    3991.3473   -51557.091   0.14390806 
   10400    289.61356    247.78857    148275.18   -47551.977    3977.1448   -51529.122   0.14882984 
   10600    287.11954   -165.47304    148755.01    -47535.16    3942.8954   -51478.056   0.15566511 
   10800    291.92192   -207.46875    148853.15    -47566.68    4008.8445   -51575.524    0.1475502 
   11000    289.15862     181.3682    148287.77   -47608.285    3970.8974   -51579.183   0.14334547 
   11200    290.90827    217.99058    148310.62   -47626.135    3994.9246    -51621.06   0.14103312 
   11400    286.77718   -238.58508    148888.41   -47651.401     3938.194   -51589.595    0.1457389 
   11600    288.03474   -139.69266    148701.76   -47623.523    3955.4636   -51578.987   0.14491589 
   11800     284.1576    297.94918    148112.23   -47695.364    3902.2203   -51597.584   0.14473236 
   12000    291.00054    84.066374    148409.89   -47697.692    3996.1917   -51693.883   0.13924858 
   12200    288.06616   -329.77605    148941.61   -47675.158     3955.895   -51631.053   0.14587213 
   12400      289.333   -9.2255263    148529.77   -47643.684     3973.292   -51616.976   0.14408695 
   12600    289.43509    323.98338     148075.6   -47653.252    3974.6939   -51627.946   0.14854645 
   12800    287.69217   -92.680018    148598.14   -47664.563    3950.7591   -51615.322   0.15029716 
   13000    288.87614   -354.66273    148950.73   -47643.942    3967.0182    -51610.96   0.14872141 
   13200    290.03348    147.99009    148313.58   -47616.775    3982.9114   -51599.686   0.14783573 
   13400    288.20029    318.32797    148131.02    -47636.26    3957.7369   -51593.997   0.14352597 
   13600    285.30531   -244.11541    148845.41   -47627.531    3917.9813   -51545.512   0.15363041 
   13800    286.72921   -271.17319     148863.4   -47620.849    3937.5352   -51558.384    0.1528697 
   14000    290.55461    282.41538    148148.62   -47641.955    3990.0679   -51632.023   0.14740147 
   14200    286.50352    167.61582    148304.86   -47669.198    3934.4359   -51603.634   0.15070321 
   14400    286.68364   -320.79825     148921.1   -47692.217    3936.9095   -51629.127   0.14510759 
   14600    289.52907   -7.4462317    148573.69   -47687.935    3975.9846   -51663.919   0.14002409 
   14800    287.43828    308.46508    148098.03   -47669.867    3947.2725   -51617.139   0.14534119 
   15000    284.18643    -48.36248    148494.96   -47722.834    3902.6163    -51625.45   0.15042884 
   15200      279.463   -292.67531    148785.65   -47773.224    3837.7514   -51610.975   0.15211004 
   15400    283.07238    102.82674    148327.72   -47789.432    3887.3174   -51676.749   0.14045916 
   15600    285.57867    238.33919    148141.82    -47825.28    3921.7353   -51747.016   0.13870019 
   15800     284.6214   -120.41245    148603.65   -47778.305    3908.5895   -51686.895   0.14573309 
   16000    284.20839   -162.77187    148694.91   -47764.246    3902.9178   -51667.164   0.14553263 
   16200    284.15247    94.265595    148282.12   -47712.559    3902.1498   -51614.709   0.15286891 
   16400    287.81273    130.60137    148299.36   -47709.598    3952.4148   -51662.013   0.14831471 
   16600    281.36195   -173.62059    148686.53   -47725.767    3863.8289   -51589.596   0.14869868 
   16800    287.64196   -109.42307    148599.69    -47680.58    3950.0696    -51630.65   0.14215065 
   17000    287.33237     125.6511    148297.45    -47703.84    3945.8182   -51649.658   0.14505277 
   17200     291.5361    75.718383    148441.69   -47687.867    4003.5462   -51691.413   0.14797289 
   17400    281.04857   -156.54088    148691.64   -47731.447    3859.5253   -51590.972    0.1463206 
   17600     284.6012    9.4648895     148488.5   -47769.021    3908.3122   -51677.333   0.14102075 
   17800    282.23537    119.71394       148302   -47787.266    3875.8232   -51663.089   0.14426594 
   18000    282.31969   -45.520945    148522.59   -47821.292     3876.981   -51698.273   0.14554765 
   18200    285.78505   -106.73016    148639.31   -47845.948    3924.5695   -51770.518   0.14345333 
   18400    279.13477    28.065365    148399.45   -47865.762    3833.2438   -51699.006   0.14735801 
   18600    278.91503    139.57037    148323.54   -47823.098    3830.2263   -51653.325   0.14213405 
   18800    288.61241   -39.612222    148595.62   -47759.558    3963.3965   -51722.954   0.13868633 
   19000     281.8356   -137.97798    148659.03   -47787.209    3870.3332   -51657.542   0.14246184 
   19200    287.37289    68.677807    148390.43   -47761.797    3946.3747   -51708.172   0.14138963 
   19400    292.32527    80.824276    148390.69    -47753.34    4014.3836   -51767.723   0.14250723 
   19600    281.65694   -132.36319     148656.3   -47780.158    3867.8797   -51648.038   0.14335881 
   19800    279.14585   -41.259532    148607.97   -47777.898     3833.396   -51611.294   0.14381581 
   20000    281.56633     113.8116    148374.77   -47767.684    3866.6355    -51634.32   0.14159754 
   20200    285.15915    39.258738    148467.77   -47795.281    3915.9743   -51711.256   0.14006991 
   20400    284.79544    -98.66968    148668.13   -47774.467    3910.9795   -51685.447    0.1400765 
   20600    281.66215    -49.44133    148550.14    -47770.41    3867.9514   -51638.361   0.14252731 
   20800    282.43961    90.404621    148361.89   -47772.668    3878.6279   -51651.296   0.14559381 
   21000    283.97883    8.8053988    148509.53   -47768.443    3899.7653   -51668.208   0.14176058 
   21200    286.79688   -115.24404    148679.57   -47757.476    3938.4645    -51695.94   0.13809736 
   21400     289.3242    43.537746    148517.14   -47754.471    3973.1712   -51727.642   0.13469827 
   21600    285.95431     86.01532    148392.45     -47710.9    3926.8938   -51637.794   0.14652546 
   21800    288.91379   -22.666571    148580.02   -47662.166    3967.5352   -51629.701    0.1425644 
   22000    288.75746   -111.29025    148701.96   -47668.731    3965.3883    -51634.12   0.14093616 
   22200    288.21154    47.793771     148503.3   -47628.032    3957.8915   -51585.924   0.14186716 
   22400    285.01407     62.71567    148423.62   -47605.861    3913.9819   -51519.843   0.14926724 
   22600    293.36448   -72.267541       148701   -47613.832    4028.6547   -51642.486   0.14089659 
   22800    288.59239   -154.47387    148733.99   -47649.145    3963.1215   -51612.267   0.14666463 
   23000    291.02235    179.13827    148260.18   -47666.601    3996.4911   -51663.092   0.14666245 
   23200    287.08368    148.16589    148319.87   -47660.803     3942.403   -51603.206   0.14291761 
   23400    284.71952   -335.92223    148897.33   -47668.201     3909.937   -51578.138    0.1462754 
   23600    285.49277   -64.703982    148637.05   -47684.277    3920.5557   -51604.833   0.14267552 
   23800    289.21421    378.88783    148024.41   -47622.683    3971.6607   -51594.344   0.14544028 
   24000    285.33413    20.552276    148448.46   -47661.601    3918.3772   -51579.978   0.14713832 
   24200    290.53455   -400.10833       149025   -47643.116    3989.7925   -51632.908   0.14719931 
   24400    287.57488    21.347191    148445.59   -47648.523    3949.1484   -51597.671   0.14534682 
   24600     288.2212    421.15224    147974.38   -47647.171    3958.0241   -51605.195   0.14781221 
   24800    287.61712   -106.63986    148680.84    -47572.85    3949.7285   -51522.578   0.15032363 
   25000    292.52068   -370.34494    149030.61   -47570.312    4017.0671   -51587.379   0.14725492 
   25200    289.31545    175.67478    148266.12   -47595.235    3973.0509   -51568.286   0.15002344 
   25400    289.01867    302.72684    148072.59   -47657.055    3968.9754   -51626.031   0.14871973 
   25600    288.05916   -270.28541    148801.69   -47680.289    3955.7989   -51636.088   0.14832904 
   25800    287.23532   -224.87475    148808.58   -47655.704    3944.4855    -51600.19   0.14158767 
   26000    292.98293    253.22508    148169.64   -47635.283    4023.4151   -51658.698   0.14288804 
   26200    286.66669    150.72931    148315.69   -47681.818    3936.6766   -51618.494   0.14769482 
   26400    289.21105   -256.66459    148849.92   -47704.872    3971.6174   -51676.489   0.14519983 
   26600     283.1692   -70.726044    148616.68   -47713.612    3888.6471   -51602.259    0.1464386 
   26800    284.93019    241.56309    148227.65   -47718.736      3912.83   -51631.566   0.14283447 
   27000    287.84146   -37.870688    148556.84   -47720.665    3952.8093   -51673.474   0.14554979 
   27200    287.09077   -201.91999    148830.79    -47713.53    3942.5004   -51656.031   0.14150136 
   27400    287.44623    64.386556    148465.53   -47680.405    3947.3817   -51627.786   0.14026564 
   27600    291.01324    172.31593    148320.03   -47685.271     3996.366   -51681.637   0.14068941 
   27800    287.02141   -104.15883    148690.48   -47681.371    3941.5478   -51622.918   0.14056262 
   28000    287.70521   -92.611774     148724.5   -47668.269    3950.9382   -51619.208   0.13862894 
   28200    289.61187    169.10306    148351.59   -47688.134    3977.1217   -51665.256   0.14077388 
   28400    284.78243    125.58687    148404.74   -47683.038    3910.8009   -51593.839    0.1418596 
   28600    289.66238   -135.31068    148739.42   -47703.909    3977.8153   -51681.725   0.14151146 
   28800    282.29851   -100.53585    148595.83   -47714.252    3876.6903   -51590.942   0.14850224 
   29000    288.75217    166.94807    148253.95   -47750.447    3965.3156   -51715.762   0.14198654 
   29200    287.12919    58.855641    148427.06   -47786.204     3943.028   -51729.232   0.13910628 
   29400    282.68081   -162.12058    148689.76   -47785.088    3881.9401   -51667.028   0.14150749 
   29600    284.97146   -22.246847    148490.66   -47746.784    3913.3968   -51660.181   0.14395675 
   29800    287.26676    155.48024    148272.57   -47669.486    3944.9172   -51614.403   0.14696249 
   30000    286.58039    -20.29811    148516.85   -47659.778    3935.4915   -51595.269   0.14486841 
   30200    288.20982   -157.73491    148699.25    -47667.98    3957.8679   -51625.848   0.14681315 
   30400    286.74263   -3.2929342    148426.85   -47720.022    3937.7196   -51657.742   0.14622505 
   30600    290.35576    171.83423    148277.36   -47667.449    3987.3372   -51654.786   0.14439181 
   30800    282.52246   -75.783155    148563.17   -47634.954    3879.7656    -51514.72    0.1532718 
   31000    295.55006   -105.95106    148676.98   -47623.162    4058.6684   -51681.831   0.14807303 
   31200    288.51636    79.751436     148417.8   -47625.252    3962.0774   -51587.329   0.14887487 
   31400     289.4901    115.77974    148360.33   -47623.057    3975.4494   -51598.507   0.14690941 
   31600    284.06162   -112.98432    148620.93   -47683.403    3900.9023   -51584.305    0.1466094 
   31800    285.92409   -47.962949    148596.39   -47655.943    3926.4789   -51582.422   0.14281166 
   32000    286.38227    50.627631    148408.06   -47626.738    3932.7708   -51559.509    0.1522474 
   32200    286.82903    37.103983    148444.23   -47660.787     3938.906   -51599.693   0.14693382 
   32400    283.30671   -41.240421    148594.96   -47653.614    3890.5355   -51544.149   0.14573029 
   32600      286.615   -38.528669    148560.85   -47640.024    3935.9669   -51575.991   0.14622032 
   32800    288.76695    33.703754     148439.7   -47637.298    3965.5186   -51602.817   0.14770289 
   33000    288.69469    23.729974     148502.8   -47626.597    3964.5263   -51591.124   0.14775708 
   33200    290.68404   -69.495704    148632.67   -47620.664    3991.8453   -51612.509   0.14782398 
   33400    287.99005    23.597541    148573.74   -47580.766    3954.8498   -51535.615   0.14717311 
   33600     294.7946    69.943145    148531.83   -47513.684    4048.2939   -51561.978   0.14457214 
   33800    289.97821   -23.780554    148621.47   -47547.909    3982.1524   -51530.061   0.14732996 
   34000    291.70498   -32.610819     148589.3   -47569.145    4005.8654   -51575.011    0.1456695 
   34200    285.39774    35.918056    148461.94   -47600.226    3919.2507   -51519.477   0.15287821 
   34400    290.00765    47.240251    148473.56   -47666.346    3982.5567   -51648.902   0.14658005 
   34600    288.92454   -40.468547    148594.41   -47640.398    3967.6828   -51608.081   0.14616332 
   34800    292.56442   -19.447434    148567.01   -47681.067    4017.6678   -51698.735   0.14211245 
   35000    286.00802    54.408566    148431.86   -47706.114    3927.6314   -51633.745   0.14555341 
   35200     287.5219    26.838771    148502.97   -47695.166     3948.421   -51643.587   0.14578562 
   35400    293.16924   -50.616884     148625.8   -47657.955    4025.9735   -51683.928    0.1429409 
   35600    288.25103   -22.325371    148552.95   -47651.912    3958.4338   -51610.346   0.14261044 
   35800    288.50664    99.732996    148452.43    -47652.63    3961.9439   -51614.574   0.14118663 
   36000    293.44005   -7.0310097    148554.94    -47654.81    4029.6925   -51684.503   0.14376741 
   36200     288.0807   -48.084879    148599.86   -47668.951    3956.0947   -51625.046   0.14687222 
   36400    284.98927    38.224292    148474.35    -47695.66    3913.6413   -51609.301   0.14560178 
   36600    285.82253     63.07073    148482.59   -47670.567    3925.0842   -51595.651   0.14234772 
   36800     288.0067   -78.798713    148601.44   -47715.708    3955.0785   -51670.786    0.1426504 
   37000    283.12567    -18.09708    148531.48    -47703.75    3888.0493   -51591.799   0.14578544 
   37200    280.90658    46.744915    148430.12   -47666.167    3857.5754   -51523.742     0.146716 
   37400    289.07139   -2.8546025    148559.23   -47659.636    3969.6994   -51629.335     0.145518 
   37600    289.04053   -80.884215    148644.19   -47686.572    3969.2757   -51655.848    0.1411131 
   37800    286.83837    55.549218    148457.11   -47651.787    3939.0343   -51590.821   0.14180675 
   38000    284.82155    41.526074    148421.35   -47705.284    3911.3382   -51616.622   0.14181151 
   38200     287.5795   -65.058718    148628.86   -47699.572     3949.212   -51648.784   0.14016681 
   38400    285.67816   -40.299026    148604.58    -47665.27    3923.1016   -51588.371   0.14395193 
   38600    284.74735    89.910371    148376.17   -47662.178    3910.3192   -51572.497   0.14465847 
   38800    283.70954    42.560175    148445.73   -47713.019    3896.0673   -51609.087   0.14557062 
   39000    283.41357   -140.09272    148683.11   -47738.858    3892.0029   -51630.861   0.14226118 
   39200     287.3522   0.35262456    148520.65   -47759.394    3946.0905   -51705.485   0.13863418 
   39400    282.69697    203.61886    148267.38   -47749.707    3882.1621   -51631.869   0.14241192 
   39600    283.41178   -23.909269     148551.7   -47820.973    3891.9783   -51712.951   0.13972931 
   39800    279.64529    -253.6506    148822.79    -47808.36    3840.2546   -51648.615   0.14162003 
   40000    284.82895    98.578395    148405.28   -47820.744    3911.4398   -51732.184   0.13427838 
   40200    286.45088    269.26017    148170.37   -47797.084     3933.713   -51730.797   0.13807798 
   40400    280.99584    -136.0155    148718.35   -47790.945    3858.8012   -51649.746     0.139748 
   40600    281.60927   -249.76987    148846.26   -47818.844    3867.2251   -51686.069   0.13860564 
   40800    284.16862    292.92198       148185   -47837.589    3902.3716    -51739.96   0.13734493 
   41000    285.46853    223.42476    148231.51   -47795.186    3920.2228   -51715.409   0.13781713 
   41200    281.20964    -303.1949    148946.73   -47826.833    3861.7372    -51688.57    0.1337577 
   41400    283.44896   -174.60725    148735.94   -47792.097    3892.4888   -51684.586   0.14039908 
   41600    279.99118    360.43855    148057.97   -47785.989    3845.0046   -51630.994   0.14349644 
   41800    282.60261    49.885899    148432.65   -47788.483    3880.8663    -51669.35   0.14376851 
   42000    281.36037   -361.45147    149023.64   -47758.716    3863.8071   -51622.523   0.14037795 
   42200    282.79423    20.600623    148519.28       -47785    3883.4978   -51668.498   0.13484985 
   42400    284.94261     401.3388    148043.24   -47835.324    3913.0005   -51748.325   0.13304687 
   42600    279.52124   -138.83591     148654.3   -47862.768    3838.5511   -51701.319   0.13880157 
   42800     285.0957   -326.20851    148942.73   -47862.546    3915.1029   -51777.649   0.14034683 
   43000    282.83621    181.74308    148283.04   -47816.945    3884.0742   -51701.019   0.13880441 
   43200    282.46569    265.21697    148154.26   -47821.176     3878.986   -51700.162    0.1382313 
   43400    280.20377   -190.44207    148776.39   -47812.131    3847.9241   -51660.055    0.1402452 
   43600    279.06602   -195.83697    148749.35    -47806.62    3832.2997    -51638.92   0.14124445 
   43800    283.91947    227.39813    148200.57   -47780.828    3898.9501   -51679.778   0.14551563 
   44000    283.29374    135.47323    148355.27   -47800.437    3890.3574   -51690.794   0.14082119 
   44200    280.27292    -233.8851    148799.13   -47840.732    3848.8737   -51689.606   0.13824513 
   44400    280.51228   -47.346284    148526.94    -47815.16    3852.1607   -51667.321   0.13945499 
   44600    285.20792    213.09223    148162.67   -47752.846     3916.644    -51669.49   0.14234488 
   44800    291.45022    39.303848    148459.46    -47718.49    4002.3669   -51720.857   0.14053291 
   45000     285.8529   -196.03161    148744.07   -47753.791    3925.5012   -51679.292   0.14472577 
   45200    283.84894    21.331527     148417.6   -47773.199    3897.9816   -51671.181   0.14441834 
   45400     284.8749    182.31004    148229.03   -47821.669    3912.0708    -51733.74   0.13582581 
   45600    286.80779   -79.367429    148573.31   -47810.451    3938.6143   -51749.065   0.13809979 
   45800    285.55941   -133.08294    148680.62   -47783.718    3921.4709   -51705.189    0.1375443 
   46000    284.51405     123.9206    148336.22   -47779.814    3907.1153   -51686.929   0.14076732 
   46200    280.39939    117.32244    148319.58   -47813.088    3850.6104   -51663.698   0.14289521 
   46400    278.64164     -138.731    148665.14   -47794.855     3826.472   -51621.327   0.14452515 
   46600    285.36536   -57.132281    148598.64   -47791.501    3918.8061   -51710.307   0.13542679 
   46800    287.20914    155.29545    148276.13    -47756.55    3944.1259   -51700.676   0.13840982 
   47000    284.99802    25.475731    148419.49   -47736.189    3913.7615    -51649.95   0.14358561 
   47200    282.14076    -162.9032    148698.82   -47706.171    3874.5239   -51580.695   0.14958773 
   47400    290.55951   -1.7408041    148526.09   -47639.053    3990.1352   -51629.188   0.14630747 
   47600    287.84918    140.41608    148363.63    -47612.81    3952.9154   -51565.725   0.14272664 
   47800    286.94931   -33.368061    148623.08   -47582.473    3940.5578   -51523.031   0.14595876 
   48000    292.02314   -126.11338    148743.67   -47586.854    4010.2346   -51597.089   0.14129233 
   48200    293.61468    69.962452    148492.29   -47587.899    4032.0905   -51619.989   0.14705884 
   48400    289.95463    84.306695    148417.93   -47568.729    3981.8287   -51550.558   0.14835141 
   48600    281.98824   -122.54346    148639.93     -47632.5    3872.4295   -51504.929   0.14743593 
   48800    288.52419   -56.933907    148633.51   -47574.998    3962.1849   -51537.182   0.14578766 
   49000    295.55335    105.80508    148461.75   -47553.962    4058.7136   -51612.675   0.14015307 
   49200    290.37388    8.2070966    148549.11    -47588.74     3987.586   -51576.326   0.14623402 
   49400    288.88659   -104.51968    148705.29   -47599.268    3967.1616   -51566.429   0.14441671 
   49600    286.97553   -7.6604415    148580.37   -47617.068    3940.9179   -51557.986   0.14645036 
   49800    293.55844    98.209316    148495.19    -47598.58    4031.3182   -51629.899   0.13890324 
   50000    289.31703   -42.908827    148651.66   -47599.188    3973.0727   -51572.261   0.14006264 
   50200    290.80939   -90.527859    148659.75   -47636.234    3993.5667   -51629.801   0.14217968 
   50400    286.94662    76.699602    148471.01   -47639.723    3940.5209   -51580.244   0.14549141 
   50600    292.48912    47.010611    148501.96   -47662.147    4016.6337   -51678.781   0.14388748 
   50800    287.37277   -61.596136    148618.02   -47671.565     3946.373   -51617.938   0.14038533 
   51000    292.16356    6.0757262    148557.96   -47608.264     4012.163   -51620.427   0.14193535 
   51200    287.70503     40.80846    148493.03   -47638.912    3950.9357   -51589.848   0.14000599 
   51400    292.10335   -11.583835    148575.57   -47602.848     4011.336   -51614.184   0.14540303 
   51600    290.04857   -87.731992    148637.48   -47603.788    3983.1186   -51586.906   0.14899635 
   51800     289.8063    12.348601    148543.74   -47600.198    3979.7917    -51579.99   0.14332429 
   52000    291.88239    106.96949    148508.23   -47561.199    4008.3018   -51569.501   0.14440878 
   52200    287.08334   -46.970349    148616.89   -47533.578    3942.3983   -51475.976    0.1479257 
   52400    291.39872   -24.486546    148627.69   -47515.473    4001.6597   -51517.133    0.1526472 
   52600     296.5904    40.803532    148561.92   -47553.955     4072.955    -51626.91   0.14388897 
   52800    290.51216   -16.265629    148578.13   -47572.931    3989.4849   -51562.416   0.14844996 
   53000    290.46664   -51.035317    148595.51    -47578.52    3988.8598    -51567.38   0.14985755 
   53200    291.79373    39.655184    148521.47   -47586.464    4007.0842   -51593.548   0.14082242 
   53400    286.99431    46.519558    148505.12   -47614.152    3941.1757   -51555.328   0.14261543 
   53600    286.18206   -65.597517    148583.77   -47641.238    3930.0214   -51571.259   0.14922979 
   53800    290.48583   -31.939167    148564.26   -47617.527    3989.1233    -51606.65   0.14830956 
   54000     293.5056    58.874578    148491.12   -47609.036    4030.5926   -51639.629   0.14302266 
   54200    290.57577    10.617261    148557.37   -47615.914    3990.3584   -51606.273    0.1435553 
   54400     288.9991   -29.585346    148575.99   -47641.521    3968.7067   -51610.227   0.14778418 
   54600     289.1915    78.555983    148451.32   -47634.798    3971.3488   -51606.147   0.14628119 
   54800    288.34071     36.02433    148467.09   -47580.228    3959.6652   -51539.893   0.15137785 
   55000    287.58742   -88.781801    148638.24   -47582.192    3949.3207   -51531.513   0.15305229 
   55200     289.4385    -6.928011    148585.39   -47611.746    3974.7408   -51586.487   0.14271235 
   55400    287.32458    97.568815    148433.89   -47635.267    3945.7111   -51580.978   0.14050583 
   55600     286.4302    11.776963     148534.5   -47671.117     3933.429   -51604.546   0.14125479 
   55800    285.92888     -99.7346    148691.65   -47643.905    3926.5446   -51570.449   0.14575105 
   56000    288.70411    33.092887    148560.52   -47629.754    3964.6558    -51594.41   0.14892094 
   56200    288.58567    118.72423    148367.62    -47663.74    3963.0292   -51626.769   0.14632395 
   56400     286.4425   -51.901944    148551.98   -47666.362     3933.598    -51599.96   0.15208542 
   56600    283.11016   -159.77184    148699.69   -47668.928    3887.8363   -51556.764   0.14852601 
   56800    289.45291    70.005619    148425.48   -47619.474    3974.9387   -51594.413   0.14689145 
   57000    286.84455    164.47716    148356.97   -47626.331    3939.1191    -51565.45   0.14351663 
   57200    287.31251   -151.20091    148729.95   -47656.872    3945.5455   -51602.417   0.14190475 
   57400    286.97474   -124.04907     148676.8   -47674.995     3940.907   -51615.902   0.14464937 
   57600    287.05964    222.77146    148234.99   -47664.153    3942.0728   -51606.226   0.13720383 
   57800    284.31994    76.920321    148400.27    -47677.46    3904.4497    -51581.91   0.14245733 
   58000      287.545   -230.19095    148836.83   -47689.723    3948.7382   -51638.462   0.14216588 
   58200    285.44746   -32.644983    148551.75   -47729.002    3919.9335   -51648.936   0.14425931 
   58400    284.85443    296.51966    148123.67   -47721.168    3911.7896   -51632.958   0.14676193 
   58600    288.01585   -55.448071    148560.21   -47701.455    3955.2042    -51656.66   0.14257368 
   58800    281.23741   -314.78814    148901.22   -47730.478    3862.1186   -51592.596   0.14557683 
   59000     287.1647    130.45888    148327.69   -47755.911    3943.5156   -51699.427   0.13798474 
   59200    283.82278    285.94197    148107.88   -47755.088    3897.6224   -51652.711   0.14375354 
   59400    290.74103   -184.72457    148781.88   -47699.508     3992.628   -51692.136   0.14032412 
   59600    287.65165   -261.04222    148870.45   -47693.822    3950.2027   -51644.024   0.13905493 
   59800    288.82859    281.20948    148145.21   -47679.693    3966.3652   -51646.059   0.14280745 
   60000    286.69375    231.43999     148241.3   -47667.738    3937.0483   -51604.786   0.14194437 
   60200    291.82812   -320.90976    148980.63   -47640.734    4007.5565   -51648.291    0.1441766 
   60400    288.32552   -165.84291    148748.27   -47608.907    3959.4567   -51568.364   0.15329946 
   60600    286.22234    316.93113    148107.66   -47649.348    3930.5746   -51579.922   0.15268891 
   60800    291.80954    50.120942    148466.51   -47591.215    4007.3013   -51598.517   0.14561676 
   61000    294.65703   -319.42318    148977.74   -47630.174    4046.4048   -51676.579   0.13886658 
   61200    296.69007    1.1526718    148539.59   -47635.435    4074.3237   -51709.759     0.141254 
   61400    293.02283    313.04273    148148.22   -47631.655    4023.9629   -51655.618    0.1417772 
   61600    285.06142   -53.693493    148622.32   -47623.413    3914.6321   -51538.045   0.14400798 
   61800    284.99973   -292.32318    148870.87   -47622.369    3913.7849   -51536.154   0.15009779 
   62000    286.54174    111.10258    148366.74   -47646.554    3934.9608   -51581.515   0.14506587 
   62200    289.70226    235.69856    148224.83    -47657.99    3978.3629   -51636.353   0.13931265 
   62400     285.3572   -169.78795    148719.44   -47618.373    3918.6939   -51537.067   0.14852205 
   62600    291.22403   -160.33033    148745.85    -47638.82    3999.2608    -51638.08   0.14659592 
   62800    291.69759    186.61696    148256.06   -47615.367     4005.764   -51621.131   0.14799339 
   63000    289.28652    128.12638    148356.81   -47583.873    3972.6537   -51556.527    0.1451145 
   63200    289.31425    -218.0812    148802.78   -47588.409    3973.0345   -51561.443   0.14427627 
   63400    290.56732   -55.008462     148629.1   -47544.833    3990.2424   -51535.076   0.14640401 
   63600    293.16984    181.86886    148303.26   -47524.975    4025.9818   -51550.957   0.14930598 
   63800    292.55118    16.770673    148528.03   -47554.234     4017.486    -51571.72   0.14593335 
   64000    290.22065   -159.98734    148750.66   -47547.068    3985.4817   -51532.549   0.14565272 
   64200    294.73173    61.923312    148494.96   -47548.967    4047.4306   -51596.398     0.140738 
   64400    290.02528    126.68146     148352.9   -47535.544    3982.7989   -51518.343   0.14537556 
   64600    287.21079   -76.881513     148638.5   -47591.207    3944.1486   -51535.356   0.15099581 
   64800    288.48366   -92.037755    148712.87   -47601.551    3961.6283    -51563.18   0.14755541 
   65000    291.62642    68.593945    148424.13   -47592.503    4004.7866   -51597.289   0.15108651 
   65200    292.64795    103.12152    148379.07   -47620.304    4018.8148   -51639.119   0.14166479 
   65400    290.75386   -79.076142    148633.98   -47644.727    3992.8041   -51637.531   0.13716172 
   65600    286.15278   -93.528434    148608.69   -47669.041    3929.6193   -51598.661    0.1438868 
   65800    290.78502    128.77403    148362.95   -47643.632     3993.232   -51636.864   0.14478298 
   66000     286.6692    63.516455    148456.84   -47642.595    3936.7111   -51579.307   0.14715299 
   66200    285.45445   -150.99387    148694.76   -47668.055    3920.0295   -51588.085   0.14048539 
   66400    289.77786    6.2973764    148523.08   -47662.657    3979.4011   -51642.058   0.13878797 
   66600    285.99914     164.5142    148313.94   -47675.578    3927.5095   -51603.088   0.14159616 
   66800    286.77187   -17.939785     148548.9   -47658.483     3938.121   -51596.604   0.14717736 
   67000    285.43059   -173.30624    148717.48   -47687.021    3919.7018   -51606.723   0.15391792 
   67200    287.47437    36.171726    148444.23   -47708.168    3947.7682   -51655.936   0.14358567 
   67400    285.97898    145.57133    148324.56   -47741.288    3927.2326   -51668.521    0.1378745 
   67600    290.33861     -78.9529    148624.36   -47697.986    3987.1016   -51685.087   0.13753209 
   67800    287.80674   -156.69717    148719.01   -47645.155    3952.3324   -51597.487   0.14775332 
   68000    289.41988     72.32512     148440.4   -47641.261    3974.4851   -51615.746   0.14819827 
   68200    289.81492    106.94477    148409.83   -47713.811      3979.91   -51693.721   0.14026951 
   68400    288.82532   -113.53928    148668.28   -47657.999    3966.3203   -51624.319   0.14264464 
   68600    290.07158   -93.005297    148654.38   -47643.452    3983.4347   -51626.887   0.13908326 
   68800    288.97535    102.45969    148412.96   -47610.327    3968.3806   -51578.708    0.1448966 
   69000     290.0464    26.834968    148507.36   -47656.197    3983.0888   -51639.286   0.14698717 
   69200    288.47814   -104.90688    148699.15   -47661.407    3961.5526    -51622.96   0.14959638 
   69400    286.04649   -27.507862    148529.58   -47700.567    3928.1597   -51628.727   0.14585013 
   69600    286.70353    119.10935    148379.51   -47713.444    3937.1826   -51650.626   0.13535882 
   69800    288.75947   -61.559475    148591.45   -47680.745    3965.4159   -51646.161   0.13875233 
   70000    287.88794   -116.50367    148702.86   -47640.235    3953.4476   -51593.683   0.14657942 
   70200    293.07437    105.43206    148460.21   -47623.035    4024.6708   -51647.705   0.14353336 
   70400    287.60289    108.86615    148414.74   -47638.272    3949.5331   -51587.805   0.14839868 
   70600    290.19266   -55.303691    148697.11   -47610.907    3985.0974   -51596.004   0.13813765 
   70800    289.09966   -171.61542    148719.11   -47635.598    3970.0877   -51605.685   0.14398296 
   71000    286.04696    82.556997     148382.2   -47679.613    3928.1662   -51607.779   0.14627038 
   71200    288.00932    126.39273    148337.86   -47687.638    3955.1145   -51642.752   0.14795645 
   71400    287.92289   -147.94427    148696.79   -47655.496    3953.9276   -51609.424   0.15232331 
   71600    292.69853   -103.05072    148723.41   -47633.553    4019.5095   -51653.063   0.13988688 
   71800    285.37444    151.61619    148340.38   -47652.821    3918.9308   -51571.752   0.14029928 
   72000     290.6252    130.30012    148367.19   -47679.055    3991.0373   -51670.092   0.13795664 
   72200     287.7813   -155.22448    148721.01   -47713.098    3951.9832   -51665.081   0.14128756 
   72400    286.52023   -96.567098    148609.15   -47694.432    3934.6653   -51629.097   0.14785069 
   72600    285.60374    178.42038    148291.88   -47661.473    3922.0796   -51583.552    0.1441553 
   72800    282.54538    4.3652858    148502.57   -47737.448    3880.0803   -51617.528   0.14010427 
   73000    280.58358   -198.94904    148776.07   -47733.835    3853.1398   -51586.975    0.1389684 
   73200    282.67894   -2.7993873    148452.88   -47746.917    3881.9145   -51628.832   0.14493924 
   73400    286.06546    229.76182    148181.37   -47742.261    3928.4202   -51670.681   0.14654784 
   73600    279.35434    -135.1798    148616.54   -47725.728    3836.2591   -51561.987   0.15351855 
   73800    283.51591   -247.52381    148793.37   -47719.321    3893.4083   -51612.729   0.14309758 
   74000     287.1304    219.67828     148241.2   -47766.157    3943.0446   -51709.202   0.13196931 
   74200    288.70225    248.79071    148194.57   -47762.485    3964.6302   -51727.115   0.13367825 
   74400    284.86626   -234.98787    148833.99   -47724.595     3911.952   -51636.547   0.14283743 
   74600    283.28026   -241.86044    148775.06   -47747.157    3890.1722   -51637.329   0.14635604 
   74800    284.01602    311.31167    148093.86   -47757.208    3900.2761   -51657.484   0.14132897 
   75000    286.49262    167.84443    148335.98   -47722.706    3934.2863   -51656.992    0.1368265 
   75200    285.23962     -379.743    149023.73   -47707.647    3917.0793   -51624.726   0.14030294 
   75400    287.17877   -84.493863    148629.24   -47695.714    3943.7089   -51639.423   0.14231977 
   75600    292.58575    413.37513    147999.32   -47674.801    4017.9606   -51692.762   0.14646475 
   75800    285.37565   -25.477641       148573   -47654.403    3918.9473    -51573.35    0.1494253 
   76000    287.37541   -395.44447    149081.83    -47638.48    3946.4093   -51584.889   0.14369322 
   76200    283.06755    108.33128    148418.82   -47664.048    3887.2512   -51551.299   0.14276818 
   76400    292.60703    366.63029    148055.24   -47635.244    4018.2529   -51653.497   0.14045525 
   76600    287.06474   -184.87893    148737.74   -47622.648     3942.143   -51564.791   0.15094773 
   76800    287.89083   -268.50753    148907.18   -47620.866    3953.4873   -51574.354   0.15029683 
   77000    288.56924    211.58278    148272.68   -47624.203    3962.8036   -51587.007   0.14432462 
   77200    289.53707    240.06328    148253.08    -47670.06    3976.0944   -51646.155   0.13885464 
   77400    289.38336    -189.2658    148774.64   -47660.257    3973.9835   -51634.241   0.14073035 
   77600    285.37087   -129.91758    148698.55   -47675.256    3918.8818   -51594.137   0.14614138 
   77800    285.71931     162.9108    148318.94   -47687.531    3923.6667   -51611.198   0.14970246 
   78000    282.97252    37.265151     148431.9   -47688.478    3885.9462   -51574.424   0.15021888 
   78200    287.58016   -83.376986    148696.43    -47682.16     3949.221   -51631.381   0.13654236 
   78400    285.07725   -15.176212    148572.14   -47702.315    3914.8495   -51617.164   0.13517767 
   78600    286.21842    103.28435    148370.13   -47720.283    3930.5208   -51650.804   0.13865713 
   78800    284.33257    21.703343    148508.36    -47706.32    3904.6231   -51610.944   0.14208187 
   79000    287.12085   -103.63711    148670.82   -47689.612    3942.9134   -51632.525   0.14735595 
   79200    282.49074   -30.781494    148560.92   -47699.881    3879.3301   -51579.211   0.14417475 
   79400    287.16329    114.80343    148437.22   -47654.572    3943.4963   -51598.069   0.14264242 
   79600    290.40576   -35.036055    148582.18   -47645.606    3988.0238    -51633.63   0.14228677 
   79800    289.76989   -52.005288     148659.8   -47670.423    3979.2916   -51649.714   0.14089735 
   80000    288.18157    3.3297151     148495.8   -47642.921    3957.4799   -51600.401   0.14998412 
   80200    289.42276     71.15056    148425.34   -47609.401    3974.5246   -51583.926   0.15152656 
   80400    293.67321   -61.798241    148637.12   -47579.433    4032.8944   -51612.327   0.14415148 
   80600    293.14005   -51.288863    148656.86   -47599.312    4025.5726   -51624.885    0.1385677 
   80800    290.59071    88.008544    148462.28   -47542.687    3990.5637   -51533.251   0.14341398 
   81000    288.89336    42.243227    148521.02   -47595.016    3967.2546    -51562.27   0.14992882 
   81200    291.46128   -90.352927    148742.63     -47574.8    4002.5188   -51577.318   0.14842986 
   81400    291.82973   -10.938447    148611.36   -47551.938    4007.5786   -51559.516   0.14779511 
   81600     289.0215    107.61421    148416.65    -47572.95    3969.0143   -51541.964   0.14977314 
   81800    290.48139   -26.854147     148582.1    -47578.02    3989.0624   -51567.082   0.14443836 
   82000    292.99166   -109.47517    148709.76   -47543.866    4023.5349   -51567.401   0.14004658 
   82200      293.269    37.293607    148499.85   -47589.167    4027.3435    -51616.51   0.14841608 
   82400    292.75632    101.45016    148435.88   -47590.666    4020.3031   -51610.969   0.14953044 
   82600    284.01568   -125.79631    148677.35   -47634.392    3900.2715   -51534.663   0.14890996 
   82800    286.98894   -37.413384    148663.49   -47673.604    3941.1021   -51614.706   0.13360714 
   83000    291.61273    132.82373    148392.53    -47657.48    4004.5987   -51662.079   0.14048878 
   83200     288.2981     67.50058    148456.28   -47677.894    3959.0801   -51636.974   0.14649035 
   83400    285.98203   -165.65436    148712.13   -47697.279    3927.2745   -51624.553    0.1529668 
   83600    286.80136   -24.874781    148565.56   -47712.919    3938.5261   -51651.445   0.14876841 
   83800    285.12401    183.47796    148319.07   -47662.945    3915.4917   -51578.436   0.14582121 
   84000    289.48695   -28.029101    148603.27   -47694.364    3975.4061    -51669.77    0.1376177 
   84200    283.42163   -180.39422    148808.65   -47680.353    3892.1136   -51572.467   0.14430838 
   84400    284.03875    90.944521    148436.41   -47683.202    3900.5882    -51583.79   0.15210154 
   84600    288.84207    253.39809    148291.82   -47680.764    3966.5503   -51647.315   0.14395213 
   84800    285.16376   -158.79639    148768.54   -47690.921    3916.0375   -51606.959   0.14826247 
   85000    285.23783   -211.11059    148832.84   -47653.513    3917.0547   -51570.568   0.14597343 
   85200    289.21023    194.95935    148292.95   -47623.067     3971.606   -51594.673      0.14353 
   85400    289.09525    171.84713    148353.11   -47610.417    3970.0271   -51580.444   0.14694601 
   85600     290.1821   -263.68214    148920.76   -47607.451    3984.9524   -51592.403   0.15178367 
   85800    284.61161   -122.55796    148695.54   -47619.705    3908.4551    -51528.16   0.15398021 
   86000    285.32588    350.59736    148114.19   -47572.955    3918.2638   -51491.219   0.14750608 
   86200     292.8829    42.843774    148492.12   -47585.157    4022.0413   -51607.199   0.14444747 
   86400    290.94814   -356.43188    149018.74   -47576.798    3995.4721    -51572.27   0.15023649 
   86600    298.05491    66.473898    148502.04   -47575.344    4093.0665   -51668.411   0.14961248 
   86800    291.22266    356.73743    148099.36   -47604.937     3999.242   -51604.179   0.15093331 
   87000    288.43522   -156.42597    148721.56   -47628.772    3960.9632   -51589.735   0.15027388 
   87200    290.84508   -323.01844     148968.3   -47597.777    3994.0569   -51591.833   0.14347001 
   87400    291.80319    239.00489    148277.86   -47561.109    4007.2142   -51568.323   0.14360241 
   87600    285.38274    252.62584    148193.49     -47627.7    3919.0447   -51546.745   0.15019798 
   87800    289.55511   -219.77607    148832.44   -47634.894    3976.3422   -51611.236   0.14855754 
   88000    289.06603   -173.77015    148774.81   -47586.223    3969.6258   -51555.849   0.15264143 
   88200    289.64058      240.555    148225.64   -47598.469    3977.5159   -51575.985   0.15106851 
   88400    290.30616    129.62147    148391.41   -47585.599     3986.656   -51572.255   0.14751098 
   88600    284.19058   -230.21539    148839.87   -47597.557    3902.6732    -51500.23   0.15376493 
   88800    288.67593   -49.427933    148601.87   -47588.303    3964.2688   -51552.572   0.15849702 
   89000    285.76339    224.95873    148264.61   -47608.319     3924.272   -51532.591   0.15469774 
   89200    289.17867    8.4778458    148503.86   -47583.168    3971.1727    -51554.34    0.1519807 
   89400     289.6547   -150.49038    148703.79   -47555.378    3977.7098   -51533.088    0.1427776 
   89600    291.25778     59.88072    148489.22    -47576.95    3999.7242   -51576.674   0.14557214 
   89800    292.52506    73.459772    148412.04   -47614.153    4017.1272   -51631.281   0.15419103 
   90000    288.87386   -59.015852    148590.97   -47629.762    3966.9868   -51596.749   0.15203193 
   90200    288.88387   -53.475002    148622.88   -47676.005    3967.1243   -51643.129   0.15189802 
   90400    285.98283     68.08343    148478.95   -47696.035    3927.2855    -51623.32   0.14032814 
   90600    288.91451    54.470611    148466.41   -47688.484     3967.545   -51656.029    0.1413902 
   90800    282.60837   -72.384044    148599.54   -47712.498    3880.9454   -51593.443   0.14810143 
   91000    287.86395   -29.315959    148532.07   -47712.926    3953.1182   -51666.044   0.14637512 
   91200    288.93875     92.66692    148386.71   -47726.871    3967.8779   -51694.749   0.14993859 
   91400    285.54432    1.8306334    148504.46   -47717.295    3921.2637   -51638.559   0.14481454 
   91600    287.53903    -71.66973    148634.74   -47721.819    3948.6562   -51670.476   0.13720127 
   91800     287.5688    8.0394904     148501.8   -47698.278    3949.0649   -51647.343   0.14426622 
   92000    284.14466    91.652784    148374.45   -47712.318    3902.0427   -51614.361   0.14661005 
   92200    285.13472 -0.037104267    148533.28   -47735.895    3915.6388   -51651.533   0.15125542 
   92400    283.12953   -98.437857    148647.48   -47715.534    3888.1022   -51603.636   0.15001809 
   92600    287.11369    44.808516    148486.47   -47771.438    3942.8151   -51714.253     0.138911 
   92800    283.85412    84.003458    148371.46   -47741.106    3898.0528   -51639.159   0.14700402 
   93000    285.32143   -45.534768    148547.34   -47670.022    3918.2027   -51588.224   0.15057895 
   93200    290.50459   -78.884572    148644.99   -47669.477    3989.3809   -51658.858    0.1505573 
   93400    288.53364    19.353667    148456.08   -47672.659    3962.3148   -51634.974   0.15179645 
   93600    290.09521    93.649594    148417.46   -47656.016    3983.7591   -51639.776   0.14344201 
   93800    290.47191   -80.849902    148661.33    -47647.08    3988.9322   -51636.012   0.13836673 
   94000    284.57296   -110.02828    148673.03   -47647.087    3907.9243   -51555.012   0.14511721 
   94200    288.47579    120.62412    148407.73   -47729.216    3961.5203   -51690.736   0.14276258 
   94400    291.89334    89.634685    148451.82   -47715.542    4008.4521   -51723.994   0.14261895 
   94600    288.55407   -148.51266    148733.85   -47712.867    3962.5953   -51675.463   0.14599676 
   94800     285.9709   -46.100488    148590.08   -47763.679    3927.1216     -51690.8   0.14004779 
   95000     285.8416    226.82735    148258.71   -47770.057    3925.3461   -51695.403   0.13363195 
   95200    282.08986    8.9507635    148496.96   -47775.612    3873.8249   -51649.437   0.13995267 
   95400    284.33049   -244.99228    148813.85   -47786.526    3904.5946    -51691.12   0.14642336 
   95600    283.52727    46.512502     148480.8   -47748.946    3893.5643    -51642.51   0.14745843 
   95800    285.16789    249.51734    148225.37   -47713.261    3916.0943   -51629.355   0.14366982 
   96000     286.6498   -95.650941    148695.77   -47705.956    3936.4447   -51642.401   0.13716816 
   96200    288.43867   -246.95871    148880.46   -47747.792    3961.0106   -51708.803   0.13948342 
   96400    285.27941      200.625    148263.22   -47740.419    3917.6257   -51658.045   0.14682783 
   96600    285.41478    255.88052    148200.36   -47752.695    3919.4847    -51672.18   0.15138122 
   96800     277.1669   -345.56825     148871.1   -47803.999    3806.2199   -51610.219    0.1555116 
   97000    288.10217   -158.06992    148717.47   -47787.722    3956.3895   -51744.111   0.14097523 
   97200    283.03856    377.43075    147991.61   -47773.228     3886.853   -51660.081   0.14307946 
   97400    286.76285    124.41123    148326.91   -47730.789    3937.9972   -51668.786   0.14813209 
   97600    287.92025   -402.07981    149057.13   -47701.321    3953.8913   -51655.213   0.15052241 
   97800    285.49806   -33.484832     148580.1   -47696.015    3920.6284   -51616.644   0.15171426 
   98000    288.02608    446.00439       147971   -47668.075    3955.3446   -51623.419   0.14552502 
   98200    289.64606   -43.962949    148628.04   -47681.737    3977.5911   -51659.328   0.13910317 
   98400    289.42624   -382.77652    149081.29   -47608.898    3974.5724    -51583.47      0.14209 
   98600    287.61115    122.56305    148365.31   -47656.598    3949.6465   -51606.245   0.14767654 
   98800    294.38137    333.22679    148090.91   -47620.803    4042.6193   -51663.422   0.15042949 
   99000    286.28173   -218.34386    148821.83   -47624.271    3931.3902   -51555.661    0.1485914 
   99200    288.21639   -277.28602    148922.26   -47686.996     3957.958   -51644.954   0.14081942 
   99400    286.07943     251.5107    148232.27    -47779.25    3928.6121   -51707.862   0.13962415 
   99600    280.94459    160.62804    148277.86   -47802.806    3858.0974   -51660.903    0.1421391 
   99800     279.5703   -249.53746    148846.01   -47774.114    3839.2249   -51613.339   0.14801175 
  100000    283.70162    -106.5603    148692.64   -47774.143    3895.9586   -51670.102   0.14349128 
  100200    292.68535    263.32934     148220.4   -47733.515    4019.3285   -51752.843   0.13974428 
  100400    286.76956    47.820208    148490.76   -47731.606    3938.0894   -51669.695   0.13853665 
  100600    286.45581   -260.12894    148882.81   -47679.785    3933.7807   -51613.565   0.14119444 
  100800    285.81537    19.112693    148534.94   -47708.804    3924.9859    -51633.79    0.1431265 
  101000    285.56277    276.79639    148214.79   -47691.827     3921.517   -51613.344   0.14677431 
  101200    287.21766   -100.54368    148651.84   -47672.803    3944.2429   -51617.046   0.14913098 
  101400    286.98646   -236.08115    148878.68   -47678.066    3941.0679   -51619.134   0.14332644 
  101600     279.8017    101.16694    148406.58   -47694.425    3842.4025   -51536.827   0.14400698 
  101800    285.56781    204.17602    148258.69   -47661.097    3921.5862   -51582.684   0.14697531 
  102000    288.05667   -133.32981    148747.57    -47663.45    3955.7647   -51619.215   0.14583662 
  102200    283.53487   -180.70821    148744.29   -47654.785    3893.6686   -51548.454   0.15101192 
  102400    291.08787    231.73747    148273.72   -47598.226    3997.3909   -51595.617   0.14536573 
  102600    287.95944    65.953444    148419.92   -47610.857    3954.4295   -51565.287   0.14570828 
  102800     289.8289   -190.06492    148822.45   -47621.948     3980.102    -51602.05   0.14320953 
  103000    288.35706   -51.155517    148591.02   -47615.681    3959.8898    -51575.57   0.14805347 
  103200    292.59669    171.29551     148308.3   -47596.886     4018.111   -51614.997   0.14932126 
  103400    286.26568   -55.920684    148611.45   -47625.169    3931.1698   -51556.339   0.14918968 
  103600    292.34726   -128.20375    148784.33    -47628.06    4014.6856   -51642.746   0.13957684 
  103800    288.02272    115.99023    148430.72   -47632.732    3955.2984   -51588.031   0.13888991 
  104000      289.825    136.15419    148334.67   -47641.517    3980.0485   -51621.566   0.13860796 
  104200    286.41244   -123.94215    148688.66    -47654.39    3933.1851   -51587.575   0.14364506 
  104400    288.35296   -92.509025    148684.84   -47670.342    3959.8336   -51630.175   0.14426466 
  104600    288.44492    137.91521    148329.56   -47666.399    3961.0963   -51627.496   0.14499919 
  104800     286.3694    122.67773    148417.96   -47656.094    3932.5941   -51588.688   0.14231038 
  105000    282.33883   -217.03331     148773.6   -47684.555     3877.244   -51561.799   0.14365878 
  105200     288.0841   -37.574329    148581.87   -47685.461    3956.1413   -51641.602   0.14358983 
  105400    283.80589    205.74532    148288.36   -47677.331    3897.3905   -51574.721    0.1472377 
  105600    285.32391   -45.827704    148560.47   -47675.884    3918.2369   -51594.121   0.14848786 
  105800    285.71698   -174.89936    148775.21   -47692.286    3923.6347    -51615.92   0.14267725 
  106000     288.8969    43.986166    148419.12   -47673.517    3967.3033   -51640.821   0.14498112 
  106200    288.45239    184.14943    148274.28   -47650.207    3961.1989   -51611.406    0.1448561 
  106400    286.94312   -152.58595    148702.74   -47661.819    3940.4728   -51602.291   0.14696052 
  106600    288.76488    -175.2659    148763.62   -47662.555    3965.4902   -51628.045   0.14581299 
  106800    288.01459    216.52465    148292.95   -47656.109    3955.1869   -51611.296   0.14349532 
  107000    290.31015    140.19128    148370.05    -47614.59    3986.7108     -51601.3   0.14638555 
  107200    287.35685   -272.66205    148910.32   -47602.078    3946.1544   -51548.233   0.14562108 
  107400    288.88346   -131.91636    148690.77   -47609.915    3967.1186   -51577.034   0.14606705 
  107600    288.57978    359.99907    148119.07   -47586.904    3962.9484   -51549.852   0.14464224 
  107800    290.28408     21.28257    148532.98   -47610.337    3986.3527    -51596.69   0.14434689 
  108000    290.72525   -385.71204    149073.85   -47585.373    3992.4112   -51577.784   0.14275664 
  108200    290.30718     87.40785    148461.43   -47620.303      3986.67   -51606.973   0.14195354 
  108400    289.01562    436.75873    148008.03   -47615.781    3968.9335   -51584.715   0.14037926 
  108600    288.72428   -174.17957    148825.04   -47589.627    3964.9327    -51554.56   0.14502834 
  108800    287.07721   -418.36081    149134.81   -47609.389    3942.3141   -51551.703    0.1489722 
  109000    292.04973    308.83172    148159.93   -47648.402    4010.5998   -51659.002   0.14276302 
  109200    289.61761    406.37035    148062.49   -47650.502    3977.2005   -51627.702      0.14229 
  109400    288.08939    -420.0187    149091.36   -47636.131    3956.2141   -51592.345    0.1432787 
  109600    289.73395   -293.13896    148949.85   -47596.937    3978.7981   -51575.735   0.14948558 
  109800    292.60753    456.68402    147997.93   -47647.427    4018.2599   -51665.687   0.14630547 
  110000    288.53114    145.89259    148354.46   -47589.556    3962.2803   -51551.836   0.15364469 
  110200    291.88282   -434.95353    149137.19   -47574.894    4008.3076   -51583.201    0.1533762 
  110400    287.03906   -46.553821    148679.61   -47626.393    3941.7903   -51568.184   0.14258645 
  110600    287.73899    310.84957     148145.7   -47698.754    3951.4021   -51650.156   0.14312296 
  110800    284.51242   -28.886524    148582.39   -47696.505     3907.093   -51603.598   0.14599202 
  111000    289.27613   -288.41415    148881.94   -47697.606     3972.511   -51670.117   0.14721897 
  111200    281.01067    70.679078    148476.74   -47685.115    3859.0048   -51544.119   0.14548256 
  111400    280.86512    171.42901    148318.25    -47738.94    3857.0061   -51595.946   0.14228345 
  111600    280.77899   -91.665399    148672.07    -47792.12    3855.8233   -51647.943   0.13805747 
  111800    280.94216   -135.27088    148724.75   -47822.214    3858.0641   -51680.278   0.14069484 
  112000    281.12187    125.71945    148369.73   -47814.266    3860.5319   -51674.798   0.14425611 
  112200    290.05155    116.60193    148411.28   -47775.108    3983.1595   -51758.268   0.14008638 
  112400    286.83432   -139.54356    148782.44   -47743.382    3938.9786    -51682.36   0.13937145 
  112600    286.26961   -88.595754    148695.96   -47718.033    3931.2238   -51649.257    0.1360497 
  112800    281.25819    162.48808    148368.09   -47733.811    3862.4039   -51596.215   0.13980312 
  113000    288.08721    55.730903    148539.24   -47714.264    3956.1841   -51670.448   0.13739907 
  113200     283.5877   -211.59629     148812.9   -47748.901    3894.3941   -51643.295   0.14405866 
  113400     285.4953    45.127743    148500.81    -47728.73    3920.5904    -51649.32   0.14322947 
  113600    290.61036     220.5052    148270.93   -47733.641    3990.8334   -51724.475   0.14069776 
  113800    285.20875   -47.264962     148631.6   -47715.461    3916.6554   -51632.117   0.14233723 
  114000    288.19159   -200.90408    148794.99   -47701.201    3957.6175   -51658.818   0.14653606 
  114200    286.12613    56.276138    148423.81   -47712.554    3929.2534   -51641.807   0.14890655 
  114400     288.2679    157.02524     148347.6   -47654.807    3958.6655   -51613.473   0.14820249 
  114600    290.15063    -166.1159    148729.71   -47628.623    3984.5201   -51613.144   0.14894802 
  114800     289.5752   -124.99359     148697.7   -47613.769    3976.6181   -51590.387    0.1470355 
  115000    289.13625    134.79325    148314.96   -47641.551    3970.5901   -51612.141    0.1461739 
  115200    290.36066    84.426373    148425.69   -47656.462    3987.4045   -51643.867   0.14556969 
  115400    291.93688   -217.48174    148803.26   -47668.605    4009.0501   -51677.656    0.1499688 
  115600    287.71177   -76.951287    148593.21   -47650.836    3951.0283   -51601.864   0.15095218 
  115800    285.59174     244.8226    148242.76   -47665.831    3921.9149   -51587.745   0.14639767 
  116000    283.94725   -12.347822    148553.57   -47651.499    3899.3317   -51550.831   0.14697136 
  116200    288.95424    -228.4544    148870.94   -47669.087    3968.0906   -51637.178    0.1468863 
  116400    284.19338    104.20551    148442.35   -47710.118    3902.7118   -51612.829   0.14444705 
  116600    284.55138    236.69169    148198.03   -47722.166     3907.628   -51629.794   0.14286223 
  116800    284.50433   -165.20939    148700.24   -47678.664    3906.9819   -51585.646    0.1437751 
  117000    287.28877   -209.61105    148832.76   -47685.552    3945.2194   -51630.771   0.14247704 
  117200    291.73364    213.61161    148293.68   -47675.222     4006.259   -51681.481   0.14164849 
  117400    285.83264    181.78052    148267.81   -47701.595     3925.223   -51626.818   0.14556152 
  117600    282.78796   -242.48439    148818.25   -47681.567    3883.4117   -51564.979   0.15064271 
  117800     291.5657   -137.97807    148738.89   -47643.297    4003.9528    -51647.25   0.14582968 
  118000    287.95177    274.69848    148235.17   -47634.048    3954.3241   -51588.372   0.13903507 
  118200    286.05913    78.320898    148466.34   -47668.515    3928.3333   -51596.849   0.14845116 
  118400    285.00466   -272.22056    148888.73   -47717.192    3913.8527   -51631.045    0.1473576 
  118600    279.90907   -54.519565    148538.33   -47744.328     3843.877   -51588.205   0.15253091 
  118800    288.39288     293.7018    148130.23   -47793.804    3960.3818   -51754.186   0.14517401 
  119000     282.6118   -7.0929374    148520.76   -47792.416    3880.9926   -51673.409   0.14177453 
  119200    285.74648   -268.10115    148862.93   -47792.181    3924.0398   -51716.221   0.14553572 
  119400    280.28234    96.765419    148358.27   -47817.848     3849.003   -51666.851   0.14301215 
  119600    284.95752    313.72817     148131.5    -47758.11    3913.2053   -51671.315   0.14229215 
  119800     282.7852    -229.2865    148772.35   -47755.772    3883.3738   -51639.146   0.14881873 
  120000    285.73553   -262.09047    148862.41   -47772.123    3923.8894   -51696.013   0.14476642 
  120200    281.75484    255.47029    148148.94   -47745.326    3869.2242   -51614.551   0.14588727 
  120400    284.55691    197.30826     148243.4   -47792.678    3907.7039   -51700.382   0.14145805 
  120600    285.21065   -291.40563    148941.61   -47784.457    3916.6815   -51701.138   0.13845107 
  120800    284.78539   -147.96079    148668.15   -47775.794    3910.8415   -51686.636   0.14536803 
  121000    286.52608    368.79741    148013.04     -47760.8    3934.7457   -51695.545   0.14518488 
  121200    284.71801    87.007039    148413.31   -47760.097    3909.9163   -51670.013   0.14113532 
  121400    285.95763   -354.97964    148992.45   -47757.927    3926.9394   -51684.866    0.1416677 
  121600    283.55724    8.1776509    148505.41   -47748.504    3893.9759    -51642.48   0.14195004 
  121800    284.81749    323.26815    148059.04   -47746.474    3911.2824   -51657.757   0.14766173 
  122000    286.31153   -68.315076    148631.14   -47725.526    3931.7993   -51657.326   0.14468695 
  122200    286.08066   -322.58375    148941.42   -47692.648     3928.629   -51621.277   0.14766692 
  122400    289.15132    141.24318    148383.77   -47648.319     3970.797   -51619.117   0.14480228 
  122600    290.97645    220.18726     148271.1   -47571.125    3995.8609   -51566.986   0.14510618 
  122800    291.53252   -188.15676    148818.77   -47572.164    4003.4971   -51575.661   0.15326211 
  123000    290.46082   -185.55384    148795.62   -47618.038    3988.7799   -51606.818   0.14924005 
  123200    289.06927    221.73359    148312.63   -47641.338    3969.6703   -51611.008   0.14502142 
  123400    287.06084    123.84842    148439.05   -47724.849    3942.0893   -51666.938   0.14105617 
  123600    289.94176   -161.33973    148796.89   -47672.967    3981.6519   -51654.618   0.14332827 
  123800    285.63814   -68.015322    148624.36   -47694.859     3922.552   -51617.411    0.1416825 
  124000    288.14411    157.08971    148359.09   -47678.468    3956.9655   -51635.433   0.14174676 
  124200    289.79282   -23.656138    148563.99   -47662.518    3979.6065   -51642.125   0.14931257 
  124400    286.58159   -136.85432    148730.94    -47675.83     3935.508   -51611.338   0.14675033 
  124600    283.53168    39.652922    148535.35   -47693.493    3893.6248   -51587.117   0.13804561 
  124800    286.03993    113.02892    148417.97   -47698.425    3928.0696   -51626.495   0.13916466 
  125000    287.32829   -62.013768    148605.69   -47708.137    3945.7622     -51653.9   0.14403742 
  125200    284.59211   -64.179159    148653.58   -47697.388    3908.1874   -51605.575   0.14430146 
  125400    284.22756    108.39493    148424.62   -47764.726     3903.181   -51667.907   0.13924423 
  125600    286.45257    108.04642    148410.76   -47758.987    3933.7363   -51692.723   0.13899613 
  125800    284.52317   -119.08318    148630.15   -47749.607    3907.2406   -51656.847    0.1416966 
  126000    282.89319   -63.079033    148588.59    -47716.34    3884.8567   -51601.197   0.14320324 
  126200    286.15432    138.02147     148388.2   -47697.029    3929.6404   -51626.669   0.14379962 
  126400    290.05088    41.993725    148505.57   -47726.904    3983.1504   -51710.055   0.14520254 
  126600    286.06795   -114.06347    148671.06   -47751.121    3928.4544   -51679.576   0.14251824 
  126800    285.47773    5.1768674    148510.19   -47722.443    3920.3492   -51642.792   0.14405743 
  127000    284.90608    85.743328    148382.11    -47738.71     3912.499   -51651.209   0.14371095 
  127200    281.36853   -40.984074     148552.8   -47773.513    3863.9192   -51637.432   0.14571101 
  127400    285.19524   -80.588338    148642.89   -47772.196    3916.4699   -51688.666   0.14462056 
  127600    278.94259     35.14844    148445.13   -47765.975    3830.6047    -51596.58     0.149325 
  127800    282.80184    43.231956       148412   -47755.925    3883.6023   -51639.527   0.14543613 
  128000    285.66119   -80.901649    148634.85   -47753.109    3922.8686   -51675.978   0.14134374 
  128200    281.93173   -107.43496    148622.37   -47718.313    3871.6534   -51589.967   0.14762375 
  128400    284.87801    92.429208    148374.12    -47745.45    3912.1135   -51657.563   0.14765426 
  128600    281.81267    47.877781    148452.84   -47777.374    3870.0183   -51647.393   0.14681481 
  128800    284.95887   -119.29977    148691.14   -47813.008    3913.2238   -51726.232   0.13962672 
  129000    280.98934   -26.798337    148500.61    -47845.94     3858.712   -51704.652   0.14202289 
  129200    281.88905    198.69078    148213.44   -47803.939    3871.0673   -51675.006   0.14265313 
  129400    286.39683    -21.56452    148523.49   -47803.083    3932.9708   -51736.054   0.14256169 
  129600    280.22823   -258.42547    148828.56   -47802.444    3848.2599   -51650.704   0.15075923 
  129800    282.87098    89.525871    148407.23   -47813.862    3884.5518   -51698.413   0.14297788 
  130000    286.33937      257.522    148149.54    -47824.65    3932.1817   -51756.832   0.14036823 
  130200    283.71731   -172.15693    148738.11   -47843.675     3896.174   -51739.849    0.1370819 
  130400     281.3182     -281.687    148862.95   -47826.585    3863.2281   -51689.813    0.1424824 
  130600    287.23714    266.86241    148141.67    -47782.88    3944.5104    -51727.39   0.14483679 
  130800     280.8963    223.61504     148178.7   -47805.044    3857.4342   -51662.478   0.14862944 
  131000    282.10614   -306.31111    148926.56   -47822.874    3874.0485   -51696.923   0.14187478 
  131200    280.45274   -135.01936    148686.24   -47795.776    3851.3431   -51647.119   0.14208232 
  131400    288.13018    412.75514    147976.33   -47796.001    3956.7742   -51752.776   0.14151453 
  131600    283.73503    80.303795     148397.3   -47791.356    3896.4174   -51687.773   0.14804832 
  131800     282.8054   -414.94605     149034.7   -47761.549    3883.6511     -51645.2   0.15049993 
  132000    285.39363     52.48993    148480.83   -47707.878    3919.1942   -51627.072   0.14276262 
  132200    286.15955     392.6386    148028.34   -47713.829    3929.7123   -51643.541   0.14275502 
  132400    285.98601   -109.51215     148670.3   -47718.511    3927.3291    -51645.84   0.14396525 
  132600     282.2922   -308.00088    148919.75    -47692.37    3876.6036   -51568.974   0.14809704 
  132800    294.70498    211.55243    148288.87   -47665.012    4047.0633   -51712.076   0.14066749 
  133000    291.69537    248.22056    148246.46   -47659.784    4005.7335   -51665.518   0.14580921 
  133200    287.02771   -182.26046    148848.65   -47607.433    3941.6344   -51549.067   0.14530006 
  133400    289.81167   -146.32946    148804.49   -47593.804    3979.8654    -51573.67   0.13970282 
  133600    290.03574    219.65246    148318.31   -47606.932    3982.9424   -51589.875   0.14341101 
  133800    284.97823    83.813909    148483.09   -47628.053    3913.4897   -51541.543   0.14827179 
  134000    291.90433   -185.63882    148862.65   -47578.164     4008.603   -51586.767    0.1471898 
  134200    292.78692   -9.3038213    148635.67   -47592.031    4020.7232   -51612.755   0.14321848 
  134400    286.10783    158.44366    148314.13   -47590.521     3929.002   -51519.523    0.1477751 
  134600    289.12275    1.5833816    148557.38   -47607.176    3970.4048    -51577.58   0.14197201 
  134800    289.54008    -193.0257    148784.33   -47649.268    3976.1357   -51625.403   0.14725386 
  135000     286.9336    43.917903    148481.83   -47703.023     3940.342   -51643.365   0.14610096 
  135200    277.16199    121.79935    148312.16   -47713.392    3806.1525   -51519.545   0.15417965 
  135400    283.06456   -78.705092    148645.21   -47735.274    3887.2101   -51622.484   0.14508777 
  135600    285.16397   -103.82571    148757.57   -47699.057    3916.0404   -51615.097    0.1404044 
  135800    282.10774    81.218444    148441.31   -47770.641    3874.0705   -51644.712   0.14474966 
  136000    287.08453    125.82116    148384.21   -47803.556    3942.4147   -51745.971   0.14437287 
  136200    281.19419   -113.52566    148697.45   -47813.786     3861.525   -51675.311   0.14495351 
  136400    286.66944   -87.084419    148667.77   -47768.418    3936.7144   -51705.132   0.14041337 
  136600    288.36362    141.31279    148419.97    -47712.62      3959.98     -51672.6   0.13872646 
  136800    288.67489    15.002372     148528.7   -47723.818    3964.2544   -51688.072   0.14160706 
  137000    284.42444   -124.01365    148709.68   -47727.118    3905.8848   -51633.003    0.1431006 
  137200    283.57689   0.85314618    148532.48   -47758.454    3894.2457     -51652.7   0.14428485 
  137400     290.2656    153.91937    148348.81   -47717.473    3986.0991   -51703.572   0.14512789 
  137600    285.28468   -41.981586    148596.42    -47709.24    3917.6981   -51626.938   0.14328503 
  137800    284.06939   -168.11925    148746.76   -47682.477     3901.009   -51583.486   0.14247959 
  138000    289.57205    95.039844     148450.9   -47680.246    3976.5748   -51656.821   0.14004949 
  138200     285.2456     111.5877    148381.25   -47729.763    3917.1614   -51646.924   0.14436843 
  138400    285.79172   -87.826913    148677.74   -47714.783    3924.6611   -51639.444   0.14615019 
  138600    285.17696   -158.84181    148698.41   -47727.967    3916.2189   -51644.186   0.14479148 
  138800    292.13943     123.5437    148395.19    -47679.27    4011.8316   -51691.102   0.14126345 
  139000    290.10684    94.642799    148426.32   -47666.488    3983.9188   -51650.407   0.14339407 
  139200    290.43212   -147.18822    148674.11   -47668.353    3988.3858   -51656.739   0.14708551 
  139400    291.00743   -2.5380319    148592.99    -47694.01    3996.2863   -51690.296   0.14655527 
  139600    288.57547    116.02319    148379.08   -47676.522    3962.8892   -51639.412   0.15136909 
  139800    290.50942    41.140465    148504.72   -47637.386    3989.4473   -51626.833   0.14655205 
  140000    293.78211   -129.88332    148704.95    -47604.49    4034.3898    -51638.88   0.14194913 
  140200    286.94769   -14.371366    148545.75   -47645.003    3940.5356   -51585.538   0.14545604 
  140400    287.60546    74.124452    148381.86    -47669.89    3949.5684   -51619.458   0.15065163 
  140600    287.58543    2.8808064    148538.87   -47669.933    3949.2934   -51619.227   0.14848795 
  140800    288.81744   -100.58433    148649.62   -47662.719    3966.2121   -51628.931   0.14374063 
  141000    290.30074    48.185116    148472.46   -47698.973    3986.5816   -51685.555   0.14198353 
  141200    289.85816    89.567883    148411.14    -47651.28    3980.5039   -51631.784   0.14546651 
  141400    293.35368   -53.877321     148620.2   -47657.201    4028.5064   -51685.707   0.14309874 
  141600    288.71852   -55.829709    148608.83   -47639.944    3964.8536   -51604.798   0.14975208 
  141800    286.24401    82.860939     148382.5   -47692.207    3930.8722   -51623.079   0.15135077 
  142000    288.47075    61.025353    148433.81    -47708.47    3961.4511   -51669.921   0.14569324 
  142200    287.95521   -109.25218    148663.83   -47704.855    3954.3714   -51659.226   0.14128154 
  142400    289.44416   -44.855862    148555.44   -47708.213    3974.8186   -51683.032   0.14153082 
  142600    285.66579    149.38774    148335.98   -47698.684    3922.9317   -51621.616   0.14783367 
  142800    289.80849    3.7025652    148533.21   -47703.453    3979.8217   -51683.274   0.14730328 
  143000    282.21128   -186.54575    148753.82   -47764.063    3875.4923   -51639.556   0.14349213 
  143200    285.38631    42.808533    148449.29   -47732.298    3919.0938   -51651.392   0.14359095 
  143400    283.00503    178.52386    148274.43   -47697.135    3886.3925   -51583.527   0.14421112 
  143600     280.0302   -130.28105    148688.92   -47686.178    3845.5404   -51531.719   0.14636552 
  143800    287.51219   -186.38986    148787.82   -47698.568    3948.2875   -51646.856   0.14508578 
  144000    290.47892    200.85055    148300.42   -47687.734    3989.0285   -51676.762   0.14521131 
  144200    287.37525    185.96584    148348.83   -47662.156     3946.407   -51608.563   0.14512298 
  144400     285.4738   -274.54492    148918.62   -47664.243    3920.2951   -51584.538   0.14279039 
  144600    292.19767   -116.26481    148710.37   -47639.104    4012.6314   -51651.736   0.14365771 
  144800    290.50713    344.83585    148138.26   -47607.932    3989.4158   -51597.347   0.14815194 
  145000    285.72714    33.993214     148528.1   -47653.008    3923.7743   -51576.782   0.14371287 
  145200    287.94717   -397.41929    149052.42   -47681.739     3954.261       -51636   0.14069122 
  145400    287.66757    72.675955    148464.14   -47687.633    3950.4213   -51638.054   0.13806236 
  145600    291.04495    373.13135    148035.35   -47705.688    3996.8016    -51702.49    0.1413889 
  145800    283.25993   -169.73684    148728.96   -47721.376    3889.8931   -51611.269   0.14279596 
  146000    288.59971   -320.94564    148983.28   -47707.265     3963.222   -51670.487   0.14091108 
  146200    284.25371     240.5934    148216.03   -47737.938    3903.5401   -51641.479   0.14903565 
  146400    291.24317    260.24597    148178.63   -47693.098    3999.5236   -51692.622   0.14388671 
  146600     288.7401   -332.09952    148966.89    -47656.94    3965.1499    -51622.09    0.1426368 
  146800     287.4005   -207.26686    148828.06   -47612.959    3946.7538   -51559.712   0.14418669 
  147000    294.25097    330.32774    148146.51   -47627.368    4040.8285   -51668.196    0.1423672 
  147200    295.44831    114.92748    148444.29   -47597.621    4057.2711   -51654.892   0.14307467 
  147400    289.38354   -305.22013    149006.24   -47660.469     3973.986   -51634.455   0.14360796 
  147600    287.69401   -23.082857    148584.64    -47673.35    3950.7845   -51624.135   0.14403506 
  147800    285.79246    283.11987    148154.87   -47714.672    3924.6713   -51639.344   0.14691115 
  148000    284.65027   -26.616526    148600.54   -47680.207     3908.986   -51589.193   0.14543078 
  148200    287.69342   -258.69623    148875.56   -47720.696    3950.7764   -51671.472    0.1464472 
  148400    285.35227    66.297936    148432.33   -47770.153    3918.6263   -51688.779   0.14632983 
  148600     287.4014    214.26022    148282.76   -47739.645    3946.7662   -51686.411   0.14186822 
  148800    280.31418   -118.37776    148667.03   -47742.633    3849.4402   -51592.073   0.14176161 
  149000    283.89284   -150.66397    148709.21   -47748.954    3898.5845   -51647.539   0.14216339 
  149200    282.07523    122.06302    148376.48   -47754.712     3873.624   -51628.336   0.14311579 
  149400    288.31994    82.228836    148445.44   -47778.599    3959.3801   -51737.979    0.1397498 
  149600    284.51668    -120.3756    148730.93   -47777.408    3907.1514   -51684.559   0.13897954 
  149800     284.7847   -28.938652    148612.16   -47764.334     3910.832   -51675.166   0.14142097 
  150000    287.85703    136.73095     148406.4   -47724.447    3953.0231    -51677.47   0.14402439 
  150200    285.26974  -0.46306279    148578.52   -47669.981    3917.4929   -51587.474    0.1451755 
  150400     283.1216   -119.07029    148740.53   -47640.449    3887.9934   -51528.442   0.14278189 
  150600    286.49496    3.4568435    148542.18   -47691.007    3934.3184   -51625.325   0.14586683 
  150800    289.51477    109.91499    148404.38   -47655.916    3975.7882   -51631.704   0.14453179 
  151000    293.21399   -29.407146    148643.08   -47695.433     4026.588   -51722.021   0.13481782 
  151200    288.01446   -93.120741    148691.34   -47681.326    3955.1851   -51636.512   0.13778551 
  151400    286.23719    93.250871    148435.54    -47595.79    3930.7785   -51526.568   0.14603841 
  151600    292.12999    136.44951    148497.59   -47583.352    4011.7019   -51595.054   0.14245313 
  151800    290.70269   -133.28514    148779.43   -47595.262    3992.1015   -51587.364   0.14413295 
  152000    293.31988   -64.749851    148659.94   -47597.045    4028.0423   -51625.087   0.14602679 
  152200    293.38501    187.09775    148364.84   -47616.558    4028.9367   -51645.495   0.14338521 
  152400     284.6797    31.959104    148545.79   -47664.814    3909.3901   -51574.204   0.14251805 
  152600    287.82835   -169.53648    148793.16   -47633.572    3952.6293   -51586.202   0.14194363 
  152800    288.38351    13.679572    148553.16   -47566.663    3960.2531   -51526.916   0.14952328 
  153000    287.88932    160.19288    148399.94   -47634.837    3953.4666   -51588.303   0.14128049 
  153200    285.80557   -106.06344    148676.51   -47576.671    3924.8512   -51501.522   0.14607797 
  153400      289.188   -160.35735    148753.34   -47630.232    3971.3008   -51601.533   0.14108244 
  153600    291.19439    138.05228       148433   -47657.613    3998.8537   -51656.467   0.13709832 
  153800    288.47645    109.50013    148449.82   -47686.346    3961.5294   -51647.876   0.14152755 
  154000    284.08631   -174.55237    148782.78   -47700.808    3901.2414    -51602.05    0.1427439 
  154200    282.37534   -93.220334    148697.78     -47646.8    3877.7453   -51524.545   0.14452667 
  154400    285.50333     171.6043    148360.68   -47641.191    3920.7008   -51561.892   0.13950958 
  154600    290.97618    46.943562    148518.78    -47664.12    3995.8571   -51659.978   0.13809199 
  154800    283.35697   -204.46432    148822.09   -47678.933    3891.2256   -51570.159   0.14488006 
  155000    290.19153    36.837827    148554.31   -47666.704    3985.0818   -51651.786   0.14559989 
[...]
  163200    283.92378    -8.691432     148528.3   -47729.578    3899.0094   -51628.587   0.14248131 
  163400    287.36614    133.94636    148374.79   -47764.377     3946.282   -51710.659   0.13990338 
  163600    290.31774     40.46456     148520.7   -47713.736    3986.8151   -51700.551   0.13823865 
  163800    280.29511   -112.91634    148634.75   -47771.856    3849.1783   -51621.035   0.14455291 
  164000    284.04511    57.645798    148432.55   -47788.097    3900.6755   -51688.773   0.13993281 
  164200    283.28789    124.11256    148374.75   -47786.004     3890.277   -51676.281   0.13806488 
  164400    283.51876   -71.875374       148637   -47728.685    3893.4474   -51622.132   0.14117478 
  164600     288.9485    -107.1004     148665.5   -47709.343    3968.0118   -51677.354   0.14320426 
  164800    283.13267    111.00015    148396.46   -47746.028    3888.1454   -51634.173   0.14370397 
  165000     287.8314    74.156225    148418.81   -47722.919    3952.6712    -51675.59   0.14147534 
  165200    291.95801   -127.79228    148697.49   -47719.989    4009.3403    -51729.33   0.14122975 
  165400     286.4843   -84.337265    148592.18   -47748.219     3934.172   -51682.391   0.14453655 
  165600    286.12548    196.53124    148295.68    -47687.52    3929.2445   -51616.764   0.14309387 
  165800    286.14345    10.032227    148532.22   -47712.808    3929.4912     -51642.3   0.14420432 
  166000    284.73992    -238.8448    148814.68   -47671.856    3910.2171   -51582.073   0.14376812 
  166200    288.69055    30.959216       148480   -47702.038    3964.4695   -51666.507   0.13713499 
  166400     293.5919    247.98461    148231.11   -47698.267    4031.7777   -51730.045   0.13899468 
  166600    287.04671   -106.16591    148665.19   -47693.069    3941.8953   -51634.964   0.14054692 
  166800    289.24245   -202.82527     148804.9   -47751.393    3972.0485   -51723.442   0.13830085 
  167000    289.25977    210.27898    148245.03   -47751.461    3972.2864   -51723.747   0.14369821 
  167200    290.90323    223.40603    148216.56   -47701.604    3994.8553   -51696.459   0.14095891 
  167400    283.93493   -281.62687    148893.59    -47745.72    3899.1625   -51644.883   0.14663255 
  167600    287.99774   -193.94459     148750.7   -47727.498    3954.9554   -51682.454    0.1434124 
  167800     280.6972    320.42193     148033.8   -47793.565    3854.7001   -51648.265   0.14281514 
  168000    285.07404    127.97376    148365.66   -47784.924    3914.8054   -51699.729   0.13833124 
  168200    281.03646    -428.7613    149060.55   -47779.061     3859.359    -51638.42   0.13745673 
  168400    287.30672    29.276033    148471.33   -47738.255     3945.466   -51683.721   0.13978449 
  168600    284.71886     460.1545    147923.96   -47748.242    3909.9279    -51658.17   0.14000766 
  168800    285.08225   -126.70688    148681.71   -47789.606    3914.9182   -51704.524   0.13883602 
  169000    282.64623   -418.89176    149055.89   -47773.508    3881.4653   -51654.974   0.14474221 
  169200    284.72815    222.47449    148240.53   -47744.047    3910.0555   -51654.103   0.14174807 
  169400      285.572    353.83049     148066.4   -47770.242    3921.6437   -51691.886   0.14057748 
  169600    283.95906    -273.2239    148848.36   -47781.505    3899.4939   -51680.999   0.14188496 
  169800    282.48953   -239.99555    148829.84   -47785.164    3879.3134   -51664.478   0.13997117 
  170000    283.41775    257.40042    148171.67   -47824.571    3892.0603   -51716.632   0.14142321 
  170200    279.04839    131.19534    148346.54   -47834.979    3832.0577   -51667.037   0.13757837 
  170400    282.69674   -252.68876    148849.97   -47804.352     3882.159   -51686.511   0.13758791 
  170600    285.34719   -31.451612    148564.43   -47785.559    3918.5564   -51704.115   0.13440621 
  170800    283.75067    191.05393    148217.22   -47809.996    3896.6322   -51706.629   0.13899294 
  171000    285.49225    24.714957    148499.51   -47809.865    3920.5486   -51730.413   0.14106562 
  171200     281.3131    -171.4235    148740.01   -47835.266     3863.158   -51698.424   0.14067802 
  171400    284.09253    67.907274    148475.98   -47830.822    3901.3268   -51732.149     0.136364 
  171600    283.96104    140.24157    148353.27    -47796.18    3899.5211   -51695.701   0.13817772 
  171800    280.41664    -68.40194    148627.77    -47774.55    3850.8473   -51625.397   0.14222245 
  172000    288.68946   -74.577025    148663.49   -47780.336    3964.4545   -51744.791   0.13651285 
  172200    284.61175    113.60565    148388.33   -47785.387     3908.457   -51693.844    0.1398882 
  172400    285.26794    80.062835    148411.19   -47755.216    3917.4682   -51672.684   0.13998934 
  172600    290.58682   -85.509644    148710.44   -47740.379    3990.5102   -51730.889   0.13375289 
  172800    282.69167    -54.62347    148643.54   -47747.379    3882.0893   -51629.469   0.13818952 
  173000    281.65582    128.06976    148359.79    -47765.06    3867.8644   -51632.924   0.14000583 
  173200      284.344    21.765055    148452.09   -47802.944    3904.7801   -51707.724   0.14250813 
  173400    285.57583   -121.39858     148659.3   -47788.072    3921.6963   -51709.768   0.14194247 
  173600    290.31474    1.5836265    148503.18   -47739.121    3986.7739   -51725.895   0.13996029 
  173800    290.82849     142.5166    148322.37    -47739.41     3993.829   -51733.239   0.14098567 
  174000    290.23239    17.693025    148522.19   -47703.237     3985.643    -51688.88   0.14398622 
  174200    283.47667   -142.47855    148702.38   -47695.675    3892.8694   -51588.544   0.14462283 
  174400    286.89825    55.063708    148447.47   -47678.717    3939.8566   -51618.574   0.14343506 
  174600    288.18865    136.35556    148317.16   -47690.807    3957.5771   -51648.384   0.14339515 
  174800    292.63629    -60.16747    148649.95   -47656.179    4018.6547   -51674.834    0.1386845 
  175000    285.94182   -182.68173     148772.4   -47703.299    3926.7223   -51630.021   0.14230541 
  175200    287.01099    95.971535    148389.42   -47699.622    3941.4049   -51641.027   0.14336997 
  175400    288.41913     152.6467    148327.59   -47709.755    3960.7422   -51670.497   0.14390413 
  175600    282.72261   -146.55091    148710.79   -47720.419    3882.5142   -51602.934   0.14551471 
  175800    289.22965    -89.85154    148671.54   -47704.826    3971.8728   -51676.699   0.13976454 
  176000    286.58734     167.9389    148303.19   -47692.987     3935.587   -51628.574   0.14268226 
  176200      288.517    55.833963    148477.12   -47643.837    3962.0863   -51605.923   0.14301628 
  176400    288.97078   -205.49985    148837.25   -47682.163    3968.3178   -51650.481     0.140306 
  176600    288.50656    16.946534    148537.18   -47662.458    3961.9428   -51624.401   0.13942259 
  176800    288.83733    220.93397    148224.45   -47670.076    3966.4852   -51636.561   0.14068137 
  177000    288.43298   -41.401722    148591.74   -47685.361    3960.9324   -51646.294   0.13880602 
  177200    288.02131   -216.59436    148800.43   -47697.983    3955.2791   -51653.262    0.1397192 
  177400    276.63383    134.32537    148310.91   -47785.239    3798.8995   -51584.138   0.14434573 
  177600    285.69989    242.13602    148197.32    -47752.57       3923.4    -51675.97    0.1443784 
  177800    286.39242   -226.58079    148804.73    -47731.64    3932.9102    -51664.55   0.14467369 
  178000    287.39845   -189.83365    148791.25   -47689.488    3946.7256   -51636.214   0.13984167 
  178200    286.58188    313.64951    148144.48    -47725.02     3935.512   -51660.532   0.14252469 
  178400    284.22682    151.69399    148359.12   -47701.328     3903.171   -51604.499   0.14598384 
  178600    285.62646   -394.03382    149034.31   -47715.524    3922.3916   -51637.915   0.14308788 
  178800    286.99166   -47.996182    148606.21   -47686.089    3941.1394   -51627.228   0.14010893 
  179000    288.32142    452.92947    147986.97   -47660.615    3959.4004   -51620.016   0.14269295 
  179200    289.92919   -69.021183     148666.9   -47686.274    3981.4793   -51667.754   0.13991683 
  179400     286.5057   -468.75304     149169.7   -47657.041    3934.4658   -51591.507   0.14468965 
  179600    289.96115    229.76989    148315.84   -47663.844    3981.9182   -51645.762   0.14020406 
  179800    285.85386    466.52941    148005.72   -47692.518    3925.5144   -51618.032   0.14394224 
  180000    288.69456   -307.63259    148990.94   -47662.256    3964.5245    -51626.78   0.14059395 
  180200    290.71359   -370.52643    149073.94   -47623.458    3992.2511   -51615.709   0.14186432 
  180400    291.88029    388.70805    148106.03   -47579.988    4008.2729    -51588.26   0.14540806 
  180600    286.42842    251.52139    148253.01   -47669.362    3933.4046   -51602.767   0.14154635 
  180800    286.43316   -368.56982     149067.3   -47634.226    3933.4697   -51567.696   0.14307747 
  181000    286.00837   -130.52298    148765.46   -47674.748    3927.6362   -51602.385    0.1369149 
  181200    287.43457    321.75146    148158.53   -47658.851    3947.2217   -51606.073   0.14000972 
  181400    285.48012    55.142025    148495.56   -47699.422     3920.382   -51619.804   0.14066034 
  181600    285.95676   -222.28308    148855.11   -47718.895    3926.9275   -51645.823   0.13915877 
  181800    284.32282    19.582421    148538.33   -47690.183    3904.4893   -51594.673   0.13983156 
  182000    283.99163    148.53659    148336.26   -47698.526    3899.9412   -51598.467   0.14505517 
  182200    286.17788   -52.010107    148602.35   -47714.561    3929.9641   -51644.525   0.14175442 
  182400     285.8608   -117.14888    148700.99    -47715.32    3925.6097   -51640.929   0.14049771 
  182600    287.50523    66.162114    148464.47   -47678.905    3948.1919   -51627.097   0.14200562 
  182800    285.50515    58.401976    148459.61   -47644.269    3920.7257   -51564.994   0.14487555 
  183000    288.21501   -96.993177    148698.94   -47645.736    3957.9391   -51603.675    0.1390085 
  183200    288.17858   -24.069483     148650.5   -47626.974    3957.4389   -51584.413   0.13814586 
  183400    287.91318    76.101054    148431.02   -47636.078    3953.7942   -51589.872   0.14011655 
  183600    286.03629    26.100906    148497.64   -47664.372    3928.0197   -51592.391   0.14508548 
  183800    285.30526   -110.80218    148651.56   -47696.549    3917.9808    -51614.53   0.14282185 
  184000    281.52117  0.090272034    148533.57   -47707.695    3866.0153   -51573.711   0.14521603 
  184200    288.18138    109.39346    148399.48   -47749.922    3957.4773   -51707.399   0.13781219 
  184400     286.8089      9.49218     148535.8   -47759.636    3938.6296   -51698.266     0.137531 
  184600    283.71293   -128.38393    148660.92   -47768.222    3896.1139   -51664.336   0.13910354 
  184800    284.96046    62.363983    148481.07   -47755.414    3913.2457    -51668.66   0.14037756 
  185000    288.76739    75.523102     148390.2   -47746.407    3965.5247   -51711.931   0.14270185 
  185200    282.68165   -33.375415    148569.22   -47801.684    3881.9517   -51683.636   0.13553719 
  185400    282.25104   -50.460863    148595.05     -47779.4    3876.0383   -51655.438   0.13551801 
  185600    282.54366    54.562721    148411.91   -47782.669    3880.0568   -51662.725   0.14110823 
  185800    287.92195    120.40708    148408.81   -47729.185    3953.9147   -51683.099   0.13982969 
  186000    281.10287   -105.27225    148623.58   -47714.673    3860.2709   -51574.944   0.14529283 
  186200    284.68207    -64.41455    148596.66   -47705.364    3909.4226   -51614.786   0.14180084 
  186400    286.57608    107.09734    148385.82    -47656.05    3935.4324   -51591.482   0.14200048 
  186600    287.92445    34.489394    148482.38   -47690.028     3953.949   -51643.977    0.1400407 
  186800    286.42008   -118.17262    148676.64   -47715.383      3933.29   -51648.673   0.14002372 
  187000    288.23869    1.0774409    148495.79   -47687.623    3958.2643   -51645.887   0.14481656 
  187200    288.10465    170.66368    148303.09   -47705.884    3956.4236   -51662.308   0.14374453 
  187400    287.05711   -53.273961    148551.02   -47692.173    3942.0381   -51634.211   0.14032148 
  187600    284.48223   -166.92989    148739.88    -47730.74    3906.6784   -51637.418   0.13814725 
  187800    289.64078    87.745478    148404.21   -47720.078    3977.5187   -51697.597   0.13870953 
  188000      285.481    203.60177    148282.89   -47694.271     3920.394   -51614.665   0.14355757 
  188200    281.68168   -160.50138    148745.12   -47685.613    3868.2196   -51553.833   0.14633466 
  188400    289.56961   -198.47061    148763.02   -47673.529    3976.5413   -51650.071   0.14325743 
  188600    285.67781    238.90088    148214.34   -47678.348    3923.0968   -51601.445   0.14334084 
  188800    289.43456    176.72922    148327.06   -47692.915    3974.6867   -51667.602   0.13776667 
  189000     284.4339   -291.82073    148903.84   -47683.707    3906.0147   -51589.722    0.1423524 
  189200     290.7649   -85.668719    148636.94   -47688.033    3992.9556   -51680.989   0.13966402 
  189400    287.26577     341.3521    148098.07   -47649.369    3944.9035   -51594.272   0.14295573 
  189600    286.89432      32.1529     148519.9   -47665.394    3939.8026   -51605.196    0.1394401 
  189800    285.24339     -362.635    148995.24    -47701.28    3917.1311   -51618.411   0.14242002 
  190000    282.04151    64.663959    148405.24   -47732.074    3873.1609   -51605.235   0.14350936 
  190200     286.2159    349.72687    148030.79   -47706.873    3930.4861   -51637.359   0.14245388 
  190400    285.34951   -120.99558    148708.55   -47706.348    3918.5883   -51624.936   0.14416758 
  190600    292.72921   -300.26971    148916.32   -47649.746    4019.9307   -51669.677   0.14595582 
  190800    288.22668    258.26657     148236.8   -47682.262    3958.0994   -51640.361   0.14100163 
  191000    283.50852    226.96111     148214.5   -47696.139    3893.3068   -51589.446    0.1416934 
  191200    288.06467   -253.15665    148876.29    -47689.76    3955.8746   -51645.635   0.14165501 
  191400    285.88841   -136.47228    148724.53   -47713.735    3925.9889   -51639.724   0.14168781 
  191600    290.55817    291.83721    148160.71    -47670.16    3990.1168   -51660.277   0.14369882 
  191800    284.54028     100.2968    148460.11   -47704.941    3907.4755   -51612.417   0.13814227 
  192000    286.74921   -294.84716    148929.04   -47704.887    3937.8099   -51642.697   0.14044777 
  192200    283.69194    9.0153641    148524.54    -47674.52    3895.8257   -51570.346   0.14316649 
  192400    284.64981    270.33581    148181.92   -47682.005    3908.9797   -51590.985   0.14713009 
  192600    285.22497   -86.846453    148614.78   -47713.724    3916.8781   -51630.602   0.14578953 
  192800    288.10545   -246.22139    148836.89    -47688.78    3956.4346   -51645.215   0.14734437 
  193000    289.93066    112.72999    148403.66   -47679.903    3981.4994   -51661.402   0.14154597 
  193200    293.89134    237.49845    148304.09   -47634.736    4035.8899   -51670.626   0.13543574 
  193400    286.90543   -146.57139     148745.2   -47636.859    3939.9552   -51576.814   0.14284035 
  193600    287.85174   -139.46931    148730.86    -47649.58    3952.9504   -51602.531   0.14640458 
  193800    286.79487    144.52309    148305.47   -47697.862    3938.4369   -51636.299   0.14789662 
  194000    283.67648    94.370164     148381.1   -47722.266    3895.6133   -51617.879   0.14324114 
  194200    289.30812   -139.42725       148744   -47707.306    3972.9503   -51680.257   0.14204609 
  194400    284.64893   -32.799575    148572.93   -47688.227    3908.9676   -51597.195   0.14518238 
  194600    287.80469    168.35725    148268.97   -47713.888    3952.3044   -51666.193   0.14545799 
  194800    285.33653   -29.104518    148517.36   -47700.397    3918.4101   -51618.807   0.15222489 
  195000    287.72668   -182.76637    148745.74   -47682.435    3951.2331   -51633.668    0.1519713 
  195200    285.69921    76.433668     148458.7   -47666.897    3923.3907   -51590.288   0.14674822 
  195400    290.19827     230.1951    148342.03   -47670.931    3985.1745   -51656.106   0.13983138 
  195600    287.73724   -79.155376    148712.32   -47676.063    3951.3781   -51627.441   0.14221463 
  195800    284.71674   -126.48601    148740.04    -47719.97    3909.8988   -51629.869    0.1488917 
  196000    286.42934    170.53627     148318.8   -47691.103    3933.4172    -51624.52   0.14580872 
  196200    285.39205    103.75684    148398.75   -47678.413    3919.1725   -51597.586   0.14740101 
  196400    285.89954   -187.69003     148786.1   -47676.716    3926.1417   -51602.858   0.14691634 
  196600    284.68517   -62.281068    148571.62   -47742.353    3909.4653   -51651.818   0.14809394 
  196800    284.63695    200.83575    148185.89   -47732.931    3908.8031   -51641.734   0.14959047 
  197000    280.61014   -5.2176416    148459.12   -47742.095    3853.5046     -51595.6   0.15134991 
  197200    284.98746   -208.76265    148778.11   -47795.279    3913.6165   -51708.895    0.1437297 
  197400    282.98536    61.241177    148438.14   -47753.431    3886.1224   -51639.553   0.14413175 
  197600    285.53148     186.6325    148219.29   -47668.111    3921.0873   -51589.198   0.14696518 
  197800    284.86462   -122.23689    148652.75   -47655.218    3911.9296   -51567.148   0.14880729 
  198000    285.31141   -201.37753    148778.52   -47682.942    3918.0652   -51601.007   0.14476921 
  198200    285.91398    165.31095    148302.72   -47708.413      3926.34   -51634.753   0.14435185 
  198400    291.46182    180.04198    148295.45   -47636.719    4002.5262   -51639.246   0.14740975 
  198600    286.69132   -234.29356     148814.5   -47625.527    3937.0149   -51562.542   0.15290698 
  198800    283.48291   -132.75098    148733.15   -47657.502    3892.9551   -51550.457   0.14850958 
  199000     289.1579    258.10678    148228.46   -47664.019    3970.8874   -51634.907   0.14165501 
  199200    286.99157    130.41536    148427.26   -47659.227    3941.1381   -51600.365   0.14243596 
  199400    284.47986   -321.70486    148945.73   -47671.169    3906.6459   -51577.815   0.14870876 
  199600     289.9878   -39.631646    148638.08   -47694.274    3982.2842   -51676.558   0.14419799 
  199800    287.09452    313.35748    148173.66   -47674.296    3942.5519   -51616.848   0.14227934 
  200000    286.97861    6.1809782    148571.03   -47693.912    3940.9601   -51634.872   0.14048682 
Loop time of 111.522 on 6 procs for 200000 steps with 4608 atoms

Performance: 774.732 ns/day, 0.031 hours/ns, 1793.362 timesteps/s
97.9% CPU use with 6 MPI tasks x no OpenMP threads

MPI task timing breakdown:
Section |  min time  |  avg time  |  max time  |%varavg| %total
---------------------------------------------------------------
Pair    | 77.995     | 78.621     | 80.118     |   8.4 | 70.50
Neigh   | 12.354     | 12.525     | 12.78      |   5.1 | 11.23
Comm    | 8.8849     | 10.195     | 10.796     |  19.6 |  9.14
Output  | 3.0826     | 3.0839     | 3.0896     |   0.1 |  2.77
Modify  | 5.6639     | 5.7746     | 5.8852     |   2.7 |  5.18
Other   |            | 1.323      |            |       |  1.19

Nlocal:        768.000 ave         778 max         755 min
Histogram: 1 0 1 1 0 0 0 0 1 2
Nghost:        1394.17 ave        1408 max        1381 min
Histogram: 2 0 0 1 0 0 0 2 0 1
Neighs:        0.00000 ave           0 max           0 min
Histogram: 6 0 0 0 0 0 0 0 0 0
FullNghs:      21895.0 ave       22187 max       21478 min
Histogram: 1 0 0 2 0 0 0 0 1 2

Total # of neighbors = 131370
Ave neighs/atom = 28.509115
Neighbor list builds = 12383
Dangerous builds = 0
write_data		data.${NAME}
write_data		data.ice_287K_1atm_ML
System init for write_data ...
Total wall time: 0:02:44
