LAMMPS data file via write_data, version 29 Oct 2020, timestep = 200000

4608 atoms
1 atom types

-0.14319703493388403 53.54319703493663 xlo xhi
-0.13683535490410037 51.043955354901726 ylo yhi
-0.13683535490410037 51.043955354901726 zlo zhi

Masses

1 18.015

Atoms # atomic

3025 1 1.0858575593907143 30.518575353922767 17.790837990788305 0 0 0
3447 1 4.937359885939666 4.0251669266681285 1.2953797903016775 1 1 1
3539 1 1.906897879467218 24.449285369518883 11.164401282780068 0 -1 -1
2697 1 13.955180443029978 -0.12895398323514945 4.117262988621249 0 1 0
726 1 2.454144259021927 50.24887159803961 15.54417176286094 0 0 -1
2929 1 5.027698818777409 1.1343015894732882 24.047451568355648 1 0 0
2275 1 8.103357600059818 2.9358890116427268 1.465966000082654 0 1 0
3699 1 -0.06344918095217736 6.260880549033281 4.888309993063855 1 1 -1
2834 1 12.031834784971982 0.7302758250574283 1.704852016640995 0 1 0
618 1 12.737716591322226 2.4065295416031107 5.6110448870207374 -1 1 1
1458 1 14.332814271425697 4.873719762350684 2.97851404763909 0 0 1
1070 1 3.2770313321757945 8.776305974139476 2.5135607399958273 1 0 1
4578 1 0.21138057869906057 8.35034085586453 19.312055320247214 1 0 1
1328 1 1.7816750696952115 32.12603181109601 1.7920392692143632 1 1 0
4174 1 2.8636374237978073 46.054651505912005 0.713354999423775 1 0 1
2898 1 2.7572448604633517 39.73200787871735 2.3923353849282045 0 0 0
2572 1 16.954049253678747 1.853959299191669 22.642804242138865 0 1 2
3562 1 0.3916208585340142 41.43475958240906 18.397023475673016 0 0 0
390 1 1.572873871061367 12.5817380277689 3.374784991416312 1 0 1
2606 1 6.46944137991371 10.230767146704979 3.433655130716296 2 0 2
1083 1 0.2811524103659981 44.17643033723147 5.617755815709495 0 -1 1
392 1 12.47033007155104 10.984479557324699 0.5392223200991124 0 0 1
2326 1 13.24348232973079 25.754700019399554 0.46161069705831004 1 0 2
1171 1 2.3392756712037013 24.78216557750487 2.841919613887133 0 0 1
2066 1 5.183736444487393 13.228782435784117 0.5663894964600162 0 -1 1
3671 1 9.327662190364466 16.0883248946891 1.4982744090827598 1 -1 0
4150 1 0.2287616333275273 44.287779594189956 23.13351135233932 1 0 0
2955 1 7.099414144820444 47.968997864495336 23.371443660730062 1 0 0
4420 1 3.0842480419894946 14.774846032783527 3.6563996532674867 1 0 1
324 1 15.335281453846388 15.525298496722382 24.811961431853714 -1 2 0
1739 1 0.31145171005225386 11.415938655033196 17.336604528220047 1 -2 0
2396 1 8.894878911914546 7.224261047656244 24.84612394913453 0 1 0
1719 1 10.003469851904685 25.30378063675883 0.5810963160525574 1 1 0
541 1 10.86014061836442 3.1862735993664284 1.525713978360814 -1 0 -1
2006 1 16.015650851811692 49.13614665628563 0.5621330608036745 1 -1 0
1313 1 12.154961877514605 39.40162641295666 0.2667956093870792 0 0 1
4165 1 1.9227552612943524 29.12745504092048 2.9970952050210515 2 0 2
1737 1 -0.03266988727196472 39.01681915498536 15.687232280556195 0 -1 1
3281 1 6.705029957485782 28.642185079946994 0.7132074019439257 1 2 1
1452 1 15.599888786577544 18.722125215364272 1.6730324204379161 1 0 1
776 1 1.2332005655621452 18.834608091133887 18.189010715796524 1 0 -1
3444 1 5.694224788074685 19.06495173760438 2.8406175192691463 0 -1 1
2880 1 12.933316434077085 22.493836318378374 3.292936541474864 1 0 1
3652 1 15.871163920402036 21.643516501876967 2.0719918820633816 1 1 0
711 1 17.333834621022348 4.396026193527344 23.51411716390709 1 1 -1
1335 1 6.293741430858761 22.90793214786157 1.9746780076246533 0 0 1
898 1 15.162066796363218 24.10754551635031 21.936669355071892 -1 2 0
1300 1 0.07196649753660223 10.863985652350298 22.601156425091627 0 1 0
2327 1 0.08266673617972181 44.264085784325616 9.86966374346726 -1 0 1
2002 1 0.7079441664848397 35.13328218465782 13.580505246931919 0 -1 0
3410 1 -0.04787760654617787 48.29561267807551 15.72599023770471 0 0 -1
3170 1 7.37779014184488 25.250882276412284 2.566835560203327 1 0 1
4089 1 1.6524184580327408 37.34998192013412 9.533744426306871 1 -1 0
1476 1 10.420883076804062 30.961014466635845 2.0552971475889614 0 0 1
3173 1 10.07910582370753 21.978722739268367 2.0601828159962787 1 0 0
283 1 1.243810690481755 16.556500983840337 9.20281459672664 0 0 1
1918 1 2.882328364904443 44.03403918588527 25.151335249525342 1 0 1
4288 1 2.43321351734019 45.92857402011474 21.22073772924469 0 0 1
415 1 5.046741662162811 29.88981307251055 3.6177504628240684 0 1 1
106 1 6.529196803343757 48.613017261334996 2.5843633485420034 0 -1 0
3013 1 13.967026460105574 7.402742852354122 4.749102867899523 -1 1 0
4407 1 3.0200713018827843 50.89709894937938 1.6352275069311228 1 -1 2
3560 1 7.621951896635687 31.80749257273949 2.676187180922675 0 -1 1
4585 1 10.826197604812664 35.62453348632339 2.2394162804147846 0 -1 1
1185 1 11.920195659369762 18.84353730117086 21.69208797020745 0 -1 1
1071 1 11.695633614823656 38.48872125048204 4.799632642254614 0 -1 1
3451 1 5.21637294871894 36.207168366804275 1.6709900592895226 0 -1 1
516 1 17.232082444459 27.2107336925378 2.947723736766068 -1 0 0
988 1 7.823070838127154 2.3169396856806106 24.194249228505704 0 0 0
1720 1 0.10350549828033406 39.26766437011362 3.4126007675137675 -1 0 1
4085 1 0.6282003433074029 1.0322591058128 16.67133968254689 1 1 1
4242 1 0.7097392079099345 1.6386037896579841 1.1815463513538296 1 0 0
3310 1 9.310382255215098 42.27004467316836 2.621793792362588 0 0 0
2678 1 0.4097381575330441 10.266459829637293 12.593187838520546 0 0 1
103 1 -0.09218800602605545 16.073903880898687 0.7265017540177637 0 -1 0
2675 1 -0.005132446774588684 3.8294625382677574 15.521139095193266 -1 1 0
1186 1 11.77998046164186 43.648535850756495 3.602603899824766 -1 -1 1
220 1 16.430686707820907 3.8303801926953187 15.249073968899593 0 0 0
694 1 2.6032197598763744 48.22608322798242 3.9310474522617564 0 -1 1
480 1 6.905948325518922 40.25825880886787 2.456201294886038 0 -1 1
4107 1 8.829687943786173 47.49328399068506 0.910946295183642 1 -1 1
501 1 10.782678598636851 41.74053604284859 0.45607860844564985 0 0 1
3841 1 13.867072490167585 19.899940888141945 24.422395619064435 2 1 -1
3183 1 2.5801926319738238 2.884250977137795 2.7023063078384215 1 0 1
2274 1 3.345844637732572 45.689483985776725 4.113319197483113 1 0 0
1675 1 0.3002427087027657 8.944839532158708 1.984172446901185 0 -1 0
1285 1 1.085621254439551 18.224839811403463 2.128827309670181 0 -1 1
3689 1 12.930170338318883 46.035484322645566 2.63758842809808 1 0 0
636 1 16.399087808297043 49.50317955926334 4.742475407500553 0 -1 0
766 1 1.3087631911589983 3.454847161178568 5.1910840161001754 0 1 0
185 1 3.1981449168500236 43.19893821148997 2.219216348606914 0 0 0
3945 1 3.92887947086503 0.7515641461496914 4.422673784671227 1 0 1
3271 1 6.441699127776259 -0.07289795632577022 4.9002385402009025 2 0 0
3883 1 7.728906784659482 0.2890614398653202 2.096143134035463 1 2 2
2419 1 15.922128549519346 2.978361477123368 6.618637214428157 0 0 1
2527 1 3.1227422962672686 6.414660550964365 1.0863739317885586 0 2 0
3139 1 10.2911629453118 7.133950450194104 1.0475382156256143 1 0 0
511 1 14.985432270779755 3.7885541377941623 10.24885983772071 0 0 -1
3589 1 2.6419986276386123 6.200280935901677 4.0972062008829795 1 0 0
1969 1 12.778705176554071 5.3722043434520135 0.8265942899983616 0 0 0
2082 1 8.581614741370595 11.328626418192224 0.9146056955042896 0 1 1
1922 1 13.760034648168668 9.184832555283561 2.330219057514365 0 0 1
2542 1 5.014582235903447 5.736708405875576 6.115853402447534 0 0 0
2798 1 5.276680498032089 10.860880721659901 5.990080972393814 0 1 1
4472 1 5.890505402866481 13.140819107627504 2.997672031594032 0 0 2
3511 1 17.493206077399886 25.34251951349261 10.324626074566204 0 1 -1
3706 1 8.96227881489782 10.6744550404328 4.688460942829669 0 0 0
2057 1 15.703065158769688 11.134425085413342 2.5432377411906852 1 -1 -1
1161 1 15.503276055248005 13.684796481651398 1.8816649046725482 -1 0 0
1159 1 1.3427145334776613 9.803949592987873 7.264105376190183 0 1 0
2418 1 9.140230602342983 13.689591619854173 2.638691674243467 1 1 0
73 1 10.308189974529146 13.356286719915182 5.313566608919269 1 0 0
3285 1 15.6920875229961 13.907481240640879 7.353876291394176 0 0 1
476 1 3.579291214818393 10.907355015158121 0.6277671283373075 1 1 0
4424 1 3.3514718999170454 18.852299101440526 1.2919650582046986 1 0 1
2751 1 8.359621405865646 19.076436196672528 2.1092608969294706 0 0 0
2830 1 12.109488139849592 15.517349244203308 2.195378815587992 0 0 0
2923 1 12.660247014230809 14.148105071083876 6.559041279182651 1 1 1
2754 1 15.315636494956385 15.01211555204072 4.446281245130746 0 0 1
4121 1 9.383156190567403 20.655916773503293 4.585385813702895 1 -2 0
2198 1 0.23798218145854533 22.429799566086274 18.242624603734797 0 0 -1
2376 1 16.284223719611283 19.54297614976818 4.463300195875058 0 0 1
4576 1 12.800379347368423 16.37220850365405 4.864745823430597 0 0 1
400 1 15.472675682854618 17.9103350584491 23.10429524845065 0 1 -1
525 1 4.0170848973149065 7.676366897306535 24.426235407265644 1 0 0
3549 1 2.325806332074004 21.461916690305515 2.89869467387493 2 1 0
3201 1 7.0084617938421205 21.74598632476877 5.131329463286822 0 0 0
3751 1 14.986351447110573 19.420277947987326 10.596027310024564 1 0 0
1215 1 13.6761251297609 20.64767952618334 5.035967912182881 0 1 1
114 1 17.59310140841032 15.940428549037975 6.346010541338213 -1 -2 -1
2615 1 3.6432449580851207 27.007121531016264 1.691813131449205 1 1 0
3336 1 6.631824544172402 26.22434290527768 5.175656784563102 1 1 0
2580 1 10.367175917230714 23.475321270335982 4.72885439095691 1 0 0
4015 1 12.173232750926276 27.540419694927085 8.649830169518408 2 0 1
4405 1 11.627600778561355 28.131568733069873 1.595538830236789 0 0 0
399 1 12.681111027947935 25.43600549700248 5.290850033142553 0 -1 1
206 1 14.57273455701944 24.91116526842457 2.7646836799008665 1 -1 1
1396 1 16.867614321603057 24.78108681117785 1.2072627099366557 0 0 0
2319 1 0.366274270426467 28.913099530828585 7.0450332864224725 1 -1 3
252 1 9.95802778931487 26.413560811164476 3.4282769181304866 0 0 1
2030 1 5.001404180483165 32.10155963530091 1.1386707573659336 2 1 -1
3049 1 10.23272166111965 32.683675427665904 8.039782787536977 1 0 2
3523 1 12.103473340168406 30.334038691646484 8.29730517765762 -1 -1 -1
4364 1 14.29762061029563 28.183412681945953 2.594299406856692 1 0 1
3711 1 1.655520502395931 29.537790674209237 23.849963164298362 1 1 0
4597 1 6.844048914071437 29.04884906176697 5.980645885705662 1 1 2
2840 1 12.716484860275294 32.238116426869176 3.9850840514791983 1 -2 2
4403 1 13.750170864629935 30.80548506674134 6.078723495915578 0 0 -1
3513 1 15.445753223027253 32.906538361900026 3.0570821482051485 0 0 1
4016 1 13.628794649095953 43.408708372382854 25.095245669083102 1 -1 0
4441 1 14.360201501652142 1.4605607190431098 24.670216067515724 0 0 -1
3979 1 16.832448724074293 32.285776658378076 24.07849416100731 1 -1 0
3484 1 6.32480507573584 33.49808819644352 6.077248677665412 0 -1 1
751 1 4.364039659002051 32.33217353768864 4.611512602453166 0 0 0
3348 1 7.977337409048911 34.43668987219506 3.870452694578195 1 0 0
1062 1 10.6691403068042 36.04893339741182 8.491620109120156 1 0 1
134 1 13.455093763242036 34.67936204349394 1.509467440600711 0 0 0
1467 1 15.27259881446789 37.425003312590654 8.477122920099566 0 0 0
4491 1 17.70687861374168 36.15582027956428 2.5943189619572076 0 0 0
861 1 1.594940729564579 36.27928243828747 3.663541610772329 0 0 0
3042 1 3.365034475337863 34.4241754690972 2.7155544706830335 1 -1 1
506 1 7.5982238351119715 37.10789763820211 2.533541928654567 0 1 0
3214 1 12.613734891912587 38.020289342331886 7.348779721540971 1 0 0
2836 1 15.09020387582014 36.72662600687388 1.3389403965291549 1 0 2
3916 1 13.276293059066758 13.683176312299517 0.5105678277648932 0 0 0
3624 1 3.969035732307896 41.956871097718235 4.679678043997145 1 -1 0
3622 1 4.568764146146461 44.16388735958094 6.235518225234323 1 0 0
1513 1 4.772703032421351 39.32848255339426 4.756039788462907 0 -2 1
3907 1 9.995896090433597 41.730077889981914 5.817453336389129 1 1 2
3352 1 12.525993007217155 41.004551706334 6.891800847658428 1 -1 2
1609 1 13.406870429166785 38.58273917488296 2.697051876965016 0 0 0
3604 1 0.604636873010149 40.5168884802987 9.56371373771038 1 -1 -1
4203 1 0.6365189875703993 1.7564033159664671 23.96796137999014 0 0 -1
1209 1 7.437694053977096 44.35045480749237 2.3800563886201 0 -2 1
1777 1 14.629671715707758 43.694307589646776 7.459324274136591 0 -1 -1
624 1 13.910146555210435 42.40726027532835 4.838692130825708 1 -1 1
1111 1 14.964479636546024 40.99461956820684 2.521164435413487 0 0 1
4366 1 0.13960689216220562 45.849590016034924 3.0200687274493956 1 -1 1
1355 1 6.184856205502333 46.28267748002456 4.102897817051625 1 -1 1
4550 1 12.200256262461428 45.11270003447266 6.105621504779155 0 -2 0
188 1 9.34063505995389 45.47596508549186 4.873647158985581 0 0 0
249 1 10.533660995125643 47.75249575626187 3.285303491965179 0 0 -1
1732 1 14.378198211438818 47.23998400295759 5.725345292889621 1 -1 -1
461 1 17.17411745359944 44.65601773876979 6.941364689472566 0 0 0
3612 1 1.561833587692777 15.230641590126325 22.77697852022145 1 1 -1
3450 1 2.401835298601029 0.06533550136080127 6.833071180941949 0 0 -1
3530 1 2.312460358106468 47.72045262625161 8.494034630305286 1 0 -1
1469 1 9.900597089001177 50.37961863500345 3.5261968082674504 0 0 1
2557 1 17.527492482204277 50.960319561194495 7.8333134804670586 0 -2 0
466 1 5.877308174201261 1.761912052849464 8.569645034657123 0 0 0
1878 1 1.133448780651274 0.562496935565067 11.21019596021672 1 1 1
769 1 6.33090883790268 2.7250526779057394 5.744963494184614 -1 0 0
2127 1 13.296467317516814 2.445506600014601 8.369816269027833 0 1 0
4192 1 11.251323769742756 -0.0984398692893271 5.957984693746979 1 0 0
1353 1 11.397965184492591 49.72191615470096 8.323093004490095 0 -2 1
1990 1 11.541808384776127 0.6205095187044171 10.150662650663696 0 2 -1
8 1 17.430835638288695 16.20893125483774 10.075715156716106 1 0 -1
830 1 1.8767715982294044 27.68236891332312 21.5948037362021 0 0 1
3163 1 14.770856387525424 47.65240454484922 25.106678859268946 0 0 -1
2352 1 7.998560764061459 -0.022156962259126722 7.272576118480733 0 1 0
1779 1 3.212486574615803 4.091790697837683 7.40335076698422 0 0 0
2832 1 9.016443263854955 3.9712638103477103 5.445127309976371 0 0 0
4114 1 11.701509566098455 4.426150988211408 3.9805076000505624 1 0 0
340 1 17.34811978693022 4.410268153064376 8.437110787325308 0 0 -1
1320 1 7.1134603533252925 5.0894815528346165 2.9750638553677002 0 0 -1
2517 1 7.864469054236613 6.091925836363548 7.0806470018076935 0 -1 1
2861 1 13.548276895114205 8.595411435301704 7.450827076575327 -1 0 0
2034 1 10.58808622873858 9.691004665383312 2.453450112318665 1 1 0
1692 1 10.706866310619231 30.660856684487836 25.232734691687863 1 0 -1
3481 1 4.532115083990631 8.394027022011693 7.299198462924744 0 1 0
993 1 2.4953983536974715 10.269019829689348 4.851004321378655 0 0 1
2999 1 8.18071150072816 9.248992732788569 6.932799203265724 0 0 0
79 1 7.467740787826463 7.8736626905536955 1.6739115272187015 -1 0 1
3697 1 16.036740974552863 10.014177230969203 7.164313317940139 0 0 1
1598 1 0.44861542153556133 11.903690115203307 8.782844913280499 -1 0 -1
2292 1 3.4871735925989635 14.908640767440891 6.61729143350925 1 0 -1
4587 1 4.911223370433664 19.783112249787905 5.594390912420836 1 0 0
775 1 8.328324427430724 14.439355029679971 6.826094416641588 0 0 -1
1145 1 15.232300752758949 11.997333807347152 5.204021366201112 0 0 1
2302 1 0.8390075454309359 14.32728355808948 7.622450080783541 1 0 0
244 1 7.2238198610530455 17.24715373964833 6.032855494644627 0 0 0
1963 1 12.138816294424489 15.129836087696399 8.913888275806386 0 0 0
3693 1 1.6949810959944476 24.404454969398678 -0.1315136629740775 0 -1 -1
1451 1 2.8162505273995313 21.420832603101882 5.535401992260227 0 0 1
4098 1 16.294997424574557 2.6794368410314373 2.4415929895410997 2 0 1
4514 1 9.397945077702436 21.438239658911804 7.786073115468557 1 -2 1
1838 1 12.705916031115475 18.16742490290718 6.511842478793392 0 0 0
805 1 17.26310071025571 16.852012513953593 3.566334018492812 0 1 0
483 1 2.9862682662226523 31.48797926476418 6.761453601352945 0 -1 1
1691 1 3.7782359829783143 25.805410620840576 5.652709389433514 1 0 0
98 1 6.7383218386504 20.248545096722715 24.691754508051048 1 0 0
448 1 8.085333585535128 23.696065307147634 6.563840536963909 0 -1 0
4194 1 10.854932936196855 24.877057151643967 7.866192794013678 0 -1 0
4365 1 14.83911780600966 17.64546872790865 8.236153404755173 0 0 0
1657 1 14.577040663857144 40.629526343011044 25.087382331665044 0 -1 0
2809 1 17.70510299220384 45.77247245252982 2.493530492595794 0 0 1
2338 1 2.631081269407958 28.250718675381734 5.9905270678208 1 -1 2
3227 1 9.153330092447975 26.87161180835194 6.201084871645775 0 -1 1
1212 1 15.028516032830638 24.90229818479607 6.257776528828541 0 0 1
3629 1 14.342121933057237 21.918492289982588 7.323773489823966 0 0 0
3788 1 4.732153428578163 28.923555010101214 7.810716790419787 1 -1 0
10 1 15.219283095177454 27.09535005568734 8.423019064961288 1 0 0
4271 1 15.603752752320629 32.10493241239536 8.124716571614995 0 0 1
3280 1 15.061545100832088 28.240366857997504 5.3833807299870315 0 -1 0
1945 1 1.24818668347948 29.198640156324505 9.981513364106842 1 0 1
4504 1 7.623417937752995 31.383751404093097 7.268793331493054 2 -1 1
581 1 11.95999096386483 33.80358503272937 5.870346558169204 0 0 1
745 1 14.253108444818379 34.401309826123544 7.46721599616255 0 -1 0
4207 1 17.115569664983642 40.601132365312566 20.7658648612996 1 0 0
2229 1 15.987686722764025 31.21867905278802 12.841374373057176 1 0 0
3715 1 7.555394550639055 17.50365210406379 25.1419155295441 0 0 0
3230 1 5.083698657766819 35.62806152840764 7.295560298737998 1 1 0
32 1 13.081221635502144 35.274645833070934 9.919140628711393 1 0 0
2165 1 17.26355454789394 35.62555754754178 7.429131841648284 1 0 0
479 1 6.593172995529331 42.52194417130638 7.398289377400057 1 -1 0
464 1 8.849922093105436 39.09920650281976 4.515698054401109 0 0 2
119 1 3.339185902641172 37.05869798715552 5.709753609011866 0 -1 0
1363 1 10.289022279336677 37.538992761145266 10.577248437146265 0 -1 0
326 1 10.65797563568999 33.57576605235348 0.12449845729321174 -1 0 1
3004 1 4.2817405963530195 16.017354668010395 0.9728661809585428 0 0 1
1018 1 3.48962900303607 39.06483239588173 7.838717036672099 1 0 1
2822 1 8.984726071026685 44.058667031600464 7.373182907842169 0 -2 1
4196 1 7.861719804268986 40.06971097602161 7.41946112875749 1 -1 1
2401 1 15.279036179959546 40.46680825760111 8.195697303321381 0 1 1
3333 1 16.536199435132026 43.401478540811304 1.4062599816561754 1 0 0
3578 1 8.006207594268732 46.802730240077835 6.974280210345682 0 -1 0
4156 1 9.445331373784978 39.86932043249169 9.678507768425161 1 0 2
1849 1 15.086358484744682 42.80634381494115 10.005109916706136 0 -2 0
2631 1 1.0071021899481227 48.933656962915734 6.29644601301127 1 0 1
1668 1 2.1182074202371606 44.838892546643486 7.503294680426395 0 0 0
1198 1 14.720818827825713 -0.05242597187201063 8.648812897950414 0 1 1
2855 1 16.535030567225917 47.00454576011522 8.23369833573494 0 1 1
96 1 16.092974538197662 23.819829338974305 24.60999742074518 0 0 1
3429 1 0.12128441495285919 9.756083255318977 15.102335490288802 1 1 0
1647 1 13.219529009073959 17.630189353280088 1.097325045771688 1 -1 0
1375 1 5.172043338732534 48.117016799748285 8.471625698548813 0 -1 0
1554 1 8.21398562300809 49.05487612973671 9.105781276148932 0 0 0
456 1 13.794071859355132 48.304924808370586 8.8407364765691 0 -1 0
4131 1 15.578755876349891 1.1457191591347144 11.22906771323203 0 1 1
538 1 4.57599100751497 50.33765271107868 9.961727057580537 -1 -1 -1
4408 1 7.7800648026779164 3.787250368020908 12.509521535169315 1 0 1
1428 1 10.083646193350242 2.004651173013061 7.7209221643352235 0 0 -1
2537 1 10.985499345633531 5.01980754192708 8.050755971175398 0 0 0
864 1 11.373663386777729 7.384314327611593 25.348782911934887 -1 0 0
1897 1 15.842166405038443 49.65896374317935 15.06457114623278 0 -1 1
2669 1 2.4388260085824585 8.541624723026159 9.59345973645886 1 -1 0
3109 1 6.6685866053158005 4.492868548892881 9.264210607212036 1 0 -1
2128 1 10.481258238911472 2.6655398137217006 13.148061597750415 0 1 -1
3468 1 11.119129600693999 7.1666683120871255 4.220061569427056 0 1 0
1170 1 14.023581726682265 3.351341145325741 13.247166942098865 0 1 1
3455 1 1.3007728405900139 6.377820065863543 10.776064810718335 0 0 0
3875 1 2.3990102684788397 10.967449051111329 10.697497595221172 1 0 1
2067 1 5.254356364742999 6.770470240262914 9.964476152820941 1 1 0
4501 1 10.073544595377843 6.552209929627437 10.344262034038259 0 0 1
1182 1 7.655351912555403 8.08616323474529 10.90663320549711 0 -1 0
765 1 13.514669755780904 5.975699607745061 8.65343419944741 -1 0 0
552 1 14.548835360937616 6.717559292744865 11.437888596991048 -1 1 0
2823 1 10.27050493251101 7.735001118789475 6.990614149420708 -1 0 1
2781 1 11.793284304749605 9.337824163548492 9.564201281482513 0 0 0
1709 1 11.849202161716311 8.005957151437993 11.55470967328182 1 1 0
1521 1 0.3378922524725588 4.836403471369269 8.54484435026635 1 1 1
1488 1 7.818231555940601 10.681000179666963 9.245684234375942 1 1 0
1366 1 6.7261343302205185 13.19342912911937 10.177469398481369 0 1 0
2660 1 5.904070707170707 13.108797096550454 7.5101057134015345 0 0 0
1435 1 9.730120732288412 13.92580341457706 9.254705997388053 -1 0 1
3709 1 9.248298433384162 15.646385888309508 13.750474422030432 2 0 1
2499 1 13.99594084593616 11.383614415163134 10.453481832903083 1 0 0
1474 1 13.024913358746652 13.703880981761403 11.301547361997327 0 1 0
1842 1 16.498991184599912 11.840985283172087 9.166123487552625 0 0 0
3145 1 6.215546945935607 14.186817673241999 22.173931662344756 1 -1 0
3132 1 5.727609308355668 16.783269786280048 11.735135456877138 1 0 0
1885 1 8.009429623284959 15.355012834444189 11.366664114230316 -1 0 0
2362 1 4.557472491898764 17.381993805185715 6.939697286718505 1 0 1
981 1 8.18401933269868 17.318635963690756 9.058872687280733 0 0 1
2238 1 11.036325936228762 17.592560281664458 9.410919978649707 -1 0 0
3206 1 15.484825032857708 14.921506232889346 11.93150466435047 0 1 1
54 1 1.015972744634058 34.07158446798026 11.389956254191217 0 -1 1
1788 1 3.8138322974448706 17.813142358168275 9.783180541859776 0 0 0
2740 1 2.4343738524246628 23.75268408654077 6.825027686976228 0 1 1
1798 1 5.991095797419563 20.832002049595953 11.194226983948802 0 1 0
2556 1 9.782991578536416 18.491076585122546 6.635449756353431 0 0 0
92 1 12.915635927878885 18.248270793918785 13.324311256828443 1 0 0
2876 1 15.92685442596904 6.515461239798299 14.032126944709068 1 1 1
1119 1 4.566665546299923 48.44807104681229 0.4683873552376935 0 0 1
2825 1 3.4430810824241784 22.93472282550969 9.191747375022786 1 0 -1
3416 1 5.5700309564384085 24.80167373798781 8.01958244382209 0 1 0
2729 1 9.961322114364137 21.304294940591237 11.736650576911103 0 0 0
3398 1 11.794395891076597 22.3328551609238 8.765094628277334 2 1 0
112 1 17.524281172938004 20.85034242439965 8.6911455153812 0 0 0
2436 1 12.283324908212808 19.96367368429194 10.466006163680989 0 -1 -1
2189 1 0.11122742591295331 24.530703981036165 16.29566055413904 -1 0 0
914 1 11.836587528064296 27.152481138754464 11.495376097405305 0 0 0
3606 1 8.761376381259053 29.156328050417923 13.73239845158794 0 1 1
3415 1 15.70976849214299 23.702186964060836 9.05310024748699 0 0 0
253 1 2.899632312572314 26.480133862640283 16.320689043267468 1 -1 0
1721 1 16.822769621924913 36.687756063914 18.860526535433145 0 0 1
3240 1 2.9517582602974484 27.22581885096971 11.2662357688657 0 0 1
3854 1 4.632532412342955 28.98941569669854 12.990353371079111 0 0 0
3975 1 14.285995548419505 30.787564138456254 10.487274507789296 1 -1 0
523 1 14.501301094233558 26.385165871871934 12.474061226975545 -2 0 0
4437 1 15.970509601779359 28.807362244940954 14.018168777566748 0 0 0
2092 1 15.565915964907514 28.326844870597018 10.831147215319362 0 0 0
1257 1 17.30269514583094 41.883468497294245 24.947850461572163 0 -1 -1
3401 1 7.063864980125963 28.303000579964866 11.744246931043303 1 0 1
3829 1 7.113282331932104 30.233401863738568 10.079666902308203 1 0 1
26 1 8.467373180800902 34.43193350167136 9.62483287592769 1 0 1
2879 1 12.529616700267713 32.89678536717188 11.748925777807653 0 -1 1
1154 1 3.834562168914889 31.345046000824052 24.661693125677655 0 -1 0
1369 1 4.7962627047896484 46.75765800380543 19.510671188055817 0 -1 0
1498 1 12.978409842075997 21.033702542295394 0.6394895648057504 0 0 1
943 1 3.374034079451484 32.84083870108022 12.363187934157004 0 0 1
251 1 6.821048846864899 32.265145349843635 11.861750070567426 0 0 1
3056 1 10.290438446176125 35.95995770997863 4.900535028030994 0 0 1
3972 1 14.306442509763194 7.521321030018004 0.24719201966811416 1 -1 -1
356 1 15.094812716691669 0.6284165811078297 1.538131337444859 0 -1 1
231 1 5.559743240602324 34.50318506188077 10.378280067081539 -1 -1 0
1846 1 5.617378414121375 38.11109247529295 14.906376441544726 -1 0 0
851 1 7.297226288539261 37.13348661790106 5.711112916798239 -1 0 0
135 1 7.020292472383478 38.42965993441195 11.45941104244888 -1 -2 -1
1927 1 8.018330445907507 37.00932440238203 16.31019632900199 0 -1 1
2632 1 14.593821353534153 37.40769618206006 11.514291243498013 -1 -1 1
3128 1 16.676345485806486 39.40788688530067 10.457812822031102 0 0 0
1856 1 7.595509700856278 21.94336829092439 0.20537858753787597 0 -1 0
2947 1 2.63052944096968 34.88166797991855 9.136610905656696 0 1 0
3247 1 8.16299855074352 41.4420351122304 11.90561332216048 0 0 1
3126 1 12.349869403727405 41.48881363780423 10.028190028142067 -1 -1 -1
3090 1 12.484735232614568 39.13075620631413 11.62444285657274 0 0 0
865 1 16.994544657769776 42.151305573156826 12.053098898951971 0 0 1
2025 1 4.836936621204601 42.26369164718899 11.851703413713343 1 0 1
2040 1 5.074874819478467 41.08843570037216 9.23968648250579 1 0 1
1074 1 9.987203346172082 43.49586448082852 10.213551371328009 0 0 0
2387 1 13.202687856858034 45.96371597498045 14.657309001018694 0 0 0
1902 1 11.98900681535353 41.87251493961713 13.213645046574568 0 -2 0
175 1 1.2050048190166127 16.831449341705845 4.729570929880341 0 0 0
3039 1 3.410730939316693 37.44997007425045 22.222430369070228 2 -1 1
13 1 3.18136511147932 44.53915655109303 10.959634173352862 -1 -1 -1
1914 1 6.5840013304421126 43.799921857531714 13.271025099237908 0 -3 0
1772 1 8.309332611747784 45.46619660670209 11.180853860486016 1 -1 -1
3384 1 13.950877341005054 45.34519071558175 10.681241438614716 1 -2 0
1433 1 5.394839643363976 45.941230178630846 10.113695104304176 1 -1 1
784 1 10.266298548992252 47.289993120507035 9.698109226400694 0 -1 1
1855 1 11.913708831645064 45.72739378096395 8.728922203657019 0 -1 0
1292 1 14.043695002088883 49.362818378343235 11.409169267081642 0 0 1
3648 1 12.163202830347982 44.49644837910026 12.758683151980327 1 -1 0
336 1 0.0889173379106829 3.355218152092717 11.548331538853569 -1 0 0
2232 1 2.1889382610693606 3.8020823019702683 13.789378586046048 1 1 0
408 1 8.363776279903973 1.9977838062145912 10.285705834385686 1 0 0
1463 1 12.998004032517253 0.7149924338826438 13.080930144818321 -1 1 2
2003 1 3.197283846492183 8.86784759656125 13.093145070513373 0 2 1
1545 1 3.896302483428065 6.068096938416668 12.613661557436528 0 1 -1
2195 1 11.383534645603472 2.531371962154801 15.933224720189067 0 -1 0
4431 1 13.482442492096835 8.24198876330363 15.439189513870698 0 1 -1
682 1 0.49905467432204387 20.392053710403268 10.156558503846254 0 0 0
226 1 5.239761408264559 11.0063761261786 13.814266518854922 0 1 -1
1768 1 7.638803116763051 9.17968055271322 13.649377906352624 0 0 -1
3591 1 11.782970985235734 4.8700598623445535 12.803650868845903 0 -1 1
2831 1 0.48658432378751126 30.677739678753195 4.461145105891147 1 0 1
1711 1 0.48118877469026555 33.510580602738244 4.596552675836637 0 0 0
1901 1 4.4019096308749175 12.643386347828011 11.731315951901017 1 0 0
553 1 4.369230761712214 14.977784782810225 13.224477419940953 0 1 -1
3260 1 9.862542506083825 11.174996798028403 10.36593530006943 0 1 -1
3317 1 14.268187226264798 10.121135462596753 12.84025835255205 -1 0 -1
31 1 11.075853374323676 9.600036904915529 13.796904334845053 -1 -1 0
4268 1 16.94490026617768 18.700312416619024 6.9194446163895 0 0 -1
2163 1 9.371339826584366 11.575147280480584 13.171383813202983 0 1 0
458 1 15.613984452786829 13.188627515007562 15.041301977711099 -1 1 0
440 1 1.8265634324285942 41.40561544520803 6.439236481713646 1 0 0
771 1 1.6018586880937442 13.898806147022272 16.653875766753817 -1 1 1
434 1 5.635471291353068 14.399308670420746 16.4525208344613 0 0 0
729 1 8.016871309863602 21.98401372930709 16.02589685619065 0 1 0
3752 1 11.357094665260526 13.316564276424005 13.554880493071096 0 1 1
4537 1 3.251118157740701 20.41354209102193 10.269481653042323 1 0 0
3769 1 5.87226704098432 18.302261596002054 14.482256018732194 1 0 0
1964 1 1.508286447322872 23.35816274891496 14.052300091276596 1 1 -2
1222 1 8.245715904532256 20.092207897404908 9.982830628624022 0 1 0
2 1 8.664596575291883 17.7886832113748 14.899897389317061 -1 0 -1
4014 1 16.672690250137883 21.771080983828412 11.360472173316996 0 0 1
276 1 2.2381872457376777 19.444224247285312 12.938720241524752 0 1 0
4230 1 6.3860417153516575 23.812950607454216 10.630883041964172 0 0 0
704 1 4.288428871285886 24.3850899870165 14.891930748322805 -1 -1 1
3698 1 6.990002355977186 21.789760077429527 18.64492885379876 0 0 1
2921 1 13.534493571260654 24.323041689461075 10.8773742325478 0 -1 2
1591 1 10.725398073424246 22.266116877832683 14.46901366870542 1 0 -1
164 1 13.762807477336688 22.09094406819101 12.845723479932978 0 -1 0
2788 1 1.156287170923453 25.821737786522657 18.706320585708525 0 0 2
1542 1 9.130119600125537 23.678853768495227 10.327307029049916 1 1 0
4338 1 10.581760033668607 24.966278435573166 12.270790124404645 1 0 0
2498 1 14.115868008381662 25.724764979048526 15.18087457574274 0 0 0
1056 1 1.6384677997152473 5.824559858343067 20.67352571528052 0 -2 0
781 1 6.959174019035035 24.190637514562415 15.57108913018162 -1 1 0
4204 1 5.177047706912012 27.068231642026138 9.707756685388986 1 0 0
2910 1 12.088907589019295 29.741398550352223 12.609946597137066 0 0 1
3203 1 12.617076400382102 32.277415181414455 15.31925646750587 1 1 1