LAMMPS data file via write_data, version 29 Oct 2020, timestep = 100000

8535 atoms
1 atom types

-0.1907542114088585 104.63700760188541 xlo xhi
-0.17982535657451493 51.15196366781697 ylo yhi
-0.17982535657451493 51.15196366781697 zlo zhi

Masses

1 18.015

Atoms # atomic

1966 1 2.775726987647862 0.02172610545758316 1.7361914602059596 0 0 1
1965 1 4.508792372731755 1.6769091893391175 0.17222643706002755 0 0 1
1967 1 9.162119303835942 -0.1160323259081528 1.419041103708692 0 0 1
1968 1 10.66365702741379 1.5122690475793907 -0.1506523811397737 0 0 1
1971 1 17.150691388720922 1.313967603052334 0.0004451738251166071 0 0 1
2150 1 18.93291926142947 2.731489865311164 1.5868083887046291 0 0 1
2644 1 23.860141854438382 1.0187535627673323 0.017553548291338567 0 0 1
2725 1 22.38406726644888 -0.14277805092413165 1.6742766711011912 0 0 1
2739 1 25.395789355291715 2.5870988583973533 1.8044664272416326 0 0 1
2646 1 30.130539884448606 1.1825613948691551 -0.0937967625539775 0 0 1
2737 1 33.08809010982526 1.120787167272102 2.902479629100235 0 0 1
1973 1 1.2804580147281235 4.869298444082037 0.48413495807417206 0 0 1
1974 1 6.031003163375834 3.4635124836740596 1.7080634576112164 0 0 1
1975 1 7.85455897335563 4.819863362235326 0.15763381111141295 0 0 1
1976 1 12.544740562095797 2.842918491412809 1.461745877808004 0 0 1
1978 1 15.794824277243313 5.7740031520776585 1.5486706294984283 0 0 1
2648 1 20.735548857245263 4.412550334527686 0.28275059541235587 0 0 1
2652 1 26.795623893781162 4.229999800246843 -0.12036007094940152 0 0 1
2653 1 31.727108357466797 2.8612132755636943 1.4404582629868137 0 0 1
2654 1 33.5729168381702 4.406269788563223 -0.08225028632711212 0 0 1
2075 1 3.1266128068263583 6.456786502444792 1.725444280072755 0 0 1
1980 1 4.898777188220848 8.039218265960205 0.14266715931877322 0 0 1
1981 1 9.337199462238507 6.494215302682113 1.9154584763114069 0 0 1
1982 1 10.54483456264366 8.008954247218533 0.017256383900978167 0 0 1
1984 1 17.45374052039591 7.714788055813505 0.12127898570432905 0 0 1
2649 1 22.301838007682147 6.354270580285255 1.8008686386187485 0 0 1
2656 1 24.18070876323562 7.455326591104222 0.11433191126620856 0 0 1
2745 1 28.22590503418716 6.018081270616912 1.4919931736674443 0 0 1
2658 1 29.874569373947345 7.764294116599624 0.3009794228322159 0 0 1
2659 1 34.614698946706426 6.1390980897166 1.7635805092218195 0 0 1
1986 1 1.2328001087904477 11.295341948745554 0.2238479493075291 0 0 1
1987 1 6.293272815545588 9.644996376385713 2.1110866191577555 0 0 1
1988 1 7.563754831155698 11.016020659519 -0.0005203964302074593 0 0 1
1983 1 12.594321064813707 9.580297067800299 1.7478325023913082 0 0 1
1989 1 14.305560657166158 10.921243534138227 0.14147713652381128 0 0 1
2220 1 18.957083126214563 9.597752390150427 1.6743547637553704 0 0 1
2747 1 23.87567222367816 10.805869089132171 2.8780502977037266 0 0 1
2657 1 25.774741052448086 9.00993219028526 1.9809392052103232 0 0 1
2663 1 26.718165583546586 10.755811899863351 0.3889485235440776 0 0 1
2666 1 31.393129266271178 9.25444198390786 2.004661006496665 0 0 1
2665 1 33.03271203383615 10.962810567837922 0.2507022327620016 0 0 1
1991 1 3.003988297346593 12.90429296121156 1.619685742612629 0 0 1
1992 1 4.6113211622812775 14.659696475055028 0.28479729622768235 0 0 1
2083 1 9.229228658656863 12.38487664579486 1.525318332452801 0 0 1
1993 1 11.082570314815907 14.019304457110174 0.1755743110108856 0 0 1
2087 1 15.617595559650315 12.844387628517374 1.6535688781709574 0 0 1
1994 1 17.514077211885656 13.970150645871232 0.02166039328981198 0 0 1
2751 1 21.992825023219908 12.329553681423604 1.5130663235151567 0 0 1
2667 1 23.52455864089488 14.143109599591542 -0.16981836196313183 0 0 1
2753 1 26.84360853556135 14.420532509009917 2.9906337102467098 0 0 1
2752 1 28.663774889578157 12.789649877940231 1.6175140963531647 0 0 1
2670 1 30.420613104195258 14.36518090116862 -0.0049583301334547025 0 0 1
1997 1 1.1393242447889416 17.38785359432837 0.3962454284852177 0 0 1
7051 1 -0.08049274392453754 15.450485830728736 1.647530357391077 1 2 -1
1999 1 6.474630141690228 16.140458869295415 1.7284510797191686 0 0 1
2000 1 8.04718279147477 17.523480428380417 -0.03556579083388969 0 0 1
2001 1 12.70413806806943 15.539596236525009 1.5573969261416485 0 0 1
2097 1 17.174517871157622 17.231783712759338 2.5845593691320263 0 0 1
2234 1 19.05636646717128 15.672258330819599 1.7315559898930104 0 0 1
2673 1 20.912013747822936 17.243247786612613 -0.07383872200454972 0 0 1
2755 1 23.64399377469584 17.348489117394273 2.8583258315588105 0 0 1
2668 1 25.324612736368866 15.938557657467928 1.2248608799959684 0 0 1
2677 1 31.78486881669795 15.782111458811954 1.7419621558216154 0 0 1
2678 1 33.07607292312455 17.733814316082128 0.21203386330964918 0 0 1
1998 1 3.185613294460034 19.298562355445263 1.604171729048153 0 0 1
2003 1 4.654113544386652 20.766963716164163 -0.13706870567215965 0 0 1
2099 1 7.925533084621229 20.260167488873734 2.932277865802135 0 0 1
2095 1 9.752560654373884 18.912268082717624 1.4529025434861433 0 0 1
2005 1 11.378052104615758 20.64247415544751 -0.04765814736498086 0 0 1
2006 1 15.7433484057247 19.270007615752093 1.145145563044688 0 0 1
2674 1 22.166053882231612 19.258616511802785 1.3513812911532337 0 0 1
2761 1 27.18977865229318 20.66460621335471 2.8915728590820233 0 0 1
2756 1 28.799599528086574 18.918606988401265 1.4602794124092895 0 0 1
2681 1 29.972539528043114 20.91795813335148 0.2124405946894944 0 0 1
2682 1 34.645585090162214 19.135966861207276 1.881026403552391 0 0 1
2004 1 6.206524002504698 22.083531239512265 1.7361951705979366 0 0 1
2010 1 7.72253865390259 23.580152816902228 -0.027701627102627607 0 0 1
2068 1 12.64556849978979 22.322843034671163 1.7139247516512672 0 0 1
2013 1 14.281061237771718 23.95463131828281 0.0628112323814364 0 0 1
2146 1 18.877089859301094 22.117262286332302 2.054743977594523 0 0 1
2683 1 20.36575124512008 23.543348240086335 0.3134247415643969 0 0 1
2680 1 25.299225640883204 22.245132737663823 1.66065469170479 0 0 1
2684 1 26.805672371284942 23.804594886367088 -0.0009217317167277417 0 0 1
2622 1 31.604114435860495 22.157632420377826 1.8541565450474145 0 0 1
2686 1 33.214660503140045 23.67076787988231 0.14749455836177872 0 0 1
2008 1 1.3637082290723284 24.12065002241853 -0.15641146280713575 0 0 1
2084 1 2.7347368277429913 25.492302457948377 1.9036375430250239 0 0 1
2016 1 4.4389634388165184 26.791315751591128 0.44243213276312965 0 0 1
2011 1 9.38408289643898 25.123065726075872 1.5229228169658606 0 0 1
2043 1 15.650983982828594 25.281703369002862 1.870733029002142 0 0 1
2741 1 22.085884727751104 25.399941069517123 1.713552796961989 0 0 1
2689 1 23.77011189279803 26.900656692352033 0.18107695904620497 0 0 1
2685 1 28.589124698908392 25.698915404853885 1.524969177123986 0 0 1
2691 1 30.673073052935273 26.871640296063266 0.12100559970905245 0 0 1
2092 1 6.3864169742955434 28.737902554569796 1.4960726330557979 0 0 1
2017 1 10.64932910814388 27.3435879356639 -0.021919933771313432 0 0 1
2061 1 12.477977497212631 28.48870684796948 1.6422930872472326 0 0 1
2018 1 17.26665373544598 27.001483802523826 0.49440031123586226 0 0 1
2232 1 19.08785610567549 28.58106192467199 2.1670904455128537 0 0 1
2696 1 25.51583655064766 28.78787238226889 1.4958306419349827 0 0 1
2695 1 27.381186106748654 29.91604596617897 0.04279879405850184 0 0 1
2692 1 32.1921394794718 28.493156306384268 1.7173625626758273 0 0 1
2019 1 1.4485442313394836 30.282631544305364 0.1655898285467699 0 0 1
2023 1 2.992431020161621 31.601903961387983 2.0222565749770656 0 0 1
2020 1 7.8349480669845075 30.42505550111253 -0.07959202985248702 0 0 1
2102 1 9.312817365077953 31.664211057968895 1.8082479649248173 0 0 1
2021 1 14.021663382122405 30.066457884158467 -0.004474258394804309 0 0 1
2027 1 15.711652932942876 31.691790665678 1.3996490469240581 0 0 1
2693 1 20.444270248977332 30.3200889715616 0.3225092031626915 0 0 1
2660 1 22.31884533481491 31.862492709171843 1.5266542862830061 0 0 1
2697 1 28.876071652578627 31.719697326532973 1.4883841632606254 0 0 1
2698 1 33.423149844749055 30.410685520518022 0.10543574036514564 0 0 1
2024 1 4.490552094165668 33.24922596948288 0.09181212552980939 0 0 1
2032 1 6.161824626645844 34.70156195131173 1.521680371431978 0 0 1
2026 1 11.020292161194911 33.4186814220392 -0.00626418698046427 0 0 1
2100 1 12.474227340486893 34.951368586208076 1.8864488385831564 0 0 1
2125 1 18.764199798757005 34.96850262988191 1.4409358340113856 0 0 1
2699 1 23.87812461084726 33.33542241256124 -0.15084387845987704 0 0 1
2704 1 25.44314505047939 34.92863285074516 1.656271426173888 0 0 1
2701 1 30.178513490688665 33.55324081890973 -0.1171872861027805 0 0 1
2552 1 31.65822259603818 34.95769191740929 1.7127343622313453 0 0 1
2031 1 0.9979129280232628 36.69331272771056 0.18917253574504345 0 0 1
2037 1 2.7335801096577064 38.23766995679121 1.5439136420526904 0 0 1
2033 1 7.491152709371627 36.58914490321865 0.2022172183276456 0 0 1
2030 1 9.461359022023093 38.40011454976245 1.674258435650094 0 0 1
2036 1 13.741861076902186 36.50369989680043 -0.09416074347051251 0 0 1
2015 1 15.39298575287045 38.01430110006143 1.4050830012517455 0 0 1
2702 1 20.46304040852075 36.50395412643316 -0.08201721335624824 0 0 1
2507 1 22.021154876361468 38.13508385000027 1.4802572036895396 0 0 1
2706 1 26.925462811104826 36.5932906999692 0.2314765181100754 0 0 1
2707 1 28.56516978419387 37.98922985519221 1.8432150540493542 0 0 1
2708 1 33.41403651426872 36.60996759013267 0.23887955854346876 0 0 1
2038 1 4.313867097581646 39.683956285278455 -0.12097808498376453 0 0 1
1821 1 5.883055069963362 41.18210158487601 1.6910302376213284 0 0 1
2041 1 11.26568518021389 39.96331757597228 0.3167277413882053 0 0 1
1819 1 12.56604728610068 41.536508626497366 1.6625081170741682 0 0 1
1996 1 14.011181511530332 39.818951377937736 2.890707406066713 0 0 1
2042 1 17.206495842719345 39.746039361745346 -0.07191571681947229 0 0 1
1759 1 18.84783684063327 41.235586222654234 1.77330668888816 0 0 1
2709 1 23.89853362742674 39.78638253949714 0.01722206115052194 0 0 1
2459 1 25.129854779947678 41.18839698312911 1.9296100471037678 0 0 1
2711 1 30.250596262924415 39.414840683927295 0.2700021678854834 0 0 1
2712 1 31.86527812560663 41.183359075369836 1.5954334915139345 0 0 1
2044 1 1.2738990522237954 43.08696032762671 -0.04457521304876147 0 0 1
1861 1 2.810990445552614 44.87415503808262 1.542942462988054 0 0 1
2045 1 7.5039345909903 42.978037406124386 0.17858856783492988 0 0 1
1639 1 9.48683530437689 44.811110835256216 1.5393633640606077 0 0 1
1747 1 15.832163446609105 44.485577674479856 1.743210802417378 0 0 1
2715 1 20.42829919017638 42.87667983974198 0.20374211541486548 0 0 1
2634 1 21.764590158128495 44.744015538430716 1.5744548548078134 0 0 1
2718 1 26.844440868913082 42.83874861802836 0.3310648766993761 0 0 1
2722 1 28.34510507674561 44.2198359570033 1.9752347885106003 0 0 1
2719 1 33.3679980752706 43.00078003808095 -0.1122863158004318 0 0 1
4877 1 34.73850219813236 44.59535265660428 1.6718919458965578 0 0 1
2050 1 4.609735592171467 46.13443783937858 0.18751537862386103 0 0 1
2058 1 6.110124571552098 47.874346656859004 1.8802935855996794 0 0 1
2052 1 10.869419554418029 46.46950867352372 -0.12471722043532821 0 0 1
1601 1 12.582247290604993 47.883819740332 1.460317657357105 0 0 1
1580 1 14.308453197061297 46.19386280167181 2.9836336805104584 0 0 1
2054 1 17.394587492473466 46.14875231327136 0.36231466821526226 0 0 1
2203 1 19.18389062629518 47.8537323646745 2.038379100172736 0 0 1
2721 1 23.51573066284264 46.05558945584447 0.006918344400480642 0 0 1
2728 1 25.052645875980396 47.64679915357728 2.0273881457547787 0 0 1
2723 1 30.023989100881934 46.02594099270033 0.2411317348940149 0 0 1
2724 1 31.47328339551864 47.26731489515099 2.0495808024381628 0 0 1
2056 1 1.1637138297773721 49.43143118679552 0.24839994911411628 0 0 1
2059 1 7.3433309725734555 49.47388501949423 -0.05710945336417304 0 0 1
1970 1 15.716992401357853 51.04795364008268 1.619656058310325 0 -1 1
2726 1 20.697069704157116 49.387487921385045 0.19679149090702608 0 0 1
2729 1 26.87688819697075 49.27859931638868 0.58831425205004 0 0 1
2730 1 28.76974483443167 51.11066681518855 1.7063091510625352 0 -1 1
2731 1 33.027658696009425 49.05952995294675 0.08227658802236243 0 0 1
2063 1 1.2591769847754064 1.7466935140514557 3.292255244609245 0 0 1
2065 1 7.6854450100563865 1.7105876473360604 3.255447597975922 0 0 1
2110 1 6.2073706575246685 0.11492812257036539 4.462126467229966 0 0 0
2067 1 14.413400384396123 1.8620395380887147 3.363732001514291 0 0 1
750 1 12.649470438406363 0.28006121835057374 5.178913049845841 0 0 0
2734 1 20.510474835409823 1.241041532182699 3.1816568950558697 0 0 1
2735 1 27.026613727496393 1.4573729549701233 3.4314428600602325 0 0 1
1365 1 25.507105457374934 -0.1754066438780768 5.2519803433633845 0 0 0
436 1 2.482930271805991 3.0317166663754946 5.499396747396206 0 0 0
2069 1 4.515291749400682 4.752774756941844 3.472240970600659 0 0 1
66 1 9.158742392787389 3.120889378089547 5.220890760237992 0 0 0
2070 1 10.90259667253256 4.737893807389675 3.303371560304692 0 0 1
1696 1 16.044817508048773 3.4799008705636645 4.863996887714851 0 0 0
2073 1 17.564111287026623 4.6899291611177185 3.2375756200963015 0 0 1
2166 1 21.73237511456314 2.8604096023597765 4.8832479365149375 0 0 0
2738 1 23.620840377757343 4.150833610972576 3.40658626482494 0 0 1
1376 1 25.30223735702261 5.588439803980905 5.201283485179614 0 0 0
2772 1 28.49172548797569 3.0633178053498678 4.857427872069437 0 0 0
2740 1 29.928955152128857 4.56105915392125 3.3136942352768575 0 0 1
2074 1 1.2825240465158707 8.125026884954014 3.537892483953498 0 0 1
596 1 6.16215088306869 6.462642493091333 5.422764717457137 0 0 0
2076 1 7.842054265402657 8.189394160319043 3.695830800503482 0 0 1
1401 1 12.471271926774454 6.424714435601201 4.7704763769668626 0 0 0
2078 1 14.16718844983244 7.723366848328855 3.0852728231107522 0 0 1
271 1 18.737530568800064 6.610120173758638 5.319903133599958 0 0 0
2742 1 20.416898106834136 7.8877963550523855 3.151455572181374 0 0 1
2744 1 27.079194480315238 7.459987550607701 3.6563716991053092 0 0 1
2774 1 31.495507416601757 6.072497521977698 4.8147039371827205 0 0 0
2746 1 33.24982524660866 7.7664470311007525 3.229622655423989 0 0 1
1741 1 3.3442130944756148 9.509317334155897 4.70249597221502 0 0 0
2082 1 4.6587290177290015 11.640985716138543 3.3410063452703627 0 0 1
679 1 9.40320780712922 9.698815517675136 5.151721538266762 0 0 0
2085 1 10.84473936357792 11.077424488098368 3.151524180815874 0 0 1
1403 1 15.246373649579517 9.580062687482107 4.786996486504379 0 0 0
2086 1 17.35727736975385 11.18582835079207 3.527904509774804 0 0 1
2768 1 22.32625374856399 9.478809995454611 4.607040835419844 0 0 0
1362 1 28.190907538774415 9.337102667498215 5.3318895129557635 0 0 0
2748 1 29.847810579569686 11.060076013575749 3.4124686601459993 0 0 1
2089 1 1.5775216887119712 14.381352278433665 3.0540933532386476 0 0 1
751 1 6.285632286972225 12.95457035023976 5.225591965499359 0 0 0
2090 1 7.936789469514311 14.280876839676019 3.1687319184868934 0 0 1
2157 1 11.833761789484067 12.983506837681109 4.729075354092022 0 0 0
2091 1 13.788058174236564 14.086800346493261 3.4021149401287785 0 0 1
700 1 18.82811187637635 12.532820966131393 5.367705274528593 0 0 0
2750 1 20.668666622771134 13.851225156774161 3.5421799589462832 0 0 1
2340 1 25.308886029071658 12.520601818501774 4.736552259284997 0 0 0
784 1 30.140217339533162 14.003267076425953 6.2348427933341934 0 0 0
1370 1 32.09978373403045 12.423837869839604 5.2091383227337476 0 0 0
2754 1 33.43800405513052 14.247542069507192 3.2213534358370164 0 0 1
2160 1 2.8167642051631394 16.02582870159647 4.919441450357057 0 0 0
2093 1 4.726777149683226 17.60586956327515 3.420177802895402 0 0 1
2129 1 9.512477071469359 16.13302133539431 4.65879122474719 0 0 0
2096 1 11.53159163709021 17.43591056934265 3.066974343381492 0 0 1
1553 1 15.307891166593913 15.90881683449797 4.46864164829427 0 0 0
2207 1 22.270481960664533 15.694699227202783 4.748621865293261 0 0 0
2766 1 28.386377589756236 16.017753348342918 4.643355848590905 0 0 0
2757 1 30.25796072021648 17.567460774065832 3.3849603356262725 0 0 1
2794 1 34.72398187415017 15.876849220591737 5.259253694948067 0 0 0
2109 1 -0.11104554220885356 18.921667199844993 4.534960808737194 0 0 0
2098 1 1.2991432724495062 20.73657604458417 3.202273752576165 0 0 1
1464 1 6.555803866937772 18.909684565087776 4.8200190129080145 0 0 0
1828 1 12.743848262231912 19.37021538712104 4.723059943275842 0 0 0
2103 1 14.533229163405741 20.86407020290568 3.172566171266401 0 0 1
2136 1 18.565618883151842 18.576547690192093 4.617659122575372 0 0 0
2760 1 20.520324600818924 20.305120520618644 3.37202392212026 0 0 1
2228 1 25.570206122168965 18.914048273010245 4.416425537478426 0 0 0
799 1 31.561087488391863 19.034728946013608 5.314219732358935 0 0 0
2763 1 33.3440206972354 20.681235713751178 3.489682583136087 0 0 1
85 1 3.0836796555964483 21.91321756127148 5.222975945499793 0 0 0
2080 1 4.381938059854478 23.795512338725633 3.2793888227818084 0 0 1
2156 1 9.401233827992174 22.170146821236845 4.641581650288658 0 0 0
2055 1 11.10486493779137 23.702570439931243 3.5065881703074395 0 0 1
756 1 16.069898894297 22.410450561497615 5.19166684755743 0 0 0
1372 1 21.78333122055429 22.152491537548244 5.174716507139769 0 0 0
2733 1 23.23824594196943 23.516185949177938 3.0674157717982498 0 0 1
1366 1 28.389023885170836 22.12931842285568 5.16378288381107 0 0 0
2671 1 30.00843507565059 23.540603975765396 3.3993200345842185 0 0 1
2081 1 5.965239959830116 25.41871371342013 4.864823503989467 0 0 0
2071 1 7.816269467591681 26.771815080792074 3.094780561941342 0 0 1
495 1 12.780365249296286 25.22493482851529 5.509529661628744 0 0 0
1995 1 17.680359067489775 24.07999000905586 3.271134665557585 0 0 1
1219 1 19.01648731023621 25.521529486738732 5.352432648096099 0 0 0
2749 1 20.637160840954383 26.95647256320996 3.380928212834968 0 0 1
2767 1 25.229522483947903 25.055629403098344 4.543272672487244 0 0 0
1273 1 31.537754910453806 25.207143486975927 5.362679395995212 0 0 0
2687 1 33.42996402133618 26.626465353050147 3.291474801559091 0 0 1
1979 1 1.3882408841837126 27.274156774975456 3.2891835451524325 0 0 1
1391 1 3.2334299117357173 28.81757393773294 4.6864636044539845 0 0 0
2049 1 9.393567433540833 28.268705777607256 4.798106920912205 0 0 0
2066 1 10.967647311202748 29.9585839318275 3.3069210413382546 0 0 1
2064 1 13.99213673391592 27.056021445797906 3.5043355747860385 0 0 1
2141 1 15.56601794893085 28.57483695230408 4.8090471135063995 0 0 0
2778 1 22.267230792258875 28.686494773537415 4.732856345187674 0 0 0
2736 1 26.8209176591049 27.005144718695146 3.3206766425730248 0 0 1
2764 1 28.74114370973294 28.73088050748433 4.756015002645426 0 0 0
2094 1 4.982169336095462 30.30859575018716 3.2024169993258735 0 0 1
2143 1 6.4112657557310335 31.872276697717066 4.7038428970433985 0 0 0
2142 1 12.544669153439582 31.76163319351892 4.6651426173985415 0 0 0
2028 1 17.299011215515165 30.36429891866799 3.38487357202685 0 0 1
2776 1 19.201122529127392 31.765180937936854 4.913015123513268 0 0 0
2758 1 23.882461767573968 30.30723443641791 3.3546397369833634 0 0 1
1373 1 25.49251069385496 31.58237808181237 5.186378646155517 0 0 0
2743 1 30.396796655568057 30.117776807835803 3.2494150354067335 0 0 1
2179 1 31.83657333468087 31.817888276071944 4.781335385948408 0 0 0
1898 1 1.2814245066821075 33.24370996755522 3.4048384769938322 0 0 1
1779 1 2.728331522753247 35.01572769371033 4.875310926594677 0 0 0
1806 1 7.912788897886937 33.48761792220813 3.2990387980769698 0 0 1
2106 1 9.725642364701237 35.17970034668707 4.866428015313919 0 0 0
1972 1 14.463971705550557 33.2348973262484 3.119201127392277 0 0 1
1611 1 15.740411831616305 34.66929991715891 4.664250591883515 0 0 0
2713 1 20.591964055588345 33.585206147867254 3.249207931541449 0 0 1
1374 1 22.237410958069287 34.8081067243336 5.155733381768016 0 0 0
2610 1 27.160337870212306 33.4068013323662 3.2959649008656395 0 0 1
2513 1 28.810792061506373 34.91118616549349 4.759878984832034 0 0 0
2598 1 33.540647973724944 33.21324242262338 3.1213273393783116 0 0 1
6200 1 0.2399847458011246 37.168009225553874 4.098120192057677 1 1 1
2079 1 4.439015514554501 36.50315314425271 3.1959769517924084 0 0 1
1452 1 6.168239403474823 38.014984747348024 4.851247725121843 0 0 0
2088 1 10.911972476285495 36.649780941313296 3.1995143652623566 0 0 1
1412 1 12.453313412258437 38.24798007218041 4.700796593559997 0 0 0
2101 1 17.059053089699248 36.47602642783525 3.249487471578134 0 0 1
738 1 18.684167808602606 37.77325946038488 5.2842833170833226 0 0 0
2491 1 23.784078167560263 36.522011227761155 3.2495918964071224 0 0 1
1363 1 25.426305216882778 38.12756089046897 5.258316650836595 0 0 0
2655 1 30.22531302630133 36.35241305241409 3.2771462583432944 0 0 1
2762 1 32.10439906392294 38.02878173962968 4.90330641320268 0 0 0
2077 1 1.2240884574465922 39.909062700049105 3.3636093255704553 0 0 1
1466 1 3.04638614817048 41.55508914734236 4.8319739583617345 0 0 0
2062 1 7.690092717723839 39.7621675928289 3.357832588085192 0 0 1
758 1 9.060495806587374 41.566171073645734 5.1900784449298705 0 0 0
1673 1 15.520429907368094 41.125138176688566 4.9079298305516685 0 0 0
2759 1 20.508603122921432 39.396169403884045 3.3194859649722 0 0 1
2285 1 22.3708215881624 40.817509523209424 4.4330075354626075 0 0 0
2732 1 26.927536649922555 39.74028959695245 3.4804466670170506 0 0 1
1364 1 28.80184041085109 40.94548980604307 5.33929569881057 0 0 0
2647 1 33.36079419256751 39.84316913426299 3.406998482708383 0 0 1
1892 1 4.508117371532951 43.226223131839646 3.174887968381046 0 0 1
757 1 6.228254193998324 44.662910254460684 5.176638704587058 0 0 0
1774 1 10.835172843577059 43.160990976413814 3.3740540538026873 0 0 1
1437 1 12.731607389280503 44.662478605074085 4.706078899000891 0 0 0
1701 1 17.20356292431308 42.740843142469984 3.2983810273349783 0 0 1
706 1 18.811197865717787 44.10768042655671 5.149277465600594 0 0 0
2611 1 23.45718999873258 43.01002605946117 3.1105343995477406 0 0 1
2769 1 25.508831866479152 44.090091794976004 4.884242248903223 0 0 0
2445 1 30.43533405828358 42.67136658977036 3.628620670191581 0 0 1
1317 1 31.848511068938002 44.26783660703171 5.358438953250582 0 0 0
1684 1 0.9286671796617871 46.22341491783499 3.372443775910844 0 0 1
2158 1 2.5567291044684204 47.68393440256422 4.822507360894564 0 0 0
1666 1 8.018741512369443 46.243274871590714 3.4687545217195273 0 0 1
325 1 15.487512903764696 47.69395529923837 5.297678846393463 0 0 0
2405 1 20.33194296898396 46.02608318461019 3.639065631018615 0 0 1
2773 1 22.05361479211553 47.44222139042968 4.914685012534191 0 0 0
2358 1 26.826553263725348 45.978700736945214 3.3850880702192763 0 0 1
1011 1 28.35283787209395 47.51886415136116 5.543808580598361 0 0 0
2297 1 33.44840451582542 45.797870865802395 3.4581822072610713 0 0 1
2952 1 34.72770885304617 47.74286355172491 5.163192578569158 0 0 0
7136 1 0.309989131259232 49.65092399980543 3.740817421755402 1 0 1
1496 1 4.327717762768054 49.384218169774115 3.390015436963568 0 0 1
2120 1 9.589551647444207 48.274767770691355 4.862597800046502 0 0 0
1459 1 11.021460586985258 49.82233288082362 3.1431775834349547 0 0 1
1450 1 17.186491539429635 49.001482855506 3.271762221884896 0 0 1
2346 1 18.994908968987577 50.69154541434932 4.631716816829517 0 -1 0
2292 1 23.750396291286826 49.28613828869267 3.685965007840403 0 0 1
2205 1 29.846398789409186 48.82558236309386 3.1516595128005087 0 0 1
2175 1 31.337727534339564 50.798490373698385 4.690792945781704 0 -1 0
2 1 4.736574846564051 1.7167112581388881 6.515048640215446 0 0 0
1 1 3.146764090066277 -0.1538810787613834 7.960220450591111 0 0 0
4 1 10.594759900373312 1.3875534181570288 6.564310359539162 0 0 0
6 1 17.454836139171995 1.3721269000270935 6.4596577171908915 0 0 0
766 1 23.461358647143456 1.3486424416018028 6.510249740904596 0 0 0
769 1 25.396707518619657 2.4191098715526964 8.291448443978819 0 0 0
767 1 30.090246421760046 1.3414425482973729 6.516741987839166 0 0 0
38 1 -0.01839726941738129 3.079705475700469 9.012578466098864 0 0 0
7 1 1.035948143649378 4.734811315618814 7.16976358719466 0 0 0
103 1 6.207193404060831 3.0318900058293683 8.43149404197108 0 0 0
8 1 7.678389171865956 4.761958895841919 6.926284616696522 0 0 0
105 1 12.390624136900398 3.035267313074985 8.06695326999199 0 0 0
10 1 14.030123982831649 4.744072747106346 6.520395503008168 0 0 0
754 1 18.939856310307174 2.9094568072468387 8.254420762964356 0 0 0
768 1 20.34631624995408 4.637437971291482 6.680810450106717 0 0 0
771 1 26.836234534970203 4.354477581906337 6.987075781543151 0 0 0
845 1 32.08422519675717 2.845151661299087 8.076024826420731 0 0 0
772 1 33.39958696178105 4.60226394762011 6.350430621950771 0 0 0
12 1 2.8243314514669833 6.3196444425313905 8.668129229436486 0 0 0
13 1 4.437719894661891 7.837836537999028 6.890967680692595 0 0 0
9 1 9.550970536105188 6.290608670230762 8.32956107039551 0 0 0
14 1 10.81362291719536 7.956921650161103 6.663192636457446 0 0 0
16 1 15.337307240048162 6.078561905392972 8.406497460155014 0 0 0
17 1 16.927749831625928 7.994555047380981 6.797427187860928 0 0 0
770 1 22.130107048326817 5.9837762089403075 8.474801146532021 0 0 0
774 1 23.71516365903494 7.761997638809282 6.671202729473482 0 0 0
850 1 28.242112649256143 6.0366313204209225 8.384985308406579 0 0 0
775 1 30.05241257753738 7.369946895142362 6.783106316404073 0 0 0
18 1 1.4035529385702283 10.962007789090345 6.521886668386323 0 0 0
20 1 6.077986298102974 9.470046207359099 8.195166379213225 0 0 0
21 1 7.75905382992369 11.230805585484426 6.785227280829425 0 0 0
110 1 12.254056198384703 9.70688431840098 8.216971496308846 0 0 0
22 1 13.433350772121367 11.344053827378225 6.429250808558954 0 0 0
729 1 18.506956423788594 9.837177236763083 8.295303571389645 0 0 0
776 1 20.905238727312465 11.11091498787117 6.642606004212825 0 0 0
859 1 25.15025197779144 9.062355337953655 8.71268047960412 0 0 0
778 1 26.76493612533038 10.995416139031608 7.302294505777707 0 0 0
860 1 29.923972645200458 10.566069010045107 9.431242490112448 0 0 0
861 1 31.782666845455026 9.148747880687392 7.925871401624498 0 0 0
779 1 33.57604696099593 10.918332925441078 6.654496161322838 0 0 0
24 1 2.9699698508311134 12.715751760891388 8.460802384332327 0 0 0
23 1 4.573718611565005 14.33057288774956 6.828935510415394 0 0 0
25 1 9.210711811488327 12.80968184446306 8.95673008508795 0 0 0
26 1 10.809914418791289 14.51429811776762 7.094700713811542 0 0 0
122 1 15.577690011211619 12.60189721827792 7.887215809966234 0 0 0
27 1 16.95063938985266 14.354858334558392 6.285886971730049 0 0 0
858 1 22.423766427630802 12.522864389232987 8.23117290219523 0 0 0
782 1 23.909200828085154 14.119797961977529 6.63923470098173 0 0 0
783 1 28.591733538856968 12.669133742540472 8.007884143283823 0 0 0
29 1 1.088407273696163 17.23484955749156 6.658963022194208 0 0 0
116 1 6.016847980221416 15.87651959879172 8.659357629907218 0 0 0
32 1 7.802979337357921 17.244464378998785 7.02661845310107 0 0 0
120 1 12.531522845555 16.106988901152587 8.408982424680245 0 0 0
33 1 14.12162533038509 17.51391418577069 6.65253239390705 0 0 0
744 1 18.640693985623894 15.789936544922538 8.163145053529604 0 0 0
785 1 20.3242135011083 17.201421079513988 6.389047930898135 0 0 0
867 1 25.487868316356835 15.72062646889348 8.248821921227545 0 0 0
788 1 26.87625686782516 17.399977833587844 6.763009831498626 0 0 0
789 1 31.380071702791565 15.505755477898093 8.361928440361533 0 0 0
790 1 32.945884203831675 17.34032298582437 7.006322034869746 0 0 0
30 1 2.7340390121648452 18.839507680170275 8.045315927154446 0 0 0
37 1 4.645967435826252 20.151397809517487 6.687183365886587 0 0 0
124 1 9.543757171231446 18.79581037295861 8.373266329590269 0 0 0
39 1 11.071066662510383 20.9435156942945 6.790060348206934 0 0 0
35 1 15.826220493599603 18.951989873221883 8.142476458813316 0 0 0
41 1 17.20054675989512 20.390822283778807 6.4537796130666285 0 0 0
872 1 22.269422502496646 18.68107724366476 7.912822834671298 0 0 0
791 1 23.74943428025725 20.42759369278348 6.337552739034223 0 0 0
794 1 28.399554524428922 18.917589745945083 8.540605650007938 0 0 0
793 1 29.878394725780062 20.331168166183364 7.057630475922636 0 0 0
43 1 1.502091214833421 23.970957202519152 6.559375273416147 0 0 0
11 1 -0.15894647385249727 21.982486720035922 7.752969604876732 0 0 0
135 1 6.060661284895211 22.120189341037435 8.234785938961778 0 0 0
44 1 7.465013056748888 23.86398335224328 6.7343699405240125 0 0 0
40 1 12.707767357817858 22.424646852212916 8.346047295749425 0 0 0
46 1 14.56728147385511 23.95155238307513 6.874228819130213 0 0 0
803 1 18.996371549269508 21.92430360679704 8.389238821050432 0 0 0
795 1 20.321010355035366 23.627233185550253 6.92360428965931 0 0 0
877 1 25.380704215710363 22.19255006662022 8.116572060748393 0 0 0
874 1 31.615041431512722 21.9438283393141 8.807645493201077 0 0 0
798 1 33.29727868983813 23.739901372539226 7.2325288430433465 0 0 0
133 1 3.023260190111884 25.279986369163364 8.139206008466486 0 0 0
45 1 9.42349889780891 25.200255887695683 8.280186403258845 0 0 0
50 1 10.762922682881568 26.785803042737616 6.61910901322353 0 0 0
47 1 15.928451332484112 25.550695686812347 8.511517138244628 0 0 0
796 1 22.42006985820313 25.265652826205457 8.270639889255207 0 0 0
801 1 23.89218776861596 26.90120398240202 6.472734545131374 0 0 0
797 1 26.89041099904651 24.02802297474968 6.576961141713557 0 0 0
804 1 28.733006589445935 25.34985811476604 8.197982002404602 0 0 0
335 1 -0.018079839855226876 28.60634566216005 8.174607024375666 0 0 0
49 1 4.672776468987827 27.244100047144155 6.5503542981024 0 0 0
145 1 6.4028356127461485 28.581566659417707 8.050401303520609 0 0 0
147 1 12.419872837770404 28.398410827107025 8.18072190155838 0 0 0
52 1 17.031794243223747 27.18475332462349 6.777510100241583 0 0 0
1203 1 19.02212509451828 28.49494322477196 8.272114773799224 0 0 0
802 1 25.51540293725129 28.561444765918015 7.995752191968929 0 0 0
805 1 30.13585246312195 27.12520004022882 6.700321967063926 0 0 0
883 1 31.675327693618225 28.445900381361394 8.672284068359339 0 0 0