LAMMPS data file via write_data, version 29 Oct 2020, timestep = 200000

4608 atoms
1 atom types

-0.03657280007798036 57.30708280007839 xlo xhi
-0.03250915562371759 50.93962915562173 ylo yhi
-0.03250915562371759 50.93962915562173 zlo zhi

Masses

1 18.015

Atoms # atomic

25 1 3.330597253617104 0.11805010815834821 2.7903397411060213 0 0 0
29 1 4.915731400370842 1.9831398842574748 1.3494190685116851 0 0 0
281 1 9.338476649439569 0.015026390264193668 2.906725721016366 0 0 0
285 1 10.756683934400733 1.6549502996201957 1.3985358788667654 0 0 0
1504 1 16.266987680109303 40.93779042255906 25.412522324628306 0 0 0
541 1 17.59658047618028 1.6395691603553817 1.2941910842054603 0 0 0
30 1 1.2259905131593063 4.992361856038935 2.0022080967681974 0 0 0
286 1 7.848892043161324 5.019429578558139 1.759445347443247 0 0 0
313 1 9.715964995649108 6.543582655211361 3.158593903333477 0 0 0
542 1 14.181942501421052 5.001596043969576 1.3547502028971965 0 0 0
122 1 0.034610814515389166 22.18930125522477 2.5836985474020135 0 0 0
57 1 3.009113087414982 6.572533015475392 3.4961661255021683 0 0 0
61 1 4.617755564410035 8.086259175661375 1.7242323002369593 0 0 0
317 1 10.974903140685887 8.204993985377957 1.4971272822839357 0 0 0
207 1 0.12589715646499447 38.1580444478448 12.117477554571241 0 0 0
569 1 15.485280529931238 6.332159650127062 3.235303975923818 0 0 0
573 1 17.071044653150594 8.24251667966579 1.6309669674384202 0 0 0
62 1 1.5925139566306825 11.201240320536693 1.3562369818416895 0 0 0
1312 1 15.830294940939504 3.237192706633664 25.38491837895817 0 0 0
314 1 6.253196937064341 9.713667514037049 3.024594549470205 0 0 0
318 1 7.929319416923129 11.469247417541672 1.6188029478252572 0 0 0
574 1 13.586924767204797 11.58216252681 1.263873620966323 0 0 0
93 1 4.753354225569499 14.559896400591025 1.6623826046659356 0 0 0
89 1 3.1543230748095676 12.949825454335336 3.2894491559699715 0 0 0
345 1 9.376707180895293 13.043479231848197 3.783918028806414 0 0 0
349 1 10.971205551252579 14.74308118188091 1.9273660293926886 0 0 0
605 1 17.093866879130093 14.584110408987126 1.1209315052225097 0 0 0
2431 1 19.063670782779212 19.105925626834054 25.345451403631714 0 0 0
94 1 1.2782953286893175 17.45562980911868 1.4929101099143385 0 0 0
121 1 2.9190862536259865 19.055567646832333 2.8751848996146556 0 0 0
231 1 0.2094699819503019 44.095803553833676 19.163271230348446 0 0 0
350 1 7.973115712465118 17.465216347530944 1.8594840404192343 0 0 0
606 1 14.273174687320537 17.733873536950952 1.4864983980534523 0 0 0
199 1 0.0003229616972646454 37.946857465091156 18.88462643308003 0 0 0
633 1 15.972755589361348 19.16771896067778 2.972059622483147 0 0 0
58 1 -0.014312353547907719 9.962057957152963 3.290924774930254 0 0 0
125 1 4.825390521670201 20.363598701670533 1.5210474402458196 0 0 0
26 1 0.17474657743029423 3.342124698801568 3.839602125431921 0 0 0
381 1 11.231589585848608 21.153386481305656 1.623621798183613 0 0 0
634 1 12.863475739306764 22.63016072292068 3.1750316325741568 0 0 0
637 1 17.34303911812996 20.602318881522322 1.288330271196436 0 0 0
1344 1 15.499329251857944 9.818325428814136 25.263390354854117 0 0 0
126 1 1.690762371310703 24.17192242489222 1.3936153098623345 0 0 0
382 1 7.636143598234405 24.065263250401458 1.568095210189405 0 0 0
409 1 9.588868329721016 25.39760498771629 3.1093644774143434 0 0 0
638 1 14.717519882392612 24.152574686937342 1.7075426779459753 0 0 0
665 1 16.07468570456702 25.747013928178532 3.340014726647289 0 0 0
740 1 17.460624329120506 49.52845233198319 23.930319559771156 0 0 0
157 1 4.85212069300156 27.435436946358646 1.3846208707775087 0 0 0
413 1 10.924352046896313 26.978488074884275 1.4531733360582133 0 0 0
42 1 0.13896000418712617 10.128857330746373 15.965219645279431 0 0 0
669 1 17.1747830062406 27.376264798994075 1.6111084682044317 0 0 0
158 1 1.7462351228403021 30.66906588083411 1.2201094834015052 0 0 0
513 1 15.9610902625298 0.10180232763591726 21.915340899890126 0 0 0
151 1 0.260518045666899 25.65755867277666 6.228085533859728 0 0 0
414 1 8.08495969466336 30.464894715532033 1.2476500444119196 0 0 0
670 1 14.288431404130364 30.309427388068418 1.5735804398131117 0 0 0
215 1 0.37320794027969145 38.40634653763698 6.036100842926877 0 0 0
697 1 16.060927290098206 31.929221789327876 3.2056250314088084 0 0 0
185 1 3.3123823978899427 32.064230915440405 2.992039743830793 0 0 0
189 1 5.031162114934217 33.691065643481835 1.1674369852209503 0 0 0
445 1 10.958548599485287 33.513906023430025 1.370270353610505 0 0 0
698 1 12.336874239994302 35.014857766849175 2.948028277331566 0 0 0
701 1 17.49485914407043 33.39931853111666 1.3962955175746408 0 0 0
190 1 1.553912089606702 36.86330504888237 1.498209001224885 0 0 0
288 1 9.324890636168982 3.3831874540447195 0.05906810160664004 0 0 0
442 1 6.366702994977423 35.24643411338755 2.876608151147377 0 0 0
446 1 8.164822306830725 36.8525707622738 1.5245884839827804 0 0 0
702 1 14.205314626064757 36.25682145726752 1.1854066742689862 0 0 0
484 1 11.264319056682178 48.966257735203925 23.938074617809075 0 0 0
221 1 5.118694333346134 40.29028334779866 1.297150706296298 0 0 0
194 1 0.12408751058187789 40.90009627268351 22.50926410012576 0 0 0
39 1 -0.013371622816281008 6.26068939933574 19.133299983463708 0 0 0
477 1 11.09451239326177 39.934566887849186 1.2859508968602387 0 0 0
733 1 16.83624029440917 39.50995213584207 1.3508630621570779 0 0 0
729 1 15.613148110135707 37.82567165022532 3.0379608667562166 0 0 0
222 1 1.295788283648402 42.85745211851341 1.6605624426580918 0 0 0
800 1 3.052395401126727 3.720204796287445 25.28163968643575 0 0 0
478 1 7.753627450191747 42.99559584416393 1.511033198420427 0 0 0
23 1 -0.016219474749112298 50.93394749223103 6.54179944106809 0 -1 0
734 1 14.270279201600742 42.98921475722889 1.3087435652343244 0 0 0
1536 1 15.929934401489872 47.47468816847727 24.96967192518213 0 0 0
253 1 4.726839582030982 46.18219155069656 1.4333533904566311 0 0 0
509 1 11.470908799913888 46.50081395051261 1.4268245243927933 0 0 0
128 1 3.2676983892092575 22.120235859594914 0.0611471530580531 0 0 0
765 1 17.35435368100034 46.10416659319054 1.5716944840059672 0 0 0
257 1 9.700503055392183 0.01954294648579946 21.933681818775334 0 0 0
202 1 0.050180001432372195 40.92001579978803 16.14761782208169 0 0 0
254 1 1.5240311314154735 49.708252373773846 1.387856786925332 0 0 0
1 1 2.9005543330920296 0.03220154567554791 22.2228066995963 0 0 0
506 1 6.2926425310795 47.69117045828095 2.959751874010449 0 0 0
510 1 7.672371756087878 49.7617085670136 1.3370284176867533 0 0 0
762 1 12.908467425475209 47.9806956802575 3.2496114498651223 0 0 0
766 1 14.37893258374524 49.61696525731304 1.4649939997805919 0 0 0
27 1 1.91303917415155 1.4367626168149994 5.117861415464788 0 0 0
279 1 5.962855045506407 50.73817030549391 6.4268069367718725 0 -1 0
283 1 7.559542757514383 1.336166791759736 4.627062405953379 0 0 0
535 1 13.078131588901094 50.64028167485945 6.1977622471313785 0 -1 0
539 1 14.513200369985855 1.8164633674716346 4.281860499712051 0 0 0
537 1 16.103856526822646 50.92653558001787 3.030152318431682 0 -1 0
98 1 0.18592987498689928 22.396761882609805 22.394875732530117 0 0 0
28 1 4.458395887978109 4.964023691015517 5.002067765363906 0 0 0
282 1 6.382023965576837 3.2944498835919873 3.260227027442027 0 0 0
284 1 10.927509149606253 4.655295942937022 4.602681894488253 0 0 0
538 1 12.547265431360717 3.297817256103687 2.8967585937393343 0 0 0
536 1 16.271811805315778 2.9342759136124137 6.226270925097629 0 0 0
540 1 17.32256734394522 4.6422902193923505 4.430332517595966 0 0 0
59 1 1.4350885738507373 8.332445858901911 4.991051651415818 0 0 0
315 1 7.750327802745031 7.792721047514892 4.514184522485544 0 0 0
570 1 12.411099223018969 9.949808938751053 3.0463355243263464 0 0 0
571 1 14.11572210749734 8.321720530722736 4.762524608550164 0 0 0
60 1 4.605598307542241 11.07354710242396 4.810607784505112 0 0 0
316 1 10.871943858401645 11.129907109385433 4.9990230594228215 0 0 0
572 1 16.854315341346396 11.39405179938419 4.770684022812045 0 0 0
91 1 1.51562446230442 14.702356946640924 4.580738651058376 0 0 0
346 1 6.192238464520724 16.101295532983624 3.4874203286337826 0 0 0
343 1 6.238165552529427 12.695908661656244 6.370380445102346 0 0 0
347 1 7.693853366009105 14.640885613455874 5.094130161003301 0 0 0
344 1 9.42439999110911 16.059461863130096 6.867099490701856 0 0 0
602 1 12.687749670387538 16.331086883594267 3.2377816306419467 0 0 0
603 1 14.226399681648887 14.305459794453787 4.35532520481259 0 0 0
601 1 15.724956187745486 12.836305827850214 2.717549851962227 0 0 0
92 1 4.609008492430175 17.824574199286506 4.834540349954346 0 0 0
377 1 9.708772849710556 19.011998880234426 3.202170598521278 0 0 0
348 1 10.928123686261578 17.395833553904584 4.984841163016828 0 0 0
600 1 15.8758521821578 15.902015145722888 6.150145208188745 0 0 0
604 1 17.193091400252726 17.53222365806455 4.489221172432773 0 0 0
130 1 0.08242833953939231 28.520784989268755 22.40774322965269 0 0 0
123 1 1.6001911942145723 21.047668679288584 4.620417708043363 0 0 0
120 1 3.1128663125708496 22.87223331081574 6.280073090286454 0 0 0
379 1 7.903855090111196 20.79889487859963 4.596999843201009 0 0 0
635 1 14.3712157170624 20.64678389646977 4.463180962248953 0 0 0
153 1 3.2074566544766343 25.477100932874993 2.9687987925394577 0 0 0
124 1 4.979655504215527 24.003264254345808 4.906085881402682 0 0 0
378 1 6.2359228873597 22.326598808254506 3.0640975637630112 0 0 0
380 1 11.196737927090687 23.975148893481723 4.6188615872715495 0 0 0
636 1 17.697006505630334 23.998346342214482 4.710907339557088 0 0 0
155 1 1.6977848376374964 27.049270165037044 4.535204898682407 0 0 0
407 1 6.650706718747223 25.911985216173168 6.198172019522473 0 0 0
411 1 8.101743191401413 27.302408262859284 4.60456745568129 0 0 0
663 1 12.524797429639325 25.600843517443646 6.259833852409437 0 0 0
667 1 14.267897336027227 27.121021660830465 4.917727638052224 0 0 0
250 1 0.06423196966478617 48.08288641774472 2.848997945989013 0 0 0
152 1 2.9932102628061963 28.942889173573874 6.3778867300504585 0 0 0
410 1 6.577090670381419 28.768969247980802 2.8802553167652385 0 0 0
156 1 4.781598727126011 30.35783210381844 4.6495749401750155 0 0 0
666 1 12.57642809384004 28.58635218945171 3.010192561894884 0 0 0
412 1 11.481893560217264 30.49779795816059 4.202294733843191 0 0 0
408 1 9.717713963148233 28.778142590063357 5.995962678669167 0 0 0
695 1 12.994783562743907 31.676746505901644 6.269077337469203 0 0 0
668 1 17.655706399462343 30.29068698286991 4.816234548525214 0 0 0
187 1 1.3933819837244792 33.55304538946977 4.5729517387952825 0 0 0
441 1 9.454594586704808 31.854305623357856 2.9262133826745544 0 0 0
443 1 7.852126320196427 33.520712746277056 4.3125031514589125 0 0 0
699 1 14.359268521551613 33.66848927600118 4.62878683145582 0 0 0
696 1 16.023101439771683 34.77934510912084 6.244572464517375 0 0 0
184 1 3.152913186902491 34.98073683714259 6.0161928075913815 0 0 0
188 1 4.710595914856796 36.67957594404514 4.709013704629987 0 0 0
471 1 6.566925560070071 38.38708234788686 6.264765466745062 0 0 0
473 1 9.313578731967496 38.17703974389926 3.1137969310682085 0 0 0
444 1 11.034609355111789 36.597452172197535 5.077068238000362 0 0 0
700 1 17.488984747360117 36.328468233840866 4.384602636705617 0 0 0
217 1 3.422291659791542 38.8369849759478 2.8649134707491495 0 0 0
219 1 1.6768344899209395 40.07457999585732 4.771374102854889 0 0 0
475 1 7.6614913491323655 39.78537462469224 4.637781938890171 0 0 0
731 1 14.242411895165626 39.681334660257434 4.631551049158944 0 0 0
220 1 4.761047273165267 43.14681923062818 5.046660811027933 0 0 0
474 1 6.227796145092351 41.652752760081995 3.17341228137758 0 0 0
476 1 10.985103651389652 43.11424842720322 4.4356456507603195 0 0 0
730 1 12.689265483802632 41.510846815067325 2.9169497300139566 0 0 0
761 1 16.06206997166419 44.36031269393355 3.1294912205303995 0 0 0
732 1 17.791087677154792 42.43408448960565 4.72671055169954 0 0 0
251 1 1.5033324334452218 46.06558433135899 4.522985375775783 0 0 0
249 1 3.148131379261963 44.350154644502055 3.145696856187472 0 0 0
507 1 8.066226393225948 46.13288707579078 4.512908144734317 0 0 0
505 1 9.459908630987806 44.783919897168616 2.769000495917162 0 0 0
763 1 14.434742132122954 46.17191948136488 4.54061613827143 0 0 0
759 1 13.051282067639706 44.2576465939117 5.9607944591239095 0 0 0
252 1 4.828758541218904 49.51415555818636 4.415159808433925 0 0 0
248 1 3.365772208225927 47.64142205798842 6.202405373558376 0 0 0
508 1 11.012916135551807 49.50516349784864 4.780329255567864 0 0 0
764 1 17.7624448496534 49.34340770831686 4.502023710013386 0 0 0
226 1 0.21546018938636385 47.31462602589099 22.72865126692198 0 0 0
228 1 4.789885671571113 49.08549679635635 23.84338014079423 0 0 0
17 1 3.0083970968411236 0.0249789915471094 9.571216541127544 0 0 0
21 1 4.592301620057908 1.740830640009996 7.957648258574276 0 0 0
277 1 10.911238424952268 1.2421234074602037 7.197864479473442 0 0 0
533 1 17.61024783934745 1.0853426444639935 7.929003959372151 0 0 0
24 1 3.0018049691450446 3.5227894737998464 6.894238042818844 0 0 0
22 1 1.430370293319015 5.285453890061095 8.502970960563538 0 0 0
274 1 6.28369852914112 3.1316297658023284 9.731463792030455 0 0 0
280 1 9.268111292771586 3.1001462607591224 6.084232819000108 0 0 0
278 1 7.794887237295708 4.52219114803301 8.01522375272652 0 0 0
534 1 14.435345459218523 4.560758764176601 7.681186682998186 0 0 0
56 1 3.0787365052693465 9.779556307684654 6.63603566831908 0 0 0
53 1 4.827195622189842 7.921319295248965 8.090099547900614 0 0 0
311 1 6.3753212726968975 6.482743808593445 6.455078578882753 0 0 0
309 1 11.048447899529533 7.740729198144146 7.615569420229106 0 0 0
567 1 12.95367528609342 5.9708686206914585 6.284513987407137 0 0 0
561 1 15.841295578906918 6.136231160973918 9.425300404203384 0 0 0
565 1 17.242712577748314 8.029260143751273 7.9729036022513515 0 0 0
739 1 14.154876653876757 45.78491481119164 23.623370912995377 0 0 0
54 1 1.3290923949254199 11.293541759975128 8.137537704520279 0 0 0
312 1 9.137231985274397 9.238346006144425 6.261939055999764 0 0 0
310 1 7.872508319217069 11.142295556783745 7.669231853284569 0 0 0
337 1 9.232176625884959 13.045193407747428 9.284451834086063 0 0 0
568 1 15.88738442853498 9.627834143649554 6.307011051486332 0 0 0
566 1 14.347171578915225 11.044850895159351 7.578111169559303 0 0 0
593 1 15.77492691949514 12.769878212697426 9.180365875261485 0 0 0
81 1 3.0909240236241815 12.790604134361026 9.581334381833669 0 0 0
85 1 4.7360148397916255 14.361678312243711 7.877503537682952 0 0 0
341 1 11.334782555151689 14.31093047711148 7.7850037394385705 0 0 0
594 1 12.789320118853762 15.864748863327844 9.456040552288314 0 0 0
599 1 12.908278148612263 12.832872084847939 5.983218815682294 0 0 0
597 1 17.553150565812942 14.387825044761636 7.671870590958695 0 0 0
88 1 3.3301015099606945 15.898893078001036 6.364310784795326 0 0 0
86 1 1.8702789462777862 17.5844459237908 7.927939314104474 0 0 0
338 1 6.030529361646305 16.212107345205 9.501372375398397 0 0 0
342 1 7.875323154106984 17.974492305733953 8.173323643784691 0 0 0
598 1 14.235207722337547 17.362530830628657 7.6529634266675055 0 0 0
625 1 15.705901879350469 18.873367259893993 9.07383484620785 0 0 0
1055 1 6.238578753036471 0.37318707091541836 25.3299367139019 0 0 0
375 1 6.503883509124787 19.25636040357966 6.147907239242979 0 0 0
117 1 5.3156301648710365 21.253910412309263 7.6969757135710095 0 0 0
376 1 9.512997068477533 22.45341452641533 6.007257374088882 0 0 0
631 1 12.669588191598766 19.248527763794712 6.210506696529747 0 0 0
373 1 11.388799895066002 21.12178970691162 7.640119161973412 0 0 0
632 1 16.13709311037065 22.221752653652395 6.132744476662193 0 0 0
629 1 17.893026671145325 20.68862606219366 7.776065117580525 0 0 0
118 1 1.416812192309617 23.97947377539722 8.010118699603867 0 0 0
1615 1 18.916027926269678 12.796438079625581 12.484270795298453 0 0 0
374 1 8.114962429410705 24.196790072557626 7.6300373197995 0 0 0
401 1 9.462790507129514 25.60961131863978 9.59202675454336 0 0 0
630 1 14.351599834125087 23.869448312740538 7.642875624256375 0 0 0
149 1 4.927978114760175 27.569780888555275 7.852954246177779 0 0 0
402 1 6.2872644067907295 28.92451329732587 9.578401679786321 0 0 0
145 1 3.2162427408855905 25.815327406246524 9.488914658824212 0 0 0
405 1 11.21895972775504 27.053173927554827 7.958876618781441 0 0 0
664 1 16.183217912385345 28.555228095468244 6.324128299684372 0 0 0
661 1 17.85169082297003 27.001938019078544 7.815231808962493 0 0 0
150 1 1.2231978236629617 30.317792976198064 7.745052954742361 0 0 0
177 1 2.8363350430988135 31.66186398448675 9.33144043070993 0 0 0
439 1 6.1826432904139175 32.19988717856016 6.2604304308082845 0 0 0
406 1 7.805470293703054 30.35247418294674 7.726671465867035 0 0 0
433 1 9.358319797244642 31.786356501455796 9.41889815834626 0 0 0
662 1 14.393661373694737 29.980931478380903 7.856048646801441 0 0 0
992 1 3.4540163695260824 41.28967353906151 25.348347531988125 0 0 0
181 1 4.559630233773041 33.42361901845963 7.8400699323683165 0 0 0
437 1 11.00177382404453 33.00925651543051 7.7507889592183075 0 0 0
690 1 12.665634884451253 34.56667257286364 9.65205417331018 0 0 0
689 1 15.928241183801058 31.535304894788748 9.267492660158466 0 0 0
693 1 17.483328183839376 33.036168910854855 8.138806876858368 0 0 0
182 1 1.8048938987755185 36.63741598232697 7.661663825104865 0 0 0
434 1 6.372188916846474 34.744527688214845 9.50616024854674 0 0 0
438 1 7.850518437162751 36.5387834368228 8.011124505502739 0 0 0
440 1 9.460041470190685 34.92112910447372 6.260933976937281 0 0 0
727 1 12.865392188917651 37.970683473870224 6.3821019548509215 0 0 0
694 1 14.289722210483063 36.07340337957011 8.0080836646674 0 0 0
721 1 15.425051668661718 37.88187976582286 9.74039762278515 0 0 0
247 1 0.13784732996029764 44.895792704539346 6.671266010915422 0 0 0
213 1 4.684567732052094 39.62791274529975 7.7637468936024865 0 0 0
466 1 6.550766450301495 41.23291965162288 9.4153755843079 0 0 0
469 1 11.06154800014922 39.395982417678 7.863023234951309 0 0 0
728 1 15.713250656748468 40.913105166717415 6.4983729758307875 0 0 0
725 1 17.31554813072343 39.27266025177647 8.00516061476974 0 0 0
214 1 1.8268300946690386 43.27727911848956 8.188395110133422 0 0 0
216 1 3.176999800531142 41.62470797945626 6.509909031898858 0 0 0
470 1 7.992309281169586 43.04715726456752 7.764413990316358 0 0 0
472 1 9.461204756897281 41.41222728147878 6.305708593662626 0 0 0
726 1 14.392242784421635 42.74439845967245 7.633239031321604 0 0 0
1599 1 18.875501713783734 6.862154279193447 0.15778921877479637 0 0 0
10 1 0.2920578092197593 3.36625093298995 16.402145058543283 0 0 0
50 1 0.04878762980888872 9.546132243155176 9.525323809217527 0 0 0
241 1 3.604344871546483 44.79167563222613 9.652299955186892 0 0 0
245 1 4.831807395892216 46.284816171297734 8.132786576210293 0 0 0
503 1 6.455714350506489 44.67815497605703 6.509743048306892 0 0 0
497 1 9.367837967979902 44.78568009813776 9.368809618704063 0 0 0
501 1 10.969033296649782 45.76583371676254 7.403301424434481 0 0 0
753 1 15.972906196318398 44.69925750638879 9.258637581342608 0 0 0
757 1 17.28232775666389 46.05251414078789 7.531047074805016 0 0 0
483 1 8.191014793166712 46.837078416292925 23.120042771615843 0 0 0
246 1 1.654361564497911 49.23442523737124 7.720415450645454 0 0 0
498 1 6.442719182135814 48.11926339253225 9.667141957710593 0 0 0
504 1 9.31468034581386 47.86437789047034 6.209095306566157 0 0 0
502 1 7.767478727678205 49.57220885227582 7.86272666289119 0 0 0
754 1 12.185503760218358 47.543899487552096 9.206285578528913 0 0 0
760 1 15.928209054329598 47.93992424596493 6.01415341217932 0 0 0
758 1 14.332213665369114 49.160092668147655 8.046469381750732 0 0 0
82 1 0.14579873255728404 16.102518565464088 9.625110728650272 0 0 0
19 1 1.3847125423383206 1.6835100651194628 11.105982382832886 0 0 0
16 1 2.9786222802267397 3.3848880290693115 12.82546066837338 0 0 0
271 1 6.27729947470081 0.2485553584097317 13.051443574472895 0 0 0
275 1 7.926557575565038 1.4866871429109985 11.130325100670692 0 0 0
530 1 12.546147881127592 2.988408012452478 8.928935656633817 0 0 0
531 1 14.050538158900268 1.443124278196582 10.887355850580215 0 0 0
239 1 0.1908995403585406 44.49712209593781 12.65193980945145 0 0 0
20 1 4.9932089998456775 4.63999434843275 11.470348608743294 0 0 0
276 1 10.933514812549497 4.50488247355816 10.602464763437611 0 0 0
272 1 9.384670695957551 2.9792306071039536 12.546387700416 0 0 0
528 1 15.894837074728391 2.882442272330151 12.426360379480933 0 0 0
532 1 17.4620824616957 4.5911162787690785 11.006033549440954 0 0 0
49 1 3.47475888427428 6.402590400511376 10.080190118666424 0 0 0
51 1 1.5981686809157585 7.862811865462609 11.233437601311296 0 0 0
306 1 6.3026485019240095 9.670909156198707 9.399537607458075 0 0 0
305 1 9.331500986538627 6.177273595459719 9.16520011589892 0 0 0
307 1 7.845562604781444 7.905643818578387 10.915249687361976 0 0 0
563 1 14.31840013046037 7.804126148316564 10.726604939963014 0 0 0
227 1 1.8883175139859438 46.143804520549594 24.499278128982837 0 0 0
52 1 4.734239959624107 11.199116147001925 11.002853158659489 0 0 0
304 1 9.417092404443599 9.528351597964983 12.177386756134823 0 0 0
562 1 12.721906665850137 9.537822174732154 9.221306433532845 0 0 0
308 1 10.998445503462369 11.285160369933866 10.508423279319295 0 0 0
560 1 15.462951922540192 9.684293224191977 12.490750254638291 0 0 0
564 1 17.18377799135555 11.382790445997344 11.152548535020042 0 0 0
83 1 1.548409462350168 14.700238339812985 11.266047290274463 0 0 0
80 1 3.233779426072553 16.0881806137079 12.860650464857978 0 0 0
335 1 6.363598385622955 13.008201896957756 12.668188630753722 0 0 0
339 1 7.721078038833683 14.728692320431593 11.102616213828888 0 0 0
595 1 14.11975076710136 13.95747888095748 10.869649482411349 0 0 0
592 1 15.470689918788702 15.61589249739831 12.370627017145843 0 0 0
84 1 4.802380443263722 17.694240948072206 11.13684907187775 0 0 0
336 1 9.372676351065776 16.38609582426337 12.487488406475133 0 0 0
340 1 11.09253162577967 17.900796708700025 10.770436436075956 0 0 0
596 1 17.220303647615484 17.249974497127514 10.631068090572198 0 0 0
768 1 15.635044346550016 47.82513661581518 0.13563030684487187 0 0 0
708 1 17.473756288323862 42.80446179635311 23.968983603730486 0 0 0
113 1 3.703985974501178 19.496940100550933 9.283715550560254 0 0 0
115 1 1.9138846558449818 20.65269905388382 10.980615161445444 0 0 0
370 1 6.637821135542432 22.767662765454254 9.496681103519439 0 0 0
369 1 9.463676725329536 19.921942863976785 9.300718677258285 0 0 0
371 1 8.165992014670346 21.229939457834504 11.386634647297486 0 0 0
623 1 12.499613338998229 19.430483946765648 12.59593206290238 0 0 0
627 1 14.114394709974503 20.459135918742938 10.822463623401207 0 0 0
624 1 15.931878037014732 21.782912799328283 12.39348843869306 0 0 0
154 1 0.17506307323716847 28.793675360461023 3.0040956723216974 0 0 0
116 1 4.957136463996387 24.115093928062763 10.929894862571544 0 0 0
112 1 3.2528354224387774 22.33432019031467 12.548271739138315 0 0 0
626 1 12.657251825026089 22.515246324980247 9.393618910221072 0 0 0
372 1 11.15528368288351 24.010181224495497 11.131379860059978 0 0 0
628 1 17.270329247270247 23.869132573554765 10.845595118160766 0 0 0
106 1 0.07778050838088242 21.968561103089744 15.999240221246133 0 0 0
147 1 1.2767283393875974 27.35914092636165 10.910773544498499 0 0 0
144 1 2.835345805611755 28.703554570874235 12.452751414662307 0 0 0
399 1 5.956505119461497 25.753806783189436 12.71564293882613 0 0 0
403 1 7.738221183084672 26.94566739449062 11.12140765694938 0 0 0
657 1 15.933046516252785 25.420527335221795 9.191438946071756 0 0 0
659 1 14.476259133683897 26.806419052030453 10.987635778165474 0 0 0
148 1 4.482840731624293 30.494825412369927 11.055567586004633 0 0 0
400 1 9.339213133541298 28.843810230141553 12.123989893485142 0 0 0
658 1 12.840450597193163 28.5985054323846 9.420114155361764 0 0 0
404 1 11.234503974857596 30.33949522808758 10.979028797160176 0 0 0
660 1 17.687278019122733 30.238024789083244 10.957783392695799 0 0 0
179 1 1.2990252072066022 33.35828633030248 10.96437657774816 0 0 0
431 1 6.242313957996494 32.1357276660417 12.6888026599968 0 0 0
435 1 8.098947114487888 33.46180469511127 11.111240503967784 0 0 0
432 1 9.980755478501774 34.91568709726121 12.499572839150849 0 0 0
691 1 14.658290568302704 33.1497038234899 11.090233942586854 0 0 0
688 1 16.230829019792107 34.83805164201287 12.828135625519334 0 0 0
180 1 4.895013423939815 36.721101707799974 11.37676841942323 0 0 0
436 1 11.295847930259917 36.358125268079775 11.059092420408929 0 0 0
719 1 12.906671043612013 37.808395488933016 13.022753352199837 0 0 0
692 1 17.379017772388423 36.502823836914715 10.984383536276667 0 0 0
209 1 3.2072479004971113 38.07381487407545 9.502264497026811 0 0 0
211 1 1.8283518722299357 39.967246466586715 10.85569506803681 0 0 0
463 1 6.509110177919126 38.283096637527635 12.895258724938643 0 0 0
467 1 8.193446054275247 39.68855658554351 11.193609573699078 0 0 0
465 1 9.603965422956666 37.912538732827656 9.618644185623406 0 0 0
723 1 14.09023043717292 39.49970008591151 11.323900303160856 0 0 0
720 1 15.764361220691642 40.962340763261935 12.601704820637618 0 0 0
212 1 5.0716607697579335 43.13030590332491 11.042163369401983 0 0 0
495 1 6.324726298033191 44.643116203013406 12.914834064349694 0 0 0
722 1 12.814615135338686 40.99259308844525 9.563428209886535 0 0 0
468 1 10.960596851035803 42.907649374248166 10.860962171219192 0 0 0
724 1 17.11131575386522 43.0322569440159 11.155113529778756 0 0 0
243 1 1.696683237367841 46.34220707245345 10.830514292630577 0 0 0
499 1 7.7725163828462875 46.28235894418043 11.010286101259013 0 0 0
496 1 9.445071718705343 47.862815215456195 12.48650162980133 0 0 0
755 1 13.977059803455127 45.635414566011534 10.754633082424231 0 0 0
244 1 4.671747245191621 49.69857465998693 11.233185092971716 0 0 0
273 1 9.162688544493687 0.395421231569268 9.141264111948079 0 0 0
500 1 10.793750464250861 49.54638989257364 10.75760733256268 0 0 0
529 1 15.799607579820512 50.737156745316966 9.629984552961607 0 -1 0
752 1 15.77800137855127 47.24228296417752 12.571927678003991 0 0 0
756 1 17.40309736126707 48.77365317508411 10.989391541398755 0 0 0
737 1 15.832213125201932 44.2392571015733 22.17516880868011 0 0 0
13 1 4.490034938317094 1.9380435409973649 14.485388964199682 0 0 0
9 1 3.1762403407902724 50.861963726397775 15.601407695812595 0 -1 0
266 1 6.281969077871643 3.2394218331644993 16.26891090495256 0 0 0
269 1 10.903809314793252 1.2958331902721127 13.910396543671144 0 0 0
527 1 12.721978096706703 50.73301429882086 12.444316951264092 0 -1 0
525 1 17.288446805874546 1.2289708531076187 14.13678809540842 0 0 0
420 1 10.753357296703602 36.299976903693846 23.839073171046792 0 0 0
14 1 1.1472818349517087 4.905895882171669 14.284273451562358 0 0 0
270 1 7.830167235599418 4.293205376793214 14.4728317990706 0 0 0
522 1 12.539359831953668 2.704280370503701 15.440245085513574 0 0 0
526 1 14.072362508232118 4.61291776992954 13.948622482026263 0 0 0
553 1 15.735330668650805 6.136096109756226 15.592057067768112 0 0 0
303 1 6.409596162729198 6.3145448832655875 12.837629872597597 0 0 0
45 1 4.63825598916563 7.965029073777369 14.156250189768732 0 0 0
559 1 12.660410096777749 6.01162174519726 11.988392668155454 0 0 0
301 1 10.782792213644427 7.566063306268186 14.05357519886897 0 0 0
297 1 9.27488597452894 5.844796182166515 15.873896973342916 0 0 0
557 1 17.077660536065896 7.840792368592207 14.133012515070762 0 0 0
452 1 11.17160880151868 42.52915968099228 23.657560824104515 0 0 0
46 1 1.7342908218438917 11.657780108044621 14.208226569767994 0 0 0
48 1 2.994379729906979 9.81272101262569 12.494352820587306 0 0 0
302 1 7.9190979759704 11.285066661890758 13.942139287845452 0 0 0
591 1 12.43780666925461 12.98955568972308 12.574822716926196 0 0 0
329 1 9.649461896510108 13.231161540301885 15.812510988708128 0 0 0
558 1 14.141431356174783 11.102760006899578 14.1524530857348 0 0 0
1472 1 15.701148981571293 34.877838840199004 25.020690395377585 0 0 0
73 1 3.318180797574335 12.956155124158416 16.04919048851861 0 0 0
77 1 4.853008665558645 14.452310855091222 14.30665604361941 0 0 0
330 1 6.450247570197574 16.150657821575024 15.959200979747724 0 0 0
333 1 10.864523085682139 14.616299384697804 14.090783426139897 0 0 0
586 1 12.47565374286676 15.981399690461956 15.964390390291612 0 0 0
589 1 17.48021460897061 14.250331535442383 14.211605062503427 0 0 0
585 1 15.872429645349742 12.677669973354108 15.589254112546094 0 0 0
78 1 1.577472825375883 17.7662129314982 14.327927330049054 0 0 0
105 1 3.578560440773958 19.21536889849487 15.887443633152374 0 0 0
334 1 7.880386515843432 17.96272484275446 14.286437485010778 0 0 0
590 1 13.944825995827895 17.27101764209501 13.973069141442869 0 0 0
109 1 4.990951800823683 21.004334803190357 14.148695266262116 0 0 0
367 1 6.288320876193673 19.20975939136058 12.539848596810907 0 0 0
361 1 9.463082717080502 19.200732967032845 16.22652022332748 0 0 0
368 1 9.744838302744837 22.698339730145474 13.21562662955215 0 0 0
365 1 11.104194643942048 20.70807856442476 14.514178788784688 0 0 0
135 1 0.33105164366901185 25.54455556216957 19.043180752395255 0 0 0
621 1 17.240671718485608 20.199021785442607 14.004069178110619 0 0 0
110 1 1.3130995927162277 23.854414068414478 14.465472775655634 0 0 0
481 1 9.619928599652209 44.27859478065807 22.320448720871113 0 0 0
366 1 7.681329168481653 23.817904069641227 14.368154836804646 0 0 0
655 1 12.988655345181385 25.43515992829949 12.826399962405215 0 0 0
622 1 14.542556569043741 23.485957140704247 14.026657585407435 0 0 0
649 1 15.840806575217567 24.975706873445002 15.8312493717614 0 0 0
32 1 2.668716178279298 3.2942770540383597 0.33675483162469505 0 0 0
141 1 4.207137817041465 27.06281982324525 14.418745826378048 0 0 0
393 1 9.417187406173777 25.765672584373657 15.594431614790073 0 0 0
397 1 10.994171817177937 27.194324149097074 13.67107405632165 0 0 0
653 1 17.55348338615688 26.768079008192426 14.33777899134595 0 0 0
656 1 16.1338950886023 28.527824936060103 12.610943908557724 0 0 0