

read_data data.ice_${TEMP}K_${PRES}atm_ML group ice
read_data data.ice_295K_${PRES}atm_ML group ice
read_data data.ice_295K_-500atm_ML group ice
Reading data file ...
  orthogonal box = (-0.0365728 -0.032509156 -0.032509156) to (57.307083 50.939629 50.939629)
  3 by 1 by 2 MPI processor grid
  reading atoms ...
  4608 atoms
  reading velocities ...
  4608 velocities
  read_data CPU = 0.015 seconds
read_data data.liq_${TEMP}K_${PRES}atm_ML add append shift ${X_HI} ${YZ_LO} ${YZ_LO} group water
read_data data.liq_295K_${PRES}atm_ML add append shift ${X_HI} ${YZ_LO} ${YZ_LO} group water
read_data data.liq_295K_-500atm_ML add append shift ${X_HI} ${YZ_LO} ${YZ_LO} group water
read_data data.liq_295K_-500atm_ML add append shift 50.9396291556217 ${YZ_LO} ${YZ_LO} group water
read_data data.liq_295K_-500atm_ML add append shift 50.9396291556217 0.0325091556237176 ${YZ_LO} group water
read_data data.liq_295K_-500atm_ML add append shift 50.9396291556217 0.0325091556237176 0.0325091556237176 group water
Reading data file ...
  orthogonal box = (-0.0365728 -0.1043262 -0.1043262) to (104.48283 51.076465 51.076465)
  3 by 1 by 2 MPI processor grid
  reading atoms ...
  4608 atoms
  reading velocities ...
  4608 velocities
  read_data CPU = 0.010 seconds

write_data data.icewater_test
System init for write_data ...
WARNING: Communication cutoff is 0.0. No ghost atoms will be generated. Atoms may get lost. (../comm_brick.cpp:167)

# Define potential
#
pair_style sw
pair_coeff * * /data/emrosky-sim/Freezing_Simulations/Melting/MLmW_fancy/ML_mW.sw mW
Reading sw potential file /data/emrosky-sim/Freezing_Simulations/Melting/MLmW_fancy/ML_mW.sw with DATE: 2019-02-27

# Delete water and ice atoms that are overlapping
#
delete_atoms overlap 2.5 water ice
System init for delete_atoms ...
Neighbor list info ...
  update every 1 steps, delay 10 steps, check yes
  max neighbors/atom: 2000, page size: 100000
  master list distance cutoff = 6.0032907
  ghost atom cutoff = 6.0032907
  binsize = 3.0016454, bins = 35 18 18
  2 neighbor lists, perpetual/occasional/extra = 1 1 0
  (1) command delete_atoms, occasional, copy from (2)
      attributes: full, newton on
      pair build: copy
      stencil: none
      bin: none
  (2) pair sw, perpetual
      attributes: full, newton on
      pair build: full/bin/atomonly
      stencil: full/bin/3d
      bin: standard
Deleted 681 atoms, new total = 8535

# set timestep
#
timestep 10.0

# Define output
#
compute 1 all msd
thermo 50
thermo_style custom step temp press vol etotal ke pe c_1[4]

# Neighbor lists
#
neigh_modify delay 0 every 1 check yes

# Set fixes
#
fix 1 all momentum 10 linear 1 1 1 rescale
fix 2 all nph iso ${PRES} ${PRES} ${PCOUPL}
fix 2 all nph iso -500 ${PRES} ${PCOUPL}
fix 2 all nph iso -500 -500 ${PCOUPL}
fix 2 all nph iso -500 -500 10000.0
fix 3 all temp/csvr ${TEMP} ${TEMP} ${TCOUPL} 837492
fix 3 all temp/csvr 295 ${TEMP} ${TCOUPL} 837492
fix 3 all temp/csvr 295 295 ${TCOUPL} 837492
fix 3 all temp/csvr 295 295 5000.0 837492


# Fix ice atoms in place
#
velocity ice set 0.0 0.0 0.0
fix 4 ice setforce 0.0 0.0 0.0

# Run 1.0 ns equilibration of water
#
dump 1 all atom 1000 eq.all.${NAME}.dump
dump 1 all atom 1000 eq.all.coexist_295K_-500atm_ML.dump
run 100000
Neighbor list info ...
  update every 1 steps, delay 0 steps, check yes
  max neighbors/atom: 2000, page size: 100000
  master list distance cutoff = 6.0032907
  ghost atom cutoff = 6.0032907
  binsize = 3.0016454, bins = 35 18 18
  1 neighbor lists, perpetual/occasional/extra = 1 0 0
  (1) pair sw, perpetual
      attributes: full, newton on
      pair build: full/bin/atomonly
      stencil: full/bin/3d
      bin: standard
Per MPI rank memory allocation (min/avg/max) = 4.591 | 4.598 | 4.605 Mbytes
Step Temp Press Volume TotEng KinEng PotEng c_1[4] 
       0    132.41321   -1041.3765    273785.78   -84095.485     3368.358   -87463.843            0 
      50    160.53423   -853.95747    272470.41   -83776.077    4083.7071   -87859.784   0.85926545 
     100    170.79797   -199.00959    270128.51   -83429.327    4344.7986   -87774.125    1.8103103 
     150    175.97961   -129.23948    269170.81   -83077.957    4476.6104   -87554.567    2.7747508 
     200    177.75937   -398.36717    269784.07    -82841.68    4521.8844   -87363.565    3.7521485 
     250    180.11458   -309.13938     270801.8   -82530.057    4581.7965   -87111.854    4.8247214 
     300    188.83941   -739.00215    271856.03     -82185.1     4803.741   -86988.841    6.1130065 
     350    190.45166   -708.40275    272178.08   -81961.846    4844.7537     -86806.6    7.4602099 
     400    195.06708   -486.60094     271678.3   -81736.749    4962.1617   -86698.911    8.9424214 
     450    202.38481   -146.02088    271214.15   -81473.011     5148.312   -86621.323     10.51719 
     500    207.24398   -450.44099    271388.27   -81270.311    5271.9208   -86542.231    12.153656 
     550    208.82163     -380.124    271945.84   -81068.288    5312.0533   -86380.342    13.693447 
     600    215.82699   -558.22198    272515.58   -80871.731    5490.2571   -86361.989    15.319099 
     650    215.59184   -527.29553    272814.94   -80662.234    5484.2754   -86146.509     17.00414 
     700    216.94693    -492.6268    272710.33   -80460.566    5518.7466   -85979.313    18.838759 
     750    218.31794   -304.92717    272305.77   -80293.633    5553.6227   -85847.256    20.611326 
     800    222.17722   -506.13837    272189.08    -80095.83     5651.796   -85747.626    22.393312 
     850    225.60311    -403.3194    272591.97   -79897.893    5738.9444   -85636.837    24.460889 
     900    231.52487   -432.59766    273427.02   -79722.648    5889.5836   -85612.232    26.568904 
     950    236.19611   -712.21892    274158.49   -79552.469    6008.4116    -85560.88     28.59434 
    1000    233.91715   -388.35504    273995.53   -79403.973    5950.4389   -85354.412    30.730189 
    1050    242.45241   -253.15522    273588.32   -79283.923    6167.5608   -85451.484     33.28155 
    1100    242.68237   -659.49922    273805.36   -79175.312    6173.4106   -85348.722    35.782318 
    1150    244.32546   -533.23152    274060.52   -79046.603    6215.2079   -85261.811    38.360339 
    1200    244.62087   -524.25688    274141.96   -78943.809    6222.7227   -85166.532    40.945264 
    1250    248.32884   -839.42859    274444.66   -78832.954    6317.0468       -85150    43.814198 
    1300    249.63477   -517.07366    274193.45   -78744.199    6350.2675   -85094.466    46.144773 
    1350    253.17635   -537.67357    273983.43   -78666.323     6440.359   -85106.682    48.417292 
    1400    256.09577   -619.72694    274368.04   -78533.856     6514.624    -85048.48    50.736162 
    1450    254.46891   -395.62986    274963.27   -78418.957    6473.2395   -84892.196     53.24037 
    1500    256.12634   -719.20888    275462.03   -78335.456    6515.4014   -84850.857    56.041508 
    1550    259.93065    -473.9156    275290.98   -78258.632    6612.1763   -84870.808    58.858739 
    1600    260.19957   -644.50245    274966.94   -78164.856    6619.0172   -84783.873    61.782335 
    1650    264.02425   -373.46753    275005.81   -78096.444    6716.3103   -84812.754    64.136555 
    1700    266.67131   -685.20529    275046.33   -77996.323     6783.647    -84779.97    66.879196 
    1750    263.93355   -302.84344    275002.62   -77927.818    6714.0032   -84641.821    69.747836 
    1800    268.07736   -330.21884    275165.54   -77831.219    6819.4143   -84650.633    72.756433 
    1850    269.41688   -398.45783    275394.31   -77740.521    6853.4894    -84594.01    75.445391 
    1900    269.77025   -434.24663    275656.91   -77646.343    6862.4784   -84508.822    78.309085 
    1950    267.60019   -717.00777    275999.04   -77561.843    6807.2759   -84369.118    81.210366 
    2000      271.502   -522.62801     275821.6   -77472.603    6906.5312   -84379.135    84.175401 
    2050    271.48946    -595.9591    275446.29   -77456.711    6906.2122   -84362.923     86.58619 
    2100    274.66568    -404.9952    275311.79   -77425.153    6987.0096   -84412.162    89.511853 
    2150    272.72192   -470.54716    275631.02   -77361.385    6937.5638   -84298.948    92.849923 
    2200    277.67738   -533.73674    275982.01    -77287.75    7063.6219   -84351.372    96.256255 
    2250    278.39069   -562.70236    276090.02   -77252.031    7081.7672   -84333.798     99.16383 
    2300     280.5809   -518.64125    276174.25   -77150.174    7137.4823   -84287.656    101.83673 
    2350    283.49299   -433.04121    276146.18   -77068.645    7211.5606   -84280.205     104.3551 
    2400    282.72193   -547.60357    276171.79   -77040.332    7191.9464   -84232.278    107.31126 
    2450    280.21499   -225.13322     276385.3   -76983.938    7128.1742   -84112.112    109.96605 
    2500    280.07071   -494.51907    276774.88   -76908.946    7124.5039    -84033.45    112.38645 
    2550    282.81566   -558.74365    276692.71   -76880.656    7194.3306   -84074.987    115.47375 
    2600    278.17612   -278.30715    276390.39   -76853.016    7076.3088   -83929.324    118.21881 
    2650    282.31442   -63.958901    276199.46   -76767.828      7181.58   -83949.408    121.13937 
    2700    287.11175   -220.71158    276178.56   -76736.471    7303.6157   -84040.086    124.03332 
    2750    286.04637    -583.3574     276550.8   -76748.067    7276.5143   -84024.581    127.09052 
    2800    283.28667   -326.33026    276826.43   -76711.107    7206.3123    -83917.42    130.03758 
    2850    286.68049   -644.03762     277086.4   -76720.578     7292.645   -84013.223    133.48813 
    2900     285.4257   -727.28531    277163.85   -76733.075    7260.7254     -83993.8    137.11417 
    2950    288.25185   -328.80496    276489.99   -76732.649    7332.6177   -84065.267    139.66794 
    3000    288.99008   -490.41173    276018.01   -76685.813    7351.3971    -84037.21    142.21994 
    3050    287.07978   -393.71069    276037.33   -76692.981    7302.8022   -83995.783    145.01354 
    3100    288.61465   -274.35031    276381.49   -76685.504    7341.8466    -84027.35    148.48044 
    3150    292.10945   -926.67156    277090.32   -76686.763    7430.7483   -84117.511    151.17979 
    3200    286.85442   -608.46572    277266.55   -76640.526    7297.0696   -83937.595    154.05853 
    3250    291.68865   -515.08741    277009.11   -76612.517    7420.0437   -84032.561    157.14693 
    3300    286.73488   -414.18988    276507.71   -76561.597    7294.0287   -83855.626     159.6802 
    3350    294.93612   -487.74238    276316.79   -76465.776    7502.6537    -83968.43    162.74303 
    3400    295.04282   -559.33043    276628.86   -76520.815    7505.3681   -84026.184    165.79706 
    3450     285.2993   -655.42149    277081.52   -76530.198      7257.51   -83787.708    169.48367 
    3500    292.28186   -650.26123    277285.67   -76522.256    7435.1342    -83957.39    172.88455 
    3550     290.0438   -541.82293    277232.78   -76476.004    7378.2017   -83854.206    175.89328 
    3600    296.04864   -579.01538    276989.75   -76492.857    7530.9543   -84023.811    177.86143 
    3650     296.4059   -464.80591    276637.54   -76505.963    7540.0423   -84046.006    180.86429 
    3700    289.95308   -513.23473    276602.24    -76502.34    7375.8939   -83878.234    183.90501 
    3750    292.25753   -645.94525    276760.58   -76519.771    7434.5152   -83954.286    187.05558 
    3800    293.45399   -510.49678    276692.55   -76524.166    7464.9509   -83989.117    190.25874 
    3850    293.74321   -445.74368    276711.72   -76511.749    7472.3081   -83984.057    193.38763 
    3900     290.7632   -488.30414    277040.37   -76510.353    7396.5021   -83906.855     196.7675 
    3950    294.79557   -638.89562    277498.19   -76455.432    7499.0784    -83954.51    199.76098 
    4000     292.8331   -638.27672    277575.72   -76457.886    7449.1567   -83907.043    202.67501 
    4050    294.20014   -467.26718    277053.62   -76446.684    7483.9317   -83930.615    206.06928 
    4100     291.7328   -560.40439    276661.69   -76443.919    7421.1668   -83865.086    208.37335 
    4150    292.53957   -225.76087    276488.47   -76407.917    7441.6898   -83849.607    210.56681 
    4200    293.82646   -647.21096    276827.52   -76400.052    7474.4258   -83874.478    213.78996 
    4250      295.438   -258.40536    276963.54   -76376.811    7515.4207   -83892.232    216.83063 
    4300    295.25878   -511.76236     277073.1   -76398.384    7510.8617   -83909.245    220.00466 
    4350    289.84768   -547.57915    276937.01   -76409.806    7373.2129   -83783.019    223.17407 
    4400    291.14445   -502.85311    276865.99   -76403.345    7406.2004   -83809.546    226.29538 
    4450    294.60261   -249.23474    277043.18     -76339.7    7494.1699    -83833.87     228.7112 
    4500    294.73827   -508.59866    277259.67   -76284.291    7497.6207   -83781.912     231.5935 
    4550    297.08245    -605.4864    277204.99   -76234.536    7557.2526   -83791.789    233.98591 
    4600    293.70179   -366.12781    276924.42   -76239.338    7471.2545   -83710.592    237.04137 
    4650    300.46964   -367.22516    277014.39   -76183.418    7643.4168   -83826.835    240.43761 
    4700     290.2347   -450.22706    277365.04   -76154.739    7383.0578   -83537.796    243.80238 
    4750    302.05123   -530.12402    277457.02   -76185.357    7683.6494   -83869.007    246.94155 
    4800     296.4955   -429.37501    277175.29   -76193.736    7542.3216   -83736.058    249.91269 
    4850     295.6089   -404.94477    276963.24   -76193.004     7519.768   -83712.772    252.98592 
    4900    298.70791    -795.5425     277246.6   -76183.146    7598.6014   -83781.747    255.79337 
    4950    290.62606   -356.97323    277382.47   -76190.282    7393.0134   -83583.295    258.51306 
    5000    297.82256   -653.21025    277606.78   -76204.207    7576.0798   -83780.287    261.45964 
    5050    294.01623    -497.6529     277435.5   -76218.738    7479.2534   -83697.992    264.17843 
    5100    299.65223   -260.92277    277105.59   -76233.092    7622.6231   -83855.715    266.95795 
    5150    301.27173   -472.14049    276752.24   -76260.824    7663.8205   -83924.645    270.76767 
    5200    292.92767   -295.68782    276795.88   -76265.703    7451.5623   -83717.266    273.66255 
    5250    295.28113   -625.56207    277429.51   -76241.791    7511.4303   -83753.222    277.32735 
    5300    296.64485   -651.08683    277598.51   -76224.371    7546.1209   -83770.492    280.45726 
    5350    294.91485   -287.48615    277204.23   -76189.655    7502.1128   -83691.768    283.82247 
    5400    289.27716   -438.90289       276870   -76240.538    7358.6997   -83599.237     286.2457 
    5450    296.52565   -508.08136    276979.46   -76229.518    7543.0885   -83772.606    287.82872 
    5500    295.41347   -436.32216    277397.63   -76228.439    7514.7968   -83743.236    290.79268 
    5550    291.46962   -545.55323    277590.85   -76275.564    7414.4721   -83690.036    294.39111 
    5600    297.23937   -293.23494    277264.85    -76339.76    7561.2444   -83901.004    297.13158 
    5650    294.72454   -389.28887    276903.79   -76432.443    7497.2715   -83929.715    299.64505 
    5700    295.81565   -379.92017    276527.64   -76414.987    7525.0274   -83940.014    301.58729 
    5750    294.61957   -557.82597    276556.57   -76391.302    7494.6012   -83885.904    305.34995 
    5800    293.22638   -406.56865       276706   -76381.171    7459.1609   -83840.331    308.04072 
    5850    297.55975   -482.18767    277176.19   -76313.798    7569.3943   -83883.193    311.01964 
    5900     291.7817   -554.92604    277429.47   -76348.233    7422.4109   -83770.643    314.37072 
    5950    293.99108   -440.93143    277084.13   -76361.558    7478.6137   -83840.171     317.8627 
    6000    297.04091   -422.03464    276725.93   -76369.533    7556.1958   -83925.729    321.61931 
    6050    299.49119   -173.51749    276764.63   -76310.505    7618.5266   -83929.032    324.11526 
    6100    294.64992   -480.70764    277206.06   -76308.527    7495.3734     -83803.9    327.29994 
    6150    293.50344   -797.82837     277600.3   -76288.909    7466.2089   -83755.118    330.91033 
    6200    292.99171   -571.64839    277183.12   -76307.321    7453.1914   -83760.512    334.30784 
    6250    292.42914   -417.71544    276639.02   -76295.051    7438.8806   -83733.932    337.18543 
    6300    293.73784   -519.24272    276742.59   -76253.597    7472.1715   -83725.768    339.88443 
    6350    295.69397   -188.73559    277032.75   -76224.434    7521.9322   -83746.366    343.26284 
    6400    294.56813    -429.9931    277499.83   -76290.179    7493.2927   -83783.472    347.18044 
    6450    295.40387   -421.67392    277519.77   -76296.003    7514.5524   -83810.555    351.03383 
    6500    300.12896   -680.60926    277261.51   -76243.388    7634.7505   -83878.139     353.7796 
    6550    297.92254   -188.94301    276996.54   -76225.343    7578.6231   -83803.966     356.1454 
    6600    294.13772   -445.74437    277179.08   -76233.687    7482.3437    -83716.03    359.50179 
    6650    294.07786   -519.57233    277302.99   -76279.865     7480.821   -83760.686     362.7892 
    6700    296.44882   -572.00313    277279.76   -76296.001    7541.1343   -83837.136    366.25996 
    6750    296.10019   -245.22316    276958.41   -76327.118    7532.2657   -83859.383    367.62797 
    6800    295.21541   -609.14219    277195.72   -76295.918    7509.7584   -83805.676    370.06752 
    6850    297.13727   -808.61343    277390.27   -76300.275    7558.6471   -83858.922    373.69436 
    6900    293.74918   -340.28369    277209.28   -76265.591    7472.4601   -83738.051    376.46881 
    6950     291.6823    -411.1794    277057.57   -76258.187    7419.8822    -83678.07    380.16888 
    7000    299.60328    -200.0112    276729.31   -76239.765     7621.378   -83861.143    382.24025 
    7050    298.35647    -251.1451    276673.54   -76232.254    7589.6613   -83821.915    384.48054 
    7100    301.13557   -579.48965    277159.31   -76230.761    7660.3567   -83891.118    388.46424 
    7150    295.67912   -967.84491    277362.35    -76283.27    7521.5545   -83804.825    391.88189 
    7200    300.24474   -450.91097    277059.98   -76332.331    7637.6956   -83970.027    394.87687 
    7250    295.99235   -479.75773    276739.72   -76278.053    7529.5223   -83807.576    397.18287 
    7300    299.01662   -292.27816    276490.98   -76258.219    7606.4544   -83864.673    398.88238 
    7350    298.14614   -566.53806     276964.8   -76247.133     7584.311   -83831.444    402.82775 
    7400    301.49348   -754.15667    277800.69   -76204.324    7669.4613   -83873.786    406.67949 
    7450    297.79148   -829.10876    277888.47   -76169.038     7575.289   -83744.327    410.17382 
    7500    295.00457   -430.10924    277108.91   -76243.346     7504.395   -83747.741    412.48751 
    7550    297.68492   -333.31748    276646.88   -76287.206    7572.5783   -83859.784    414.13504 
    7600    297.52535   -345.61835    276887.51   -76235.062    7568.5191   -83803.581    418.47063 
    7650    291.74367   -471.20857    277288.03   -76234.632    7421.4434   -83656.075    423.00536 
    7700     294.7105   -522.01138    277327.91   -76230.169    7496.9142   -83727.083    426.26104 
    7750    292.67815   -715.12209    277554.64   -76183.149     7445.215   -83628.364    428.62937 
    7800    293.31039   -366.74714    277564.76   -76217.729    7461.2979   -83679.027    432.37139 
    7850    300.81691   -466.86254    277135.05   -76197.463    7652.2506   -83849.714    434.86926 
    7900    294.13032   -325.84753    276972.16   -76235.872    7482.1556   -83718.028    438.20996 
    7950    296.33689   -405.85349    277018.43   -76283.709    7538.2868   -83821.996    440.00815 
    8000    292.48496    -74.10591    277093.89   -76265.566    7440.3005   -83705.867      441.553 
    8050    296.76728   -814.60667    277569.67   -76250.249    7549.2352   -83799.484    444.40118 
    8100    295.72215   -356.19328    277366.31   -76292.713    7522.6489   -83815.362    446.71194 
    8150     296.7649   -447.12719    277306.06    -76239.41    7549.1748   -83788.584     450.2429 
    8200    296.27745   -642.83512    277185.26   -76265.657    7536.7749   -83802.432    453.41334 
    8250    297.67801   -470.22919    276841.79   -76266.965    7572.4026   -83839.368    456.67831 
    8300    298.36003   -702.02431    277012.02   -76250.812     7589.752   -83840.564    459.54741 
    8350    293.91441   -634.05053     277393.1    -76301.86    7476.6632   -83778.523    462.78667 
    8400    298.47055   -457.13165    277331.45       -76312    7592.5634   -83904.563    465.38693 
    8450    297.63524   -194.64021     277021.9   -76318.829    7571.3145   -83890.143    468.08533 
    8500    297.69219   -472.70074    276855.25    -76310.64    7572.7633   -83883.403    470.04484 
    8550    293.76734   -411.34393    276805.09   -76337.331    7472.9221   -83810.253    472.78957 
    8600    299.05627   -454.41687    277046.29   -76338.333    7607.4631   -83945.796    476.20668 
    8650     287.0588   -495.54713    277496.47   -76323.446    7302.2687   -83625.715    479.20188 
    8700    290.71759   -593.34856    277472.54   -76310.476    7395.3419   -83705.818    481.67412 
    8750    296.57216   -294.81386    277017.09   -76283.029    7544.2718   -83827.301    483.69806 
    8800    293.31025   -511.55373    276651.06   -76303.353    7461.2944   -83764.647    485.80315 
    8850    293.66039   -341.72911    276521.27   -76345.834    7470.2014   -83816.035    488.08108 
    8900    290.49059    1.5159688    276634.93   -76368.152    7389.5673    -83757.72    491.32772 
    8950    293.88801   -678.26146    277227.52   -76343.997    7475.9917   -83819.989     495.6741 
    9000     296.0638    -698.5927    277177.06   -76337.064    7531.3399   -83868.404     499.0205 
    9050    294.72057   -545.04605    276576.66   -76337.435    7497.1706   -83834.605    501.21718 
    9100    295.29689   -214.76837    276194.52   -76410.776    7511.8311   -83922.607    503.79206 
    9150    294.73731   -558.88219    276705.61   -76374.559    7497.5963   -83872.155    507.16263 
    9200    291.93206   -514.77184    277543.75   -76370.023    7426.2357   -83796.259    511.24574 
    9250    294.63335   -626.34611    277721.55   -76406.631    7494.9519   -83901.583    514.01257 
    9300    289.62624    -665.0161    277243.32   -76457.833    7367.5799   -83825.413     515.5812 
    9350    296.63279   -348.22917    276660.43   -76432.322     7545.814   -83978.136    516.80111 
    9400    290.64603   -493.41996    276701.58   -76424.986    7393.5215   -83818.507    519.58584 
    9450    291.24633   -622.05176    277092.28   -76374.187     7408.792   -83782.979    522.33641 
    9500    292.76722   -437.92247    277052.24   -76391.086    7447.4807   -83838.567    525.21159 
    9550    298.55036   -598.96974    276772.19   -76376.511    7594.5937   -83971.104    527.33629 
    9600    297.75214   -451.09206    276727.05   -76355.037    7574.2882   -83929.325     530.5667 
    9650     296.1334   -324.37035    276892.53   -76394.476    7533.1105   -83927.586    534.07227 
    9700    294.22852   -784.48129    277162.05   -76389.774    7484.6535   -83874.428    535.68406 
    9750    293.58716   -509.80748    276868.47   -76395.801    7468.3387    -83864.14    537.19875 
    9800    295.11477    -276.0186    276407.55   -76401.587    7507.1983   -83908.785    537.96659 
    9850     292.7994   -254.94245    276567.05   -76397.555    7448.2994   -83845.854    540.37804 
    9900    295.82656   -515.19794    277122.58    -76395.57    7525.3049   -83920.875    543.48842 
    9950    293.45774    -470.8355    277321.93    -76366.08    7465.0463   -83831.126    547.33514 
   10000    297.57565   -635.53525    277206.39   -76366.732    7569.7987    -83936.53    550.88281 
   10050    292.95524   -470.45878     277049.8   -76363.836    7452.2635   -83816.099    553.57692 
   10100    292.65259   -293.53541    276939.97   -76332.418    7444.5648   -83776.983    555.27992 
   10150    296.92647   -448.70829    277028.18   -76320.782    7553.2847   -83874.066    557.65894 
   10200    291.30678   -612.08787    277326.24   -76302.608    7410.3298   -83712.937    561.80498 
   10250    296.24564   -522.88398    277549.39   -76307.108    7535.9657   -83843.074    565.22451 
   10300    292.48731   -319.50298    277578.05   -76284.255    7440.3602   -83724.615    567.65713 
   10350    294.23523   -498.39461    277272.54   -76277.332    7484.8244   -83762.156    569.80569 
   10400    293.59418   -284.20952    276712.32   -76350.447    7468.5172   -83818.965    572.69597 
   10450    291.75413   -231.37673    276543.67   -76322.023    7421.7095   -83743.732    575.19047 
   10500      292.559   -457.34961    276900.07   -76319.167    7442.1839   -83761.351    577.95964 
   10550    296.30295   -643.11243    277615.14   -76298.306    7537.4235    -83835.73    582.83407 
   10600    296.01781   -653.85786    277838.05   -76291.642    7530.1699   -83821.812    586.65608 
   10650    295.80582   -580.36494    277186.05   -76271.253    7524.7774   -83796.031     587.8966 
   10700     293.5515   -130.80303    276468.61   -76307.483    7467.4314   -83774.914    589.90006 
   10750     301.2064    -638.5596    276585.43   -76279.073    7662.1585   -83941.231     593.7977 
   10800     292.3379   -346.13076    276805.44   -76300.778    7436.5596   -83737.337    598.11561 
   10850    301.53031    -580.2949    277218.74   -76247.273    7670.3984   -83917.671    601.88996 
   10900    296.39007   -465.95434    277494.86   -76244.234    7539.6396   -83783.873    605.48266 
   10950    292.86106    -611.0768    277553.08   -76251.567    7449.8678   -83701.435    609.16723 
   11000    296.74657   -638.97759    277229.62   -76295.109    7548.7084   -83843.817    612.22903 
   11050     293.0293   -524.86988    276810.72   -76329.952    7454.1476     -83784.1    613.58166 
   11100    300.08125   -457.98004     276680.4   -76310.029    7633.5367   -83943.566    616.12864 
   11150     295.4521   -350.49021    276997.45   -76310.135    7515.7792   -83825.914     619.5496 
   11200    294.76257   -626.63226    277318.06   -76298.912    7498.2388   -83797.151    623.02343 
   11250    295.10687    -678.0529    277409.44    -76321.32    7506.9973   -83828.317    625.42523 
   11300    294.68374   -532.89183    276923.16   -76321.622    7496.2337   -83817.856    627.84263 
   11350    297.16676   -352.94688    276580.98    -76356.74    7559.3973   -83916.137    631.44916 
   11400    290.46778   -230.05159    276960.25     -76358.3     7388.987   -83747.287    635.76327 
   11450    292.16831   -814.09702    277589.19   -76404.361    7432.2456   -83836.607    640.80979 
   11500    295.10318   -1194.2411    277374.23    -76401.08    7506.9033   -83907.983    643.91563 
   11550    291.97616   -506.90754    276553.59   -76433.282    7427.3577    -83860.64    645.60738 
   11600    295.23097    -381.5784    276228.22   -76416.665    7510.1542   -83926.819    648.23551 
   11650    292.23388   -398.85612    276589.28   -76399.885    7433.9136   -83833.799    653.04102 
   11700    294.48564   -689.84256    277107.99   -76356.887    7491.1944   -83848.081    656.82196 
   11750    295.70836   -601.65934    277099.54   -76379.522    7522.2981    -83901.82    660.88823 
   11800    291.46693   -429.38575    276865.46   -76391.076    7414.4035   -83805.479    663.55174 
   11850    297.11177   -355.21548     276659.8   -76321.137    7557.9985   -83879.135    666.11944 
   11900    294.01149   -456.92805    276584.94   -76413.445    7479.1329   -83892.578    668.55872 
   11950    290.55061   -419.84175    276830.05   -76395.994     7391.094   -83787.088    673.06469 
   12000    289.05722   -446.78799    277132.44    -76392.77    7353.1048   -83745.875    677.94111 
   12050    293.65229   -508.26127    277234.33   -76379.949    7469.9953   -83849.944    682.50255 
   12100    296.12842   -599.83219    277182.57   -76348.396    7532.9838    -83881.38    686.44281 
   12150    293.88108   -452.84292     277032.4   -76343.083    7475.8153   -83818.898    688.33633 
   12200    293.85722    -671.3628    276803.94   -76334.704    7475.2085   -83809.912    689.74107 
   12250    291.73236   -340.59481    276689.51   -76303.358    7421.1557   -83724.514    692.48189 
   12300    295.56795    -401.0074    276940.59   -76312.599    7518.7263   -83831.325    696.14819 
   12350    292.61552   -526.77078    277237.66   -76335.648    7443.6217   -83779.269     699.8687 
   12400    294.00592   -933.39307    277287.31   -76379.935     7478.991   -83858.926    703.37204 
   12450    296.75051   -540.59931    276916.89   -76353.958    7548.8087   -83902.767     705.6222 
   12500    293.64222   -197.87644    276745.26   -76322.494    7469.7392   -83792.233    707.80811 
   12550    296.28231   -513.70804    277232.84   -76372.618    7536.8985   -83909.517    711.97783 
   12600    295.15169   -724.93016    277685.76   -76308.653    7508.1375   -83816.791     716.6053 
   12650    295.16629   -459.64053    277361.28   -76326.665     7508.509   -83835.174    720.06347 
   12700    294.41289   -493.05297    276854.64   -76305.518    7489.3437   -83794.862    722.20427 
   12750    295.79459   -613.18674     276707.9   -76361.176    7524.4916   -83885.667    724.36066 
   12800    287.91843   -623.16082    277003.09   -76371.361    7324.1362   -83695.497    725.97613 
   12850    289.46464   -395.47146    277068.65   -76359.124     7363.469   -83722.593    727.34959 
   12900    292.83372   -546.15985    277104.91   -76341.127    7449.1724   -83790.299    731.32026 
   12950    295.79042    -372.8729    276828.02   -76345.071    7524.3855   -83869.456    733.67029 
   13000    302.30182   -544.10094    276843.29   -76330.281    7690.0242   -84020.305     736.1298 
   13050    295.83367   -581.71844    277490.51   -76311.702    7525.4858   -83837.188    740.28722 
   13100    297.30881   -425.53414    277896.67   -76279.981    7563.0109   -83842.992    744.96908 
   13150    296.13242   -721.17001    277805.08   -76303.345    7533.0855    -83836.43    747.95372 
   13200    293.95619    -637.4779    277264.88   -76325.992    7477.7261   -83803.718    751.28132 
   13250    297.80145   -407.43643    276697.41   -76379.866    7575.5427   -83955.409    752.06542 
   13300    295.64943   -441.41484     276631.1   -76381.353     7520.799   -83902.152    754.06638 
   13350    295.20686   -187.63247    276687.29   -76356.496    7509.5408   -83866.037    759.36907 
   13400    293.26981   -513.95419    276929.86   -76385.993    7460.2657   -83846.258    763.59433 
   13450    291.99608   -663.21527    277027.16   -76413.615    7427.8644   -83841.479     767.4014 
   13500    298.38871    -608.0071    276966.81   -76382.049    7590.4816   -83972.531    770.05139 
   13550     292.4819   -383.36353    276656.31   -76466.547    7440.2227    -83906.77    771.70664 
   13600    294.33761   -746.00345    276527.33   -76474.695    7487.4286   -83962.123    774.40832 
   13650    295.55544   -361.54411    276428.11   -76489.107    7518.4081   -84007.515    778.57808 
   13700    291.36114   -532.87139     276836.8   -76474.959    7411.7126   -83886.671    783.76059 
   13750     291.7862   -759.26146    277476.06   -76454.993    7422.5253   -83877.518    787.93974 
   13800    290.95588   -809.53526    277546.37   -76499.766    7401.4034    -83901.17    790.71698 
   13850     290.2379   -434.81154    276891.02   -76490.927    7383.1393   -83874.066    792.09262 
   13900    294.52292   -374.14671    276451.99   -76462.518    7492.1427   -83954.661    796.33215 
   13950    290.89084   -628.70272    276834.91   -76478.292    7399.7489    -83878.04    799.49968 
   14000    291.49811   -642.88266    277428.48   -76417.864    7415.1968    -83833.06    803.46595 
   14050    293.67585   -739.36959    277727.81    -76399.84    7470.5947   -83870.435    807.83268 
   14100    295.64002   -728.65797    277198.04   -76396.594    7520.5597   -83917.154    809.72596 
   14150    290.92155   -333.17096    276433.82   -76400.033    7400.5302   -83800.563    811.34035 
   14200     295.5687   -242.24815    276199.98   -76398.759    7518.7455   -83917.505    813.98388 
   14250     295.1778   -516.52256    276667.16   -76321.267    7508.8016   -83830.068      817.574 
   14300    298.85704   -644.48836    277171.98   -76347.541    7602.3951   -83949.936    820.40182 
   14350    295.53871    -692.5839    277274.26    -76346.57    7517.9827   -83864.552    822.35681 
   14400    290.84893   -140.17003     276833.3    -76321.15    7398.6829   -83719.833    823.28163 
   14450    294.75902   -476.64261    276954.25   -76371.417    7498.1486   -83869.565    826.97549 
   14500    291.52981   -547.71069    277478.11   -76379.883    7416.0033   -83795.886    829.05636 
   14550    292.13903   -849.86742    277718.09   -76419.269    7431.5007   -83850.769     831.3043 
   14600    293.47704   -348.95784    277098.08    -76415.58    7465.5373   -83881.117    833.19771 
   14650    292.45797   -309.86969    276608.41   -76430.084     7439.614   -83869.698    835.50945 
   14700    294.04865   -188.34261    276623.85   -76396.872    7480.0782   -83876.951    837.19951 
   14750    294.23412   -668.02683    277280.86   -76401.765     7484.796   -83886.561     840.4585 
   14800    294.11702   -859.26449    277593.86     -76446.9    7481.8174   -83928.717    844.31737 
   14850    289.28011   -685.91071    277267.91   -76463.147    7358.7748   -83821.922    846.36375 
   14900    291.22023    -189.6972    276502.18   -76468.253    7408.1282   -83876.381    846.78031 
   14950    295.83224   -198.21288    276026.53   -76555.563    7525.4493   -84081.013       848.34 
   15000     293.9528   -259.25918    276210.61   -76548.996    7477.6397   -84026.636    851.65927 
   15050    291.18551   -737.38617    277011.39   -76533.035    7407.2447    -83940.28      855.529 
   15100    293.28848   -817.86824    277390.08    -76506.72    7460.7406    -83967.46    860.55147 
   15150    289.00125    -493.8719    277038.42   -76517.746    7351.6811   -83869.428    863.88074 
   15200    290.00391   -405.28102    276622.95   -76511.772     7377.187   -83888.959    865.95395 
   15250    292.31041    -496.3424    276600.74   -76514.509    7435.8604    -83950.37    868.42636 
   15300    293.04418   -687.29815    276575.81   -76468.655     7454.526   -83923.181    871.03849 
   15350    290.72561   -753.43322    276546.21   -76471.629    7395.5457   -83867.175    872.84686 
   15400     293.8826   -746.47822    276561.72   -76434.158     7475.854   -83910.012    876.28459 
   15450    291.43614   -333.50937    276534.99   -76444.074    7413.6205   -83857.695    879.88235 
   15500    292.56003    -392.1948    276389.99   -76426.722    7442.2103   -83868.932    882.27156 
   15550    290.68764    -575.0084    276498.72   -76435.347      7394.58   -83829.927    886.20109 
   15600    295.20526   -478.63397    276909.66   -76433.099    7509.5003   -83942.599    889.38428 
   15650    294.47437   -788.69704    277631.11   -76434.832    7490.9075   -83925.739      891.388 
   15700    295.34044   -767.23359    277752.99    -76401.22    7512.9388   -83914.158    894.33846 
   15750    295.64509   -646.64578    277271.15    -76408.98    7520.6886   -83929.669    895.93198 
   15800    295.56741   -410.65521    276627.12   -76409.861    7518.7126   -83928.573    897.45779 
   15850    296.33896   -481.44454    276547.12   -76392.028    7538.3396   -83930.367     900.9984 
   15900    296.88902   -528.20565    276830.69   -76394.733    7552.3319   -83947.065    904.84659 
   15950    293.53831   -814.81723    277039.43   -76364.112    7467.0959   -83831.208    909.35703 
   16000    294.92231   -410.50954    276769.47   -76335.692    7502.3024   -83837.994    912.86496 
   16050    297.06572   -411.95439    276681.47   -76294.511     7556.827   -83851.338    915.20296 
   16100    293.33091   -744.43092    276882.57    -76290.29      7461.82    -83752.11    918.10581 
   16150    294.83806    -286.5384     276876.4   -76295.147    7500.1592   -83795.306    921.13455 
   16200    297.93422   -673.03445    276932.77   -76248.918    7578.9202   -83827.838    924.25861 
   16250    298.29205   -358.31857    276662.35   -76235.081    7588.0226   -83823.104    927.00432 
   16300    298.54064   -114.19469    276650.55   -76260.283    7594.3462    -83854.63    929.19106 
   16350    296.75846   -454.68711    277239.43   -76276.535    7549.0109   -83825.546    933.80117 
   16400    297.79069    -739.3006    277555.95   -76252.889     7575.269   -83828.158     937.7077 
   16450    296.11533   -596.61168    277176.17   -76287.323    7532.6507   -83819.974    939.39506 
   16500    296.78005   -355.51464    276824.49   -76264.364      7549.56   -83813.924    940.79199 
   16550    299.27769   -418.79058    276992.64   -76236.723    7613.0957   -83849.818    944.65429 
   16600    295.12683   -368.22012    277230.24    -76216.14    7507.5052   -83723.646     947.9084 
   16650    299.21902   -432.67288    277377.62   -76160.359    7611.6032   -83771.962    951.74593 
   16700     297.7363   -314.91588    277343.65   -76249.326    7573.8852   -83823.211    955.38909 
   16750     297.5437   -655.08375     277287.3   -76270.047     7568.986   -83839.033    957.97079 
   16800    295.30477   -439.65162    277017.77    -76286.36    7512.0316   -83798.391    959.05371 
   16850    292.30165   -677.43274    277011.54   -76317.885    7435.6375   -83753.523    960.53232 
   16900    293.45045   -639.31675    277258.46   -76310.059    7464.8609    -83774.92    964.42518 
   16950    300.37833   -1040.2978    277395.31   -76271.772    7641.0939   -83912.866    967.84913 
   17000    297.10926   -519.82019    276956.62    -76310.59    7557.9346   -83868.524    968.90251 
   17050    292.98598    -471.9967    276555.65   -76280.738    7453.0457   -83733.784    972.63795 
   17100    296.63766   -574.88913    276824.11   -76278.436    7545.9379   -83824.374    976.30431 
   17150    293.51944   -786.60351    277291.91   -76211.685     7466.616   -83678.301    978.47811 
   17200    298.79408   -687.79262     277594.9    -76173.83    7600.7935   -83774.624    982.08639 
   17250    296.20377   -640.32083    277417.91   -76175.557    7534.9006   -83710.458    984.66126 
   17300    298.39473   -772.21356    276987.47   -76137.111    7590.6347   -83727.745    986.19248 
   17350    301.95825   -471.78836    276619.86   -76181.448    7681.2844   -83862.733    987.23262 
   17400    304.06299   -424.71299    276767.06   -76212.237    7734.8253   -83947.062    990.81948 
   17450    302.39854   -621.52906    277382.23   -76175.317    7692.4846   -83867.802    996.27238 
   17500    292.98894    -699.4106    277639.48   -76215.639    7453.1209    -83668.76    998.64901 
   17550    298.85407   -263.71916    277242.76   -76270.096    7602.3194   -83872.416    999.84761 
   17600    295.66655   -443.62297    276698.18   -76242.824    7521.2346   -83764.059    1001.8603 
   17650    299.88885   -125.06205    276481.99   -76206.568    7628.6423    -83835.21    1002.9805 
   17700     299.3686   -325.56114    276864.18   -76186.181    7615.4081   -83801.589    1005.2645 
   17750    295.74555     -577.495    277483.08   -76170.942    7523.2441   -83694.186    1010.5558 
   17800    296.49882   -643.82267    277685.82   -76169.068    7542.4059   -83711.474    1013.4863 
   17850    298.78902   -466.19678    277366.33   -76197.991    7600.6646   -83798.656    1014.3933 
   17900    298.41739   -659.03406    276826.31   -76233.502    7591.2111   -83824.713    1016.2632 
   17950    296.12088   -415.63815    276449.23   -76257.668     7532.792    -83790.46    1018.3345 
   18000    293.40805   -555.76926    276364.42   -76320.989    7463.7822   -83784.771    1021.1645 
   18050    299.09238   -599.84269    276659.26   -76353.332    7608.3817   -83961.713    1024.1756 
   18100    291.81919   -554.98353     277036.4   -76382.146    7423.3645    -83805.51    1027.5069 
   18150    296.99706   -742.04237    277126.44   -76420.921    7555.0804   -83976.001    1031.0406 
   18200    298.26167   -638.20438    276978.11   -76364.587    7587.2498   -83951.837    1032.8774 
   18250    297.64279   -425.80181     277011.2   -76306.686    7571.5067   -83878.193    1034.7204 
   18300    297.90374   -552.77981       277065   -76287.361    7578.1448   -83865.506    1037.4499 
   18350    296.58135   -618.98417    276983.31   -76275.984    7544.5055   -83820.489    1039.5994 
   18400    300.02467   -359.08526    276541.49   -76288.188    7632.0974   -83920.285    1043.0479 
   18450    294.77315   -464.28727    276438.14   -76312.251    7498.5079   -83810.759    1044.7174 
   18500    289.95079   -571.88981     277025.4   -76275.936    7375.8357   -83651.772    1051.5159 
   18550    295.10703   -926.71074    277502.95    -76246.64    7507.0014   -83753.641    1055.9787 
   18600    300.31703    -647.0256    277001.49   -76220.365    7639.5346     -83859.9    1058.7009 
   18650    300.77999   -424.78621    276596.05   -76237.032    7651.3114   -83888.343    1060.6199 
   18700    294.14187   -224.09905    276675.13   -76258.797    7482.4494   -83741.246    1060.8706 
   18750    297.37137   -430.67216     277241.9    -76173.08    7564.6023   -83737.683     1063.764 
   18800    297.72033   -392.65984    277729.06   -76180.245     7573.479   -83753.724    1065.7448 
   18850    296.14828   -677.53124    277953.92   -76216.354    7533.4889   -83749.843    1067.9872 
   18900     295.7173   -447.71149    277468.12   -76237.196    7522.5255   -83759.721    1068.8846 
   18950    295.06106   -617.58689    276651.74   -76273.455    7505.8319   -83779.287    1067.8545 
   19000    301.43943   -409.51154    275804.12   -76258.284    7668.0864    -83926.37    1068.2187 
   19050    303.14036   -590.67658    276216.01   -76242.758     7711.355   -83954.113    1072.9823 
   19100    298.85397   -805.83416    277308.61   -76278.126    7602.3169   -83880.443    1078.6833 
   19150     297.3962    -804.8808    277909.27   -76232.711    7565.2339   -83797.945    1083.7908 
   19200    291.83156   -798.18989       277548   -76250.821    7423.6792     -83674.5    1085.9026 
   19250    296.00697   -101.80021    276616.96   -76242.888    7529.8943   -83772.782    1087.3133 
   19300    298.76468     -240.984     276339.5   -76265.884    7600.0456   -83865.929    1089.4833 
   19350    293.94793   -453.87879    276959.68   -76293.406    7477.5159   -83770.922    1095.0786 
   19400    295.74344    -757.2016    277566.84   -76294.431    7523.1904   -83817.622    1098.2817 
   19450    298.09316   -822.47252     277494.1   -76319.335    7582.9634   -83902.298    1099.8637 
   19500    292.29333   -828.73497    276916.02   -76379.282    7435.4258   -83814.708     1099.371 
   19550     295.9628   -329.47014     276415.5   -76319.149    7528.7708    -83847.92    1101.2555 
   19600    296.15799   -329.33924    276421.47   -76307.312     7533.736   -83841.048    1104.1524 
   19650    296.58777   -552.33449    276814.79   -76261.475    7544.6687   -83806.144    1108.5545 
   19700    293.39799   -386.39313    277182.18   -76207.759    7463.5264   -83671.285    1111.0725 
   19750    296.27321   -411.31356    277460.54   -76235.485     7536.667   -83772.152    1112.9824 
   19800    293.00404   -630.06801    277500.18   -76252.346    7453.5051   -83705.851    1116.7945 
   19850     295.1582   -561.01644    277047.31   -76236.002    7508.3029   -83744.305    1117.1234 
   19900    299.03999    -410.5465    276539.01   -76180.527    7607.0489   -83787.576      1117.32 
   19950    303.66588   -226.81738    276489.84   -76190.808    7724.7235   -83915.531     1120.657 
   20000    301.40357   -501.41509    277153.82   -76156.556    7667.1742    -83823.73    1124.9036 
   20050    300.61253   -656.95363    277772.91   -76192.262    7647.0515   -83839.314    1129.6197 
   20100     298.4554    -567.1215    277511.19   -76223.083    7592.1781   -83815.261    1132.0275 
   20150    298.63988   -311.20055    276871.07   -76262.304    7596.8709   -83859.175    1133.7958 
   20200    295.61294   -342.16763    276723.69   -76254.809    7519.8707    -83774.68    1136.1006 
   20250    290.64228   -343.69057    276907.29    -76268.63    7393.4261   -83662.056    1141.0498 
   20300    299.75997   -740.27869    277135.82   -76252.401    7625.3639   -83877.765     1143.479 
   20350    302.24804   -552.07649    277008.27   -76247.247    7688.6561   -83935.903    1146.3039 
   20400    296.15867   -273.58459    276772.29   -76220.157    7533.7532    -83753.91     1147.182 
   20450    300.45266   -620.09543    276918.38   -76175.944    7642.9847   -83818.929    1150.6888 
   20500    296.01907    -596.4926    277245.84   -76170.311    7530.2022   -83700.513    1155.6199 
   20550    297.58399   -698.21593    277309.03   -76158.343    7570.0109   -83728.354    1158.2907 
   20600    299.83689   -559.50754    277079.42   -76156.836    7627.3207   -83784.156    1159.5038 
   20650     300.3035   -383.51058    277060.17   -76107.999    7639.1904    -83747.19    1161.5369 
   20700    296.03958   -884.45018    277566.28   -76177.305    7530.7238   -83708.029    1166.5975 
   20750    298.63725   -780.26211    277705.81   -76171.567    7596.8039   -83768.371    1168.6674 
   20800    298.32452   -547.46043    277493.06   -76161.023    7588.8488   -83749.871    1168.9727 
   20850    297.96905   -633.07895    277358.33   -76157.537    7579.8061   -83737.343    1170.7391 
   20900    299.89251   -619.87469    277045.92   -76081.772    7628.7356   -83710.508    1172.5816 
   20950    297.52246   -289.00064    276608.69    -76139.72    7568.4456   -83708.166     1173.589 
   21000    299.41582   -368.83343     276625.2   -76172.714    7616.6093   -83789.323    1175.9616 
   21050     294.8462   -519.51113    277197.27   -76115.426    7500.3662   -83615.792    1179.3198 
   21100     298.2579   -639.58438     277561.2   -76094.415     7587.154   -83681.569     1181.787 
   21150    295.47567   -641.82148    277665.85   -76132.381    7516.3788    -83648.76    1185.0284 
   21200    296.84502   -534.35476    277215.11   -76155.255    7551.2129   -83706.468    1186.8236 
   21250    303.28563   -483.11658    276571.76    -76210.83    7715.0506    -83925.88    1186.8881 
   21300    297.03316   -512.85335    276321.21   -76208.292    7555.9988   -83764.291    1187.5914 
   21350    294.94476   -520.64802    276726.74   -76278.887    7502.8734   -83781.761    1191.9233 
   21400    295.03113   -675.18545    277233.76   -76272.626    7505.0707   -83777.697    1197.1268 
   21450    298.03002   -645.97693    277333.25   -76258.348    7581.3572   -83839.705    1199.3838 
   21500    294.64783   -461.06254    277234.51   -76232.766      7495.32   -83728.086    1201.1642 
   21550    297.93779   -537.54062    277064.68   -76236.729     7579.011    -83815.74    1204.4295 
   21600    295.19732   -292.07909    276878.51   -76282.503    7509.2981   -83791.801    1205.4781 
   21650    295.64717   -540.13063    276675.62   -76287.454    7520.7416   -83808.196    1205.7787 
   21700     291.5767   -487.30143    276622.27   -76264.327     7417.196   -83681.523    1208.3326 
   21750    296.75995   -477.32239    276899.63   -76266.784    7549.0488   -83815.833    1212.6457 
   21800    293.19437   -682.08531    277338.36   -76271.912    7458.3468   -83730.259    1217.2922 
   21850     296.1283   -597.30069    277495.37   -76267.975    7532.9808   -83800.956    1221.0383 
   21900    294.48537   -599.74716    277319.36    -76254.97    7491.1875   -83746.158    1224.5901 
   21950    291.75998   -404.10167    277126.13   -76262.814    7421.8584   -83684.672    1224.8097 
   22000    296.00265   -253.10802    277061.12   -76215.595    7529.7845    -83745.38    1227.9831 
   22050    297.83545   -627.55295    277352.28   -76197.394    7576.4076   -83773.802    1231.9199 
   22100    299.09486   -591.53644    277302.37   -76182.267    7608.4446   -83790.711    1235.2362 
   22150    296.63563   -381.72064    277055.82   -76177.575    7545.8862   -83723.462    1236.9491 
   22200    298.15414     -473.021    276944.64   -76161.941    7584.5145   -83746.455    1239.5251 
   22250    294.62519   -448.20244    276910.29   -76183.023    7494.7443   -83677.767    1240.8087 
   22300     299.9305   -332.22541    276898.64   -76217.971     7629.702   -83847.673    1243.6471 
   22350    297.32257   -420.25419    276873.34    -76226.19    7563.3609   -83789.551    1247.1542 
   22400    295.18528      -559.79     276933.9   -76247.625    7508.9918   -83756.617    1250.6714 
   22450    299.62158   -474.48245    277252.69    -76221.48    7621.8435   -83843.324    1254.9619 
   22500    295.92844   -679.33251    277754.88   -76134.709    7527.8965   -83662.606    1257.7505 
   22550    300.14677   -602.67734    277860.21   -76166.643    7635.2036   -83801.846    1260.3109 
   22600    297.09258   -429.27776    277405.85   -76199.776    7557.5101   -83757.286    1261.5396 
   22650    301.58986   -542.65405     276927.1   -76192.804    7671.9131   -83864.717    1261.8503 
   22700    299.79014   -433.18919    276456.91   -76213.813    7626.1315   -83839.944    1264.1114 
   22750    294.99244   -388.30537    276738.14   -76185.864    7504.0864   -83689.951    1268.8072 
   22800    300.66935   -619.35701     277304.1   -76207.452    7648.4969   -83855.949    1275.0777 
   22850    292.73557     -440.138    277767.76   -76184.111    7446.6755   -83630.786    1280.4323 
   22900    296.01616   -496.65196    277794.02   -76135.866    7530.1282   -83665.995    1284.1236 
   22950    296.79081   -256.39407    277398.64   -76146.425    7549.8338   -83696.259    1285.6674 
   23000    296.87449   -200.55285    277030.68   -76211.682    7551.9625   -83763.645     1285.424 
   23050    300.45726   -645.44965    277139.71    -76197.04    7643.1017   -83840.141    1287.3592 
   23100     296.7001   -485.98287    277256.56   -76253.049    7547.5262   -83800.575     1291.359 
   23150     292.8148   -569.14717    277468.94   -76253.114     7448.691   -83701.805    1293.6771 
   23200    297.79465   -673.12302    277710.52   -76208.735    7575.3696   -83784.105    1296.6489 
   23250    300.10756   -947.88706    277584.99   -76192.644     7634.206    -83826.85    1298.9836 
   23300    298.81865   -373.02335    276938.54   -76212.189    7601.4183   -83813.607    1300.6447 
   23350    297.45843   -208.77595     276650.2   -76235.369    7566.8167   -83802.186    1303.5468 
   23400    299.98572   -867.00857    277101.79   -76223.651    7631.1067   -83854.758    1306.7131 
   23450    297.00471   -725.16327    277181.54   -76248.299    7555.2749   -83803.574    1311.3079 
   23500    294.66555   -615.41442    276939.89   -76278.754    7495.7709   -83774.525    1312.4367 
   23550    300.53215   -494.68413    276578.83   -76274.412    7645.0068   -83919.419    1313.8298 
   23600    300.81805    -144.5717    276380.07   -76288.643    7652.2797   -83940.923    1317.2393 
   23650    291.17562    -436.1281    276816.11   -76319.048    7406.9932   -83726.042    1323.0091 
   23700    297.61516   -649.58389    277147.08   -76328.296    7570.8039     -83899.1    1327.9245 
   23750    294.94569   -624.29608    277110.38   -76325.259    7502.8972   -83828.156    1328.3711 
   23800    295.64499    -432.8102    276920.03   -76301.933    7520.6861   -83822.619     1331.254 
   23850    294.28269    -570.5184     276823.1   -76267.436    7486.0315   -83753.467    1335.4142 
   23900     295.8354   -403.43102    276942.22   -76284.111    7525.5299   -83809.641    1340.0301 
   23950    296.94454   -398.63011    277188.99   -76324.538    7553.7443   -83878.282    1344.7063 
   24000    297.57206   -663.74817     277163.8   -76303.762    7569.7074   -83873.469    1347.3111 
   24050    296.71235   -255.29035    276672.07   -76295.817     7547.838   -83843.655    1348.5953 
   24100     297.2356   -310.31383    276404.44   -76307.656    7561.1484   -83868.805    1353.8952 
   24150    297.13992   -602.48536    276784.01   -76277.481    7558.7145   -83836.195    1357.1563 
   24200    302.11427   -624.85403     277164.5    -76291.95    7685.2533   -83977.203    1360.8883 
   24250    296.47821   -642.13841    277250.66   -76224.643    7541.8817   -83766.525    1363.7183 
   24300    292.71944   -576.76178    277128.93   -76252.552    7446.2653   -83698.817    1365.2815 
   24350    294.51755   -677.23839    276830.48   -76290.009    7492.0061   -83782.015    1365.3792 
   24400    298.49472   -469.84365     276513.4    -76314.14    7593.1781   -83907.318    1368.3469 
   24450    298.77655   -374.54801    276658.49   -76322.943    7600.3475   -83923.291    1370.7866 
   24500    292.34723   -601.71466    276946.68   -76321.382     7436.797   -83758.178    1375.2445 
   24550    296.65255   -625.12277    276948.76   -76346.439    7546.3166   -83892.756    1378.7447 
   24600    296.80461   -221.00326    276717.05   -76376.472    7550.1849   -83926.657    1380.2351 
   24650    300.07609    -712.7374    276540.33   -76376.769    7633.4055   -84010.174    1381.8897 
   24700    299.72562   -410.13478    276407.66   -76381.253    7624.4903   -84005.743    1385.2131 
   24750    297.20902   -583.88706    276892.41   -76359.984    7560.4723   -83920.457    1390.4182 
   24800    296.24388   -889.48007    277325.59   -76379.422    7535.9208   -83915.342    1395.3919 
   24850    291.11707    -513.5589    277100.63   -76371.435     7405.504   -83776.939     1397.189 
   24900    293.12831   -427.26299    276688.32   -76412.495    7456.6663   -83869.161    1398.3166 
   24950    294.69838    -389.0277    276507.85   -76420.109    7496.6061   -83916.715    1398.6963 
   25000    295.30143   -579.89557     276792.2   -76390.106    7511.9465   -83902.052    1399.1056 
   25050    292.09779   -382.20964    277146.47   -76359.232    7430.4516   -83789.683    1403.4232 
   25100    295.29849    -885.2385    277441.19   -76382.455    7511.8717   -83894.327    1408.8133 
   25150    292.63009   -556.60316    277063.24   -76357.237    7443.9925    -83801.23    1410.1228 
   25200     296.8169   -352.66228    276512.45   -76319.889    7550.4973   -83870.386    1411.2394 
   25250    295.94236   -345.33724    276310.33   -76309.383    7528.2508   -83837.634    1411.8284 
   25300    296.89237   -754.65166    276713.49   -76272.422    7552.4174   -83824.839    1416.6058 
   25350    300.96176   -497.69605    277239.17   -76282.295    7655.9352   -83938.231    1422.7711 
   25400    294.56755   -545.62336    277453.98   -76295.782    7493.2781    -83789.06    1428.5352 
   25450    299.57714   -703.92583    277123.37   -76329.352    7620.7131   -83950.065     1428.639 
   25500    291.00582   -326.61044     276511.7   -76346.194    7402.6737   -83748.868    1427.5784 
   25550    298.55432   -396.75715    276228.71   -76358.156    7594.6943    -83952.85    1428.8806 
   25600    297.47556   -510.72544    276675.38   -76369.203    7567.2526   -83936.456    1432.5914 
   25650    299.11512   -529.65949    277252.17   -76349.938    7608.9602   -83958.898    1438.6093 
   25700    292.48825   -676.97707    277578.79   -76305.473    7440.3842   -83745.857    1443.4413 
   25750    292.58373   -630.68692    277371.83   -76321.261     7442.813   -83764.074    1445.0859 
   25800    294.16531    -606.9536    276891.92   -76301.956    7483.0457   -83785.002      1445.26 
   25850    295.39255   -180.89106    276650.71   -76311.126    7514.2646   -83825.391    1446.4487 
   25900    297.69606   -380.90807    276865.98   -76344.688    7572.8618    -83917.55    1451.3066 
   25950     292.2699   -554.47676    277145.26   -76353.394    7434.8298   -83788.224    1455.6718 
   26000    292.91028   -935.38382    277206.51    -76385.15    7451.1198    -83836.27    1458.7318 
   26050    293.00947   -451.80686    276689.54   -76386.523    7453.6431   -83840.166    1459.3018 
   26100     295.6681   -291.42832     276517.8   -76407.428    7521.2739   -83928.702    1461.5014 
   26150    296.37561   -452.28078    276961.55   -76343.736    7539.2719   -83883.008    1465.9062 
   26200    291.58188   -985.19286    277624.61   -76326.991    7417.3277   -83744.319    1471.4265 
   26250    292.46099   -867.93533    277512.69   -76293.957    7439.6907   -83733.648    1472.2189 
   26300    296.12658   -318.57954     276600.4   -76305.703    7532.9369    -83838.64    1475.2038 
   26350    300.34182   -35.145348    276117.79   -76261.845    7640.1653    -83902.01    1477.1198 
   26400    298.15847   -85.726456    276586.34   -76266.755    7584.6247    -83851.38    1481.9711 
   26450    294.31611   -688.60412    277579.75   -76299.791    7486.8818   -83786.673     1488.135 
   26500    300.08316   -846.64933    277624.41   -76274.811    7633.5854   -83908.396    1490.9676 
   26550    295.68028   -509.19653     276889.8   -76322.047    7521.5839   -83843.631    1491.2634 
   26600    294.34716   -581.77327    276498.13    -76305.27    7487.6716   -83792.942    1491.4857 
   26650    294.85444   -468.81323    276465.64   -76342.753     7500.576   -83843.329    1493.2549 
   26700    299.27133   -444.40716    276842.75   -76394.115    7612.9339   -84007.049    1496.3187 
   26750    296.64541   -771.78836    277406.36   -76424.499     7546.135   -83970.634    1501.8289 
   26800    293.91424   -696.31661     277313.1   -76423.056     7476.659   -83899.715    1504.8521 
   26850    297.22881   -382.46844    276676.88   -76476.676    7560.9758   -84037.652    1507.7485 
   26900    296.75881    -440.0085    276154.79   -76510.733    7549.0199   -84059.753    1508.2278 
   26950    293.09689   -475.46909    276231.35   -76504.719     7455.867   -83960.586    1509.9103 
   27000    293.51791   -495.51479    276710.14   -76518.719     7466.577   -83985.296    1514.8362 
   27050    291.06858   -354.20962    277091.93   -76512.464    7404.2704   -83916.735    1518.4961 
   27100    285.84205   -497.59073    277095.66   -76544.691    7271.3166   -83816.008     1522.471 
   27150    286.93732   -267.55158    276607.83   -76446.233    7299.1785   -83745.412    1524.6819 
   27200    295.16849   -418.24576    276627.22   -76445.893    7508.5649   -83954.458    1527.6806 
   27250     291.7296   -754.50822    277118.65   -76440.625    7421.0855   -83861.711    1532.7231 
   27300    294.23418   -552.90443    277303.24   -76422.337    7484.7976   -83907.134    1537.5371 
   27350     293.5551   -320.49588    277170.77   -76428.151     7467.523   -83895.674     1539.762 
   27400    294.68123   -580.76466    277158.37   -76396.933    7496.1697   -83893.103     1541.662 
   27450    296.76432   -513.87108    276896.46   -76363.064    7549.1599   -83912.224    1543.1097 
   27500      292.043    -385.5416    276722.48   -76322.919    7429.0579   -83751.977    1545.4964 
   27550    295.99565   -442.39593    276863.79   -76306.531    7529.6064   -83836.138    1550.0297 
   27600      293.507   -575.64632    277173.01   -76288.282    7466.2994   -83754.581    1554.3383 
   27650    295.19134   -364.63818    277245.86   -76319.462    7509.1461   -83828.609    1557.2336 
   27700    299.35055   -284.34163    277003.84   -76333.687     7614.949   -83948.636    1558.0906 
   27750    295.58088   -398.23186    276764.03   -76295.265    7519.0553    -83814.32     1560.801 
   27800    293.60605   -816.45381    276812.74   -76341.901    7468.8191    -83810.72    1559.3293 
   27850    295.62126   -700.71064    277106.66   -76313.771    7520.0825   -83833.853    1560.3848 
   27900    293.28098   -543.15517     277192.3   -76238.449    7460.5498   -83698.999    1563.1021 
   27950    295.44754   -488.09786    277134.16   -76248.642    7515.6633   -83764.305     1565.461 
   28000    296.15212   -537.52707    277234.41   -76255.151    7533.5866   -83788.738    1567.6866 
   28050    300.46704   -488.48071     276990.8   -76235.034    7643.3505   -83878.384    1571.2191 
   28100    297.20441   -533.74044    276656.21   -76241.832     7560.355   -83802.187    1573.1558 
   28150    293.73124   -428.66703    276599.86   -76277.651    7472.0036   -83749.655    1575.5396 
   28200    296.56672   -541.38056    276760.26   -76308.575    7544.1332   -83852.708    1580.0026 
   28250    301.79417   -732.74363    277146.35   -76250.596    7677.1104   -83927.706    1583.6681 
   28300    293.35157   -235.93922    277185.21   -76256.796    7462.3455   -83719.141    1586.8713 
   28350    296.15229   -378.52674    277033.47   -76291.106     7533.591   -83824.697    1588.2069 
   28400    296.22348   -338.22457    276942.55   -76287.926     7535.402   -83823.328    1588.8904 
   28450    297.35219   -640.38258    277111.37   -76281.735    7564.1142   -83845.849    1590.8739 
   28500    297.17106   -342.61043    277013.74   -76229.557    7559.5068   -83789.063    1592.3424 
   28550    300.09571   -765.29656    277142.12   -76192.508    7633.9047   -83826.413     1595.613 
   28600    304.12275   -798.01686    276837.83   -76155.394    7736.3454   -83891.739    1597.0135 
   28650    300.45626   -538.70293    276603.96   -76167.575    7643.0764   -83810.651    1600.8928 
   28700    300.79757   -290.84826     276875.9     -76120.4    7651.7586   -83772.159    1605.1366 
   28750    297.10288   -619.64707    277371.71   -76143.266    7557.7722   -83701.038    1609.7826 
   28800    296.97708   -580.49524    277848.23   -76213.006    7554.5722   -83767.578    1613.0989 
   28850    298.20062   -512.31126    277699.62   -76225.565    7585.6968   -83811.262    1614.3522 
   28900    294.21232   -395.03476    277141.32   -76230.288    7484.2416    -83714.53    1614.2812 
   28950      294.822   -664.92518    276851.28   -76239.887    7499.7507   -83739.638    1617.9606 
   29000     296.3176   -382.06855    276630.35   -76281.595    7537.7961   -83819.391    1618.5251 
   29050     296.5027   -165.27464    276551.29    -76286.97    7542.5049   -83829.475    1621.1362 
   29100    293.12914    -614.4951    276882.75   -76271.103    7456.6873    -83727.79    1625.4389 
   29150    296.31427   -286.99099    277193.75   -76283.193    7537.7115   -83820.904    1629.1872 
   29200    292.95007   -497.29886    277359.64   -76268.855    7452.1322   -83720.987    1632.9416 
   29250    297.95262   -546.32865    276995.01   -76224.898    7579.3881   -83804.286    1633.2331 
   29300    296.27085   -642.50156    276563.06   -76267.113     7536.607    -83803.72    1634.7176 
   29350     298.2723   -328.06469    276561.63   -76305.555    7587.5202   -83893.076    1639.4952 
   29400    296.66682   -233.13431    277028.55   -76315.873    7546.6796   -83862.553    1643.9973 
   29450    295.83258   -558.15119    277519.58   -76323.238     7525.458   -83848.696    1646.3499 
   29500    293.47413    -475.7254    277539.19    -76322.73    7465.4634   -83788.193    1648.5123 
   29550    293.68979   -490.81519     277026.5   -76285.729    7470.9493   -83756.678    1648.8158 
   29600     300.3181   -260.76262    276349.42    -76268.65    7639.5618   -83908.212     1648.962 
   29650    297.66387    -185.0451    276374.12   -76244.415     7572.043   -83816.458    1652.5619 
   29700    296.76164   -635.57196     277215.6   -76272.761    7549.0916   -83821.852    1658.6646 
   29750    297.37502   -647.95173     277670.1    -76246.08    7564.6951   -83810.775    1663.8045 
   29800    297.53677   -259.14658    277349.89    -76227.71    7568.8097   -83796.519    1664.7726 
   29850    294.46203   -356.12669    276853.96   -76225.024    7490.5937   -83715.618    1667.8456 
   29900    303.96422   -403.89755    276585.22   -76189.751    7732.3128   -83922.063    1672.6661 
   29950     296.3815   -354.46081    276806.12   -76182.373    7539.4216   -83721.794    1677.0722 
   30000    297.23085   -352.09958    277154.49   -76216.966    7561.0276   -83777.993    1679.7812 
   30050    295.36578   -559.34147    277497.22   -76240.276    7513.5835    -83753.86    1684.8658 
   30100    293.25455   -614.95008    277603.44    -76189.74    7459.8774   -83649.617    1687.6504 
   30150    297.07001   -134.81973    277227.75    -76198.62    7556.9361   -83755.557    1687.3342 
   30200    299.19487     -258.529    277043.83    -76200.66    7610.9889   -83811.649    1687.1881 
   30250    304.19051   -597.67268    277228.16   -76211.754    7738.0692   -83949.824    1690.8391 
   30300     295.6073   -582.51721    277339.11   -76185.891    7519.7273   -83705.618     1693.442 
   30350    297.24481   -583.67922    277145.55   -76200.395    7561.3827   -83761.777    1695.9267 
   30400    295.96421   -508.32933    276726.03   -76278.056    7528.8065   -83806.862    1697.2434 
   30450    298.02141   -163.60687    276225.01   -76313.896     7581.138   -83895.034    1696.3812 
   30500     296.7947   -376.84527    276420.58   -76260.723    7549.9326   -83810.655    1698.3714 
   30550    296.66176   -660.43832    277264.87   -76248.112     7546.551   -83794.663    1704.9021 
   30600    292.94081   -868.17635    277816.66   -76275.903    7451.8966     -83727.8     1708.736 
   30650    295.80924   -635.41857    277432.46     -76301.8    7524.8645   -83826.665    1707.7578 
   30700    296.28617   -274.31722    276750.91   -76306.879    7536.9966   -83843.875    1707.3118 
   30750    292.56929   -223.91208    276502.08   -76339.891    7442.4457   -83782.336    1708.4462 
   30800    288.66782   -535.31532    276648.54   -76383.078    7343.1991   -83726.278    1712.3742 
   30850    295.50236   -329.77428    276751.03    -76405.83    7517.0578   -83922.888    1715.5861 
   30900    293.71647    -855.0453    277252.41   -76378.574     7471.628   -83850.202    1719.3272 
   30950    298.63625   -755.46411    277492.51   -76395.533    7596.7785   -83992.311     1722.403 
   31000    294.71329   -787.78358    277265.65   -76397.073    7496.9854   -83894.058    1722.9463 
   31050    297.05794   -544.20359    276766.95   -76386.637    7556.6291   -83943.266    1722.7682 
   31100    294.20115     -145.663    276602.08   -76362.499    7483.9573   -83846.457    1725.7557 
   31150    297.83503    -325.0047    276837.68   -76335.231    7576.3969   -83911.628    1727.9453 
   31200    293.69288   -457.81725    277265.14   -76313.385     7471.028   -83784.413    1730.1315 
   31250    297.35178   -803.46108     277553.2   -76310.928     7564.104   -83875.032    1733.2365 
   31300    299.55322   -637.15771    277087.31   -76309.965    7620.1046   -83930.069    1733.5326 
   31350    292.28704   -391.33778    276459.28   -76333.581    7435.2659   -83768.847     1733.394 
   31400    295.54869   -54.491314    275978.26   -76374.943    7518.2363   -83893.179    1732.5141 
   31450    293.58749   -395.62917    276425.93   -76352.493    7468.3469    -83820.84    1738.1824 
   31500     297.1449   -607.42403    277373.03   -76351.132    7558.8413   -83909.974    1744.1629 
   31550    294.83878   -697.26097    278030.72   -76358.981    7500.1777   -83859.159    1749.9374 
   31600    289.97792   -873.55789    277877.36   -76367.698    7376.5258   -83744.224    1752.1577 
   31650     291.7549   -469.00145    276816.24   -76315.216     7421.729   -83736.945    1750.3783 
   31700    299.85375    162.71377    275767.17   -76338.811    7627.7496   -83966.561    1747.1895 
   31750    300.80825   -460.41838    276200.99   -76335.715    7652.0304   -83987.745    1750.3622 
   31800     294.5579   -671.81743    277209.06   -76329.188    7493.0324    -83822.22    1756.4295 
   31850    292.80271   -871.24663    277618.14   -76363.522    7448.3835   -83811.905    1761.5016 
   31900    297.90531   -490.33995    277024.38   -76399.084    7578.1846   -83977.268    1762.8051 
   31950    297.03798   -393.39936    276343.07   -76366.408    7556.1215   -83922.529    1763.4019 
   32000    294.57856   -138.85178    276043.35   -76393.104     7493.558   -83886.662    1763.1853 
   32050    294.98999   -443.90929    276713.58   -76411.099     7504.024   -83915.123    1767.7924 
   32100    294.27987   -819.29179    277576.97   -76380.033      7485.96   -83865.993    1775.2532 
   32150    290.72554   -775.83573    277813.98   -76411.874    7395.5441   -83807.418    1778.4266 
   32200    292.06665    -549.8728    277050.73   -76385.037    7429.6596   -83814.697    1775.9115 
   32250     298.6702   -201.97046    276173.67   -76373.571    7597.6422   -83971.213    1775.0499 
   32300    291.73221   -384.06899    276322.04   -76393.162    7421.1518   -83814.314    1779.2405 
   32350    294.67225   -769.72197    277084.55   -76393.905    7495.9414   -83889.846     1784.682 
   32400    288.09201   -527.22335    277260.78   -76385.225    7328.5515   -83713.776     1788.302 
   32450    294.43441   -850.50992     277155.1   -76424.902    7489.8911   -83914.793    1789.3829 
   32500    293.19062   -653.73687     276782.3   -76401.396    7458.2514   -83859.647    1791.1911 
   32550    293.02378   -165.83906    276171.17   -76423.565    7454.0071   -83877.572    1791.1449 
   32600    292.38085    -187.7816    276318.19   -76365.529    7437.6521   -83803.181    1793.8727 
   32650    298.00452    -474.5462    277004.88   -76366.252    7580.7085    -83946.96    1799.3606 
   32700    295.50651   -665.48417    277357.53   -76367.032    7517.1635   -83884.196    1804.1119 
   32750    295.39564   -746.58051    277292.19   -76345.962    7514.3432   -83860.305    1806.6491 
   32800    291.38006   -370.95093    276793.55   -76375.261    7412.1939   -83787.455    1809.2758 
   32850     292.5448   -331.45292    276718.31   -76356.994    7441.8229   -83798.817    1813.1807 
   32900    300.43552   -700.99433    277015.65   -76389.444    7642.5486   -84031.993    1816.0845 
   32950     293.6083   -511.57287    277143.61   -76421.335    7468.8763   -83890.211    1819.8451 
   33000    296.90972   -629.90787    277333.31   -76368.281    7552.8586    -83921.14    1821.5654 
   33050    291.23766   -491.78761    277124.06   -76365.805    7408.5714   -83774.377    1819.8646 
   33100    297.76337   -306.19369    276747.72   -76383.981    7574.5741   -83958.555    1819.1395 
   33150    293.61075   -458.56484    276703.19   -76393.799    7468.9385   -83862.737    1821.1562 
   33200    292.41281   -238.81719    276831.92   -76422.071    7438.4652   -83860.536    1825.6695 
   33250    290.83983    -517.2475    277004.24   -76429.008    7398.4514    -83827.46    1828.3952 
   33300    294.50437   -375.26222    276717.97   -76414.792    7491.6708   -83906.463    1827.9427 
   33350    293.07149   -330.04676    276585.67   -76456.659    7455.2207    -83911.88    1829.5583 
   33400    295.90852   -476.72848    276775.75   -76416.791      7527.39   -83944.181    1832.1018 
   33450    289.47557   -619.09258    277362.43   -76389.914     7363.747   -83753.661    1835.7981 
   33500    295.34086   -771.63752    277524.32   -76419.541    7512.9497   -83932.491    1839.7078 
   33550     291.7699   -324.90346    276787.91   -76394.677    7422.1107   -83816.788    1838.6972 
   33600    293.97461    -426.2428    276243.28   -76415.338    7478.1946   -83893.532    1838.9841 
   33650    291.96153   -520.66752    276310.45   -76417.544    7426.9855    -83844.53    1842.9533 
   33700    298.63424    -654.0822    276755.73   -76381.391    7596.7272   -83978.118    1847.5485 
   33750    293.28929   -685.01057    277334.44   -76351.821    7460.7613   -83812.582    1854.3116 
   33800    300.07605   -441.05724    277425.69   -76359.742    7633.4044   -83993.146    1857.3451 
   33850     294.9632   -709.47742    277326.83   -76375.409    7503.3426   -83878.751    1858.4805 
   33900    293.09269   -821.39902    277140.76   -76392.916    7455.7601   -83848.676    1859.6363 
   33950    296.11812   -690.56156    276531.92   -76406.424    7532.7216   -83939.145    1861.4522 
   34000    292.91666   -306.71987    275965.05   -76373.994    7451.2823   -83825.277    1862.3436 
   34050    290.77921   -127.20643    276305.69   -76384.592    7396.9093   -83781.502     1866.334 
   34100    290.41432   -573.34979    277374.25   -76396.608    7387.6271   -83784.235     1875.386 
   34150    291.11192   -774.01913    278104.81   -76383.277    7405.3729    -83788.65    1880.4755 
   34200    296.19351   -551.25018    277327.17   -76401.862    7534.6396   -83936.502    1878.9182 
   34250    297.42588   -474.29088    276417.01   -76400.585    7565.9888   -83966.574    1877.1397 
   34300    294.37953   -139.85804    276024.69   -76351.905     7488.495     -83840.4    1876.9988 
   34350    297.92601   -328.90158    276507.13    -76375.09    7578.7112   -83953.801    1879.6283 
   34400    289.81436   -857.03091    277285.02   -76408.239    7372.3652   -83780.604    1885.4783 
   34450    296.08687    -447.9848    277323.18   -76366.388    7531.9268   -83898.315    1889.4297 
   34500    291.87716   -542.44241    277198.39   -76406.572    7424.8393   -83831.411    1892.6823 
   34550    295.11498   -466.93524    276876.95   -76464.895    7507.2037   -83972.099    1891.9133 
   34600    292.04089   -444.84481    276660.86    -76496.09    7429.0041   -83925.094    1893.8416 
   34650    291.19771    -473.4873    276829.65   -76468.827    7407.5551   -83876.382    1898.0687 
   34700    295.24735   -710.83947    277106.49   -76431.211    7510.5708   -83941.782    1901.6686 
   34750    291.01224    -509.2541    277253.03   -76452.348    7402.8373   -83855.185    1905.4035 
   34800    293.71272   -679.34973    277231.24   -76419.216    7471.5326   -83890.748    1907.7567 
   34850    292.35906   -702.15533    277065.72   -76459.063     7437.098   -83896.161    1910.1131 
   34900     295.6213   -507.03291     276743.9   -76469.925    7520.0834   -83990.008    1913.5305 
   34950    296.52087   -408.49089    276418.03   -76425.977    7542.9669   -83968.944    1915.1987 
   35000    294.57072   -283.50886    276343.43   -76427.264    7493.3587   -83920.623    1917.9125 
   35050    287.86833   -588.56911    276733.99   -76408.778    7322.8615   -83731.639    1922.9329 
   35100    292.85877   -698.16059    277326.23   -76434.302    7449.8097   -83884.112    1927.0524 
   35150    292.25215    -666.6923    277382.25   -76448.899    7434.3784   -83883.277    1930.0531 
   35200    293.38513   -582.98607    276919.68   -76447.645    7463.1993   -83910.844    1927.8386 
   35250    295.21234   -160.43254    276543.65   -76407.696    7509.6803   -83917.377    1928.3085 
   35300    292.68448   -504.95144    276873.94   -76371.073     7445.376   -83816.449     1933.563 
   35350    287.76668   -567.05878    277359.39   -76339.585    7320.2759   -83659.861     1938.123 
   35400    292.91857   -513.91197    277225.23   -76381.254    7451.3309   -83832.585    1938.6585 
   35450    294.23709   -348.46868     276575.3   -76371.468    7484.8717    -83856.34    1938.9949 
   35500    296.21683   -317.34192    276177.03   -76337.114    7535.2327   -83872.347    1939.1738 
   35550    296.09135   -413.19365    276173.57    -76381.24    7532.0407   -83913.281    1942.1506 
   35600    294.25237   -629.41424    276849.02   -76290.296    7485.2602   -83775.556    1948.2062 
   35650    298.07085   -674.14411    277343.98   -76284.072    7582.3957   -83866.468    1956.5437 
   35700    295.40577   -550.10992    277298.99   -76337.093    7514.6007   -83851.694    1959.4007 
   35750    300.92037   -701.82929    276691.06   -76344.232    7654.8824   -83999.114    1958.1625 
   35800    302.06348   -289.80563    276014.38   -76376.847    7683.9611   -84060.808    1957.2975 
   35850    295.51356   -243.23545    275931.83    -76345.08    7517.3429   -83862.423    1959.8488 
   35900    296.90316   -178.09387    276656.27   -76346.236    7552.6916   -83898.927    1965.7148 
   35950    294.17146   -806.63566    277605.86   -76342.452    7483.2021   -83825.654    1973.1324 
   36000    293.19379   -753.14711    277775.46   -76360.438     7458.332    -83818.77    1977.5328 
   36050    292.37723   -733.45928    277256.47   -76393.245    7437.5601   -83830.805    1977.5137 
   36100    297.29064   -317.23981    276568.22   -76373.906    7562.5487   -83936.454    1976.4462 
   36150    295.90576   -359.35512    276256.42   -76369.864    7527.3197   -83897.184    1976.4001 
   36200    298.34772   -375.78842    276518.81   -76384.456    7589.4388   -83973.894    1979.3682 
   36250    299.29298   -510.36343    277125.94   -76369.283    7613.4846   -83982.767    1985.8654 
   36300    297.36834   -621.54494    277569.91   -76406.307    7564.5252   -83970.833    1991.2192 
   36350     292.0726   -680.58858    277176.99    -76327.67    7429.8107   -83757.481    1988.8154 
   36400    292.33474   -373.02187    276428.04   -76382.518    7436.4792   -83818.998    1986.6353 
   36450    293.81874   -331.09743     276225.5   -76351.934    7474.2297   -83826.164    1988.0158 
   36500    292.17324   -193.12746    276644.49   -76347.289    7432.3709    -83779.66    1992.3698 
   36550     294.8667   -696.82214    277234.52   -76301.301    7500.8878   -83802.188    1999.5615 
   36600     295.7434    -778.2386    277541.34   -76283.174    7523.1896   -83806.363     2003.154 
   36650     295.3718    -597.0057    277271.33   -76308.363    7513.7366     -83822.1    2002.5015 
   36700    294.73325   -407.51622    276786.97   -76302.166     7497.493   -83799.659      2001.32 
   36750    294.64413   -338.88803    276697.92    -76324.35     7495.226   -83819.576      2002.44 
   36800    287.02628   -503.84833    277109.16   -76272.359    7301.4414     -83573.8    2004.1642 
   36850     297.8749   -656.48298    277433.56   -76273.737    7577.4111   -83851.148    2004.6216 
   36900    296.41636   -461.37059    277341.31   -76295.203    7540.3083   -83835.511    2006.0812 
   36950    292.34874   -504.30869    276954.03   -76335.003    7436.8354   -83771.839    2007.3297 
   37000    297.99328   -492.66981    276722.57   -76361.873    7580.4225   -83942.295    2008.0218 
   37050    295.22882   -379.55248    276771.54   -76372.431    7510.0995   -83882.531    2010.5323 
   37100    294.13892   -729.33285    277066.12   -76335.557    7482.3744   -83817.932     2016.572 
   37150    292.97174   -631.58857    276974.83   -76338.992    7452.6833   -83791.676    2021.2369 
   37200    296.61858   -556.78233    276751.86   -76354.839    7545.4524   -83900.292    2021.5057 
   37250    298.78221    -247.4532    276677.67   -76357.212    7600.4916   -83957.703    2023.0594 
   37300    292.37139   -297.12049    276846.52   -76368.002    7437.4117   -83805.413    2028.8717 
   37350    291.19236   -578.44933    277199.42   -76360.133    7407.4192   -83767.552     2033.454 
   37400    294.22083   -688.53719    277291.03   -76335.539     7484.458   -83819.997    2036.5602 
   37450    294.62629   -426.60209    277004.33   -76338.488    7494.7721   -83833.261    2038.8049 
   37500    294.75409   -351.01824    276751.96   -76342.036    7498.0233   -83840.059     2041.155 
   37550    300.34371   -417.55723    276615.08   -76344.399    7640.2133   -83984.613    2044.1956 
   37600    293.87547   -618.54457    276680.37   -76352.611    7475.6728   -83828.284    2046.8367 
   37650    295.11098   -693.15848     276884.5   -76350.069    7507.1019   -83857.171    2049.8856 
[...]
   90850    301.32433   -404.34907    276560.66   -76181.025    7665.1586   -83846.184    4575.9077 
   90900    296.00571   -636.12289    277053.27   -76178.639    7529.8623   -83708.501    4583.1274 
   90950    294.93236   -648.52756    277455.25   -76214.898    7502.5582   -83717.456    4589.9605 
   91000     296.0047   -494.38631    277391.25   -76185.366    7529.8365   -83715.203    4591.6866 
   91050    294.74052   -419.78106    277053.34   -76218.865     7497.678   -83716.543    4589.7453 
   91100    295.29669   -289.11856     276841.2   -76170.632     7511.826   -83682.458     4586.759 
   91150    297.59406   -597.59068    276890.92   -76190.774     7570.267   -83761.041    4587.8322 
   91200    296.37558   -654.20762    277171.56   -76215.098     7539.271   -83754.369    4593.9209 
   91250    296.89456   -740.24018    277353.69   -76226.305    7552.4731   -83778.778    4596.1224 
   91300    299.57984   -525.79247    276804.52   -76235.405    7620.7817   -83856.187     4590.699 
   91350    295.49831   -77.237618    276483.85   -76244.688    7516.9549   -83761.643      4587.88 
   91400    297.12782   -555.84443    276936.78   -76277.386    7558.4067   -83835.793    4597.0687 
   91450    299.40722   -499.34182    277353.27   -76307.801    7616.3905   -83924.191    4603.8402 
   91500    297.99691    -555.6131    277423.58   -76308.758    7580.5148   -83889.273    4605.0853 
   91550    292.66828   -674.80398    277216.48   -76292.374    7444.9639   -83737.338    4607.5927 
   91600    298.03503   -423.99098    276917.68   -76321.976    7581.4846   -83903.461    4609.3149 
   91650    293.66081   -409.63278    276912.53   -76381.686    7470.2122   -83851.898    4611.7655 
   91700    295.76597   -492.60256    277106.69   -76395.765    7523.7636   -83919.529    4614.4302 
   91750    297.36758   -477.87364    277412.71   -76343.588    7564.5058   -83908.093    4624.4486 
   91800    297.32356   -963.25332     277605.4   -76349.826    7563.3861   -83913.212    4629.8354 
   91850    291.03351   -430.55504    276734.58   -76380.008    7403.3784   -83783.386    4623.7245 
   91900    295.41795   -270.02653    275836.74   -76368.181    7514.9105   -83883.091    4616.3051 
   91950    296.91395    -67.27324     275737.3   -76425.272    7552.9662   -83978.239    4615.0269 
   92000    291.40117   -182.16715    276791.14   -76384.428    7412.7308   -83797.159    4630.5426 
   92050    290.04008   -527.83916    277876.27   -76422.139    7378.1072   -83800.246    4645.9749 
   92100    291.45311   -934.36076    277976.83   -76347.093    7414.0522   -83761.145    4650.2078 
   92150    297.25528   -524.98047    277379.86    -76353.17     7561.649   -83914.819    4645.6959 
   92200    298.83126   -364.13628    276809.94   -76350.537    7601.7393   -83952.276    4639.0067 
   92250    297.24019   -230.85008       276690   -76331.532    7561.2651   -83892.798    4640.0928 
   92300    297.57796   -398.13825    276943.94   -76340.201    7569.8574   -83910.058    4644.2088 
   92350    296.13442   -714.03903     277456.2   -76353.084    7533.1364    -83886.22    4653.4321 
   92400    295.41738   -503.64716     277371.4   -76350.197    7514.8961   -83865.093    4655.6942 
   92450    292.55017   -421.40253    276971.43   -76344.318    7441.9594   -83786.277    4653.7491 
   92500    296.81179    -419.6382    276776.94   -76359.915    7550.3675   -83910.282    4653.9411 
   92550    295.43554   -235.43969     276647.1   -76366.558     7515.358   -83881.916    4654.5408 
   92600    294.59083   -481.64248    276811.12   -76397.833    7493.8701   -83891.703    4659.5495 
   92650    294.71407   -691.86937    277278.81    -76373.49    7497.0052   -83870.496    4664.6842 
   92700    296.85915   -711.46183     277673.3   -76362.842    7551.5722   -83914.414    4672.3341 
   92750    291.23136   -685.17475    277541.95   -76410.964    7408.4111   -83819.375    4675.5912 
   92800    294.64739   -477.06956    276652.03    -76408.93     7495.309   -83904.239    4670.6188 
   92850    294.17637   -326.20051    276167.01   -76390.995     7483.327   -83874.322     4670.107 
   92900    294.11219   -231.37867     276390.4   -76412.216    7481.6944   -83893.911    4673.3421 
   92950    294.07781    -536.8078    276986.05   -76391.674    7480.8198   -83872.494    4684.6653 
   93000    293.00443   -420.65342    277324.26    -76354.79    7453.5149   -83808.305    4689.5449 
   93050    292.83238    -500.1468    277225.26   -76321.125    7449.1384   -83770.263    4691.9293 
   93100    293.66058   -286.71636    276611.41   -76281.861    7470.2062   -83752.067    4685.6424 
   93150    297.78714   -270.34464    276195.42   -76311.429    7575.1786   -83886.608    4683.1303 
   93200    293.15102   -276.21542    276643.08   -76280.176    7457.2439    -83737.42    4691.2627 
   93250    296.75404   -748.33277    277340.57   -76250.371    7548.8985   -83799.269    4704.0727 
   93300    295.40051   -552.92202    277309.23   -76274.823    7514.4669    -83789.29    4707.9932 
   93350    294.62309   -523.88656    277009.28   -76318.052    7494.6908   -83812.743    4706.1643 
   93400    292.37821   -424.87907    276514.69   -76332.317     7437.585   -83769.902    4701.7158 
   93450    292.09028   -310.29347    276319.81     -76329.6    7430.2606   -83759.861    4699.9239 
   93500    295.45898   -193.29324    276516.66   -76317.512    7515.9543   -83833.466     4701.181 
   93550    298.13055   -685.89207    277362.97   -76307.198    7583.9143   -83891.113    4710.5601 
   93600    298.00311   -757.11244    277892.01   -76268.337    7580.6724   -83849.009    4719.0091 
   93650    296.10153   -742.26592    277382.43   -76281.126    7532.2998   -83813.426    4714.5203 
   93700    290.14477   -332.73866    276340.02   -76274.469    7380.7703   -83655.239    4705.6335 
   93750    300.99437    -508.3598    276042.53   -76268.758    7656.7649   -83925.523    4702.6998 
   93800    298.73259   -142.91813    276313.65   -76268.253    7599.2292   -83867.482    4706.6801 
   93850     298.2569    -459.5084    277102.92   -76269.429    7587.1285   -83856.557    4718.4679 
   93900     297.8755   -821.54191    277946.85   -76248.059    7577.4264   -83825.485    4733.2047 
   93950    299.64438   -1000.0405    277948.55    -76243.83    7622.4234   -83866.253    4738.2106 
   94000    297.51106   -474.04999    277071.48   -76238.961    7568.1556   -83807.117    4727.2878 
   94050    299.40603   -343.30335    276376.63    -76204.32    7616.3602    -83820.68    4721.2012 
   94100    296.10432   -198.18468    276392.63   -76227.935    7532.3707   -83760.305    4724.3864 
   94150     298.5609   -641.59749    276696.91   -76222.027    7594.8618   -83816.889    4728.2129 
   94200    299.79795   -318.02575    277204.54   -76218.135    7626.3301   -83844.465     4737.777 
   94250    299.01332   -775.62156    277703.33   -76180.768    7606.3704   -83787.139    4744.6537 
   94300    294.91787   -668.61588    277474.71   -76163.874    7502.1895   -83666.063      4743.05 
   94350    295.94149   -368.69469    276802.08    -76177.82    7528.2285   -83706.049    4737.7299 
   94400    299.75246   -491.95878    276636.52   -76210.862    7625.1728   -83836.035    4738.1122 
   94450    294.42228   -374.19148     276751.8    -76208.82    7489.5825   -83698.402    4739.4949 
   94500    299.26966   -488.04613    276979.32   -76189.228    7612.8914   -83802.119    4741.6951 
   94550    299.64832   -783.38542     277111.3   -76229.008    7622.5239   -83851.532    4748.2447 
   94600    297.81313   -402.32291    276884.22   -76207.578    7575.8398   -83783.418    4746.9704 
   94650    300.74894    -746.8138    276897.79   -76179.355    7650.5217   -83829.877    4750.7942 
   94700    298.89968   -625.07529    276915.72   -76133.116    7603.4797   -83736.596    4755.8021 
   94750    299.18108   -642.07404    277045.95   -76194.884     7610.638   -83805.522    4763.8647 
   94800    296.91472   -620.98687    277149.89   -76200.591    7552.9857   -83753.577    4764.3556 
   94850    295.64419   -252.63028    276840.02   -76216.061    7520.6658   -83736.727    4759.7927 
   94900    302.08102   -317.50488    276813.49   -76221.361    7684.4075   -83905.769     4760.519 
   94950    296.02288   -584.37636    277195.66   -76258.541    7530.2991    -83788.84    4766.6281 
   95000    293.39577   -523.39446    277311.53   -76261.584    7463.4699   -83725.054    4771.8771 
   95050    294.41535   -416.93966    277224.67   -76231.331    7489.4064   -83720.737    4774.9775 
   95100    299.22282   -601.13154    277067.34   -76249.537    7611.6998   -83861.237    4774.8785 
   95150    294.65742   -502.51128     276653.3   -76264.035     7495.564   -83759.599    4771.7649 
   95200    293.02818    -416.5305    276536.07   -76276.525    7454.1191   -83730.644      4774.08 
   95250    295.01693   -644.28036    276869.97   -76261.706    7504.7094   -83766.416    4782.0577 
   95300    296.69871   -594.83734    277374.66   -76304.387     7547.491   -83851.878    4788.8038 
   95350    296.88289   -711.56085    277606.35   -76326.157    7552.1761   -83878.333     4794.493 
   95400    291.49673    -525.5488    277479.42   -76274.578    7415.1618    -83689.74    4794.9347 
   95450    298.80106   -360.47851    276960.09   -76292.268     7600.971   -83893.239    4789.9289 
   95500    296.35228    -410.4418    276573.42   -76293.918    7538.6784   -83832.596    4786.8148 
   95550    296.86542   -116.08446    276418.34   -76310.842    7551.7317   -83862.574    4786.9388 
   95600    298.29762   -598.86129    277008.94   -76301.429    7588.1643   -83889.593     4795.074 
   95650    294.67115   -496.67693    277522.65   -76332.781    7495.9132   -83828.694    4802.2369 
   95700    294.21589   -846.64888    278063.85   -76303.027    7484.3323   -83787.359     4809.879 
   95750      297.124   -690.94872    277707.85   -76304.017    7558.3094   -83862.327    4809.2993 
   95800    294.90348   -206.26493     276888.7   -76340.948    7501.8233   -83842.771    4797.0435 
   95850    295.77309   -237.87133    276569.78    -76333.84    7523.9448   -83857.785    4797.1496 
   95900    295.20909   -579.20625    276887.26   -76333.967    7509.5976   -83843.564    4803.0324 
   95950    299.36506   -815.75981     277211.3   -76323.937    7615.3182   -83939.255    4809.5644 
   96000    298.17095   -662.48185    277006.39   -76332.022    7584.9421   -83916.964    4809.1826 
   96050     299.2194   -485.74994    276844.06   -76316.925    7611.6128   -83928.538    4809.5245 
   96100    303.29764   -528.53653    276860.11   -76247.125     7715.356   -83962.481    4811.9009 
   96150     301.9658   -590.67906    276969.97   -76277.551    7681.4764   -83959.027    4815.8898 
   96200    302.13947   -668.72597    277011.29   -76223.408    7685.8943   -83909.302    4820.2198 
   96250    298.76035   -269.74412    276972.48   -76225.242    7599.9353   -83825.177    4820.9667 
   96300    296.68415    -541.7305    277126.72   -76220.635    7547.1205   -83767.755    4827.7203 
   96350    294.74853   -630.84445       277009   -76225.548    7497.8817    -83723.43    4827.2658 
   96400    298.97171   -236.26084    276607.12   -76265.791    7605.3119   -83871.103    4825.8125 
   96450    292.00433   -326.08468    276629.69   -76230.055    7428.0743    -83658.13    4826.8969 
   96500    298.04941   -369.23319    276831.17   -76220.538    7581.8503   -83802.389    4831.7255 
   96550    296.35152   -909.52071    277259.03   -76205.245    7538.6591   -83743.905     4836.464 
   96600    293.65595   -690.86396    277524.19    -76196.45    7470.0884   -83666.538    4842.9951 
   96650    294.81169   -784.14667    277528.95   -76235.585    7499.4885   -83735.074    4844.5811 
   96700    299.76663   -282.02868    277024.42   -76258.929    7625.5334   -83884.462    4842.4068 
   96750     295.0605   -293.55412    276973.68    -76232.82    7505.8177   -83738.638    4846.1496 
   96800    297.34712   -574.57452    276938.11   -76242.518    7563.9853   -83806.504    4848.0901 
   96850     292.1507    -468.9914    276754.37   -76265.167    7431.7975   -83696.964    4850.1584 
   96900     303.7704    -580.9586    276817.36   -76235.613    7727.3821   -83962.995    4854.3376 
   96950    296.15458   -407.60354     277000.8    -76232.44    7533.6492   -83766.089    4857.9794 
   97000    300.40155   -817.62834    277226.84    -76253.35    7641.6845   -83895.035    4863.2596 
   97050    294.77213   -629.82134    276959.29   -76227.717    7498.4821   -83726.199    4863.0598 
   97100    294.66251   -229.26498    276770.93   -76267.588    7495.6935   -83763.281    4862.6443 
   97150    296.95057   -401.73939    276851.15   -76278.479    7553.8978   -83832.376    4865.8563 
   97200     298.1886   -823.16136    277150.34   -76261.258     7585.391   -83846.649    4870.5844 
   97250    295.66813   -721.72307    277186.49   -76273.526    7521.2747   -83794.801    4875.8465 
   97300     299.7038    -454.4353    277203.23   -76304.187    7623.9351   -83928.122    4878.1183 
   97350    290.19456   -652.62415     277327.8   -76323.833    7382.0369    -83705.87    4886.7579 
   97400     292.1592   -306.59529     277147.3    -76336.58    7432.0137   -83768.593    4889.9065 
   97450    290.62454   -599.53194    276987.99   -76359.343    7392.9748   -83752.318    4889.4165 
   97500    294.43024   -598.53311    276918.27   -76358.338     7489.785   -83848.123     4893.923 
   97550    295.00938   -387.03367    276719.59   -76328.141    7504.5174   -83832.659    4895.7771 
   97600    297.77874    -648.7271    276589.92   -76302.584    7574.9651   -83877.549    4896.8825 
   97650     298.4132   -648.86729    276747.52   -76288.521    7591.1045   -83879.626    4901.2806 
   97700    296.45006   -686.38792    277083.99   -76296.238    7541.1656   -83837.404    4903.3812 
   97750    293.80426   -519.37695    277440.42   -76268.571    7473.8612   -83742.432    4906.0313 
   97800    294.29645   -754.98061    277423.18   -76316.757    7486.3818   -83803.138     4908.888 
   97850    299.02594   -410.31616    276966.85   -76351.964    7606.6916   -83958.655    4910.0851 
   97900    296.57785   -332.38656    276519.97   -76397.323    7544.4164   -83941.739    4904.1214 
   97950    297.07822   -224.44299    276446.26   -76365.943    7557.1451   -83923.089    4907.8721 
   98000    291.91055   -283.66792    276898.03   -76380.438    7425.6887   -83806.127    4916.2807 
   98050    292.18549   -558.53972    277531.53   -76376.798    7432.6825    -83809.48    4927.7507 
   98100    295.44927   -721.42736    277701.14   -76392.914    7515.7074   -83908.621    4932.8519 
   98150    291.84768   -498.71509    277041.18   -76399.835    7424.0893   -83823.924    4927.7773 
   98200    294.66874   -503.49428    276380.91   -76417.949    7495.8521   -83913.801    4922.3019 
   98250    295.91058   -259.98007    276291.31   -76412.967    7527.4424   -83940.409    4921.2652 
   98300    290.82281   -600.91566    276820.76   -76458.771    7398.0183   -83856.789    4927.0807 
   98350    293.35231   -549.93238    277428.84   -76455.339    7462.3643   -83917.703    4937.5523 
   98400    291.48788   -645.23198    277271.78   -76423.353    7414.9365    -83838.29    4937.6466 
   98450     296.5999   -547.56101    276477.84   -76400.733    7544.9774   -83945.711    4931.4925 
   98500    294.20349   -422.06911    276104.22   -76408.846     7484.017   -83892.863     4926.852 
   98550    289.21358   -438.04947    276381.15   -76448.347    7357.0824    -83805.43    4932.4154 
   98600    291.48046   -560.96663     276991.9   -76449.342    7414.7479    -83864.09    4944.0839 
   98650    292.17001   -487.44785    277220.98   -76441.953    7432.2887   -83874.242    4949.6728 
   98700    295.21809   -450.67321    276788.34   -76427.785    7509.8266   -83937.612    4944.9013 
   98750    296.64953   -360.44203    276260.35   -76415.878    7546.2398   -83962.118    4937.5004 
   98800    290.53274   -567.94511    276229.83   -76414.716    7390.6395   -83805.355    4937.0611 
   98850    294.69351   -584.52001    276808.03    -76391.24    7496.4822   -83887.722    4946.9709 
   98900    293.09843    -776.6568    277747.97   -76389.164    7455.9061    -83845.07    4962.4371 
   98950    293.55674   -464.44764    277691.08   -76373.895    7467.5647   -83841.459    4959.6367 
   99000      293.408   -139.36056    277064.95   -76367.077    7463.7811   -83830.858    4955.6767 
   99050    297.29645   -637.23025    276740.02   -76372.574    7562.6963   -83935.271    4961.5947 
   99100    292.39464    -383.7419    276694.96   -76376.366    7438.0031   -83814.369    4962.8635 
   99150     295.8151   -490.00898    276841.29   -76381.585    7525.0134   -83906.598    4964.8422 
   99200     291.8045   -720.17678       277022   -76396.832    7422.9909   -83819.823    4969.7934 
   99250    294.22322   -496.74166    277092.32   -76418.031    7484.5189   -83902.549    4970.4414 
   99300    294.08695   -662.32611    277134.05   -76446.692    7481.0523   -83927.744    4972.1645 
   99350     296.8509   -453.10927    277038.35   -76458.763    7551.3625   -84010.125    4972.5313 
   99400    296.33257   -402.35164    277058.42   -76448.097     7538.177   -83986.274    4974.3257 
   99450    293.87526    -684.8504    276869.68   -76432.959    7475.6672   -83908.626    4973.0181 
   99500     294.1925   -386.49588    276764.09   -76460.148    7483.7373   -83943.885    4977.6426 
   99550    291.98007   -535.56391    276904.63   -76407.954    7427.4569   -83835.411    4979.4477 
   99600    296.57021    -535.9393    276862.74   -76419.827    7544.2221   -83964.049    4979.3682 
   99650    294.41962   -426.88761    276597.19   -76425.517    7489.5148   -83915.032    4980.2207 
   99700    296.63521   -277.38141    276400.17    -76408.24    7545.8757   -83954.116    4980.6622 
   99750    292.79151   -782.49724    276764.55   -76421.278    7448.0986   -83869.376    4989.7551 
   99800    287.83171   -666.82056    277268.41   -76411.401    7321.9301   -83733.331    4999.4053 
   99850     290.2028   -604.08929    277552.91   -76389.705    7382.2464   -83771.951    5005.9419 
   99900    292.72202   -556.65487    277205.14   -76413.455    7446.3309   -83859.786    5003.1366 
   99950    298.44595    -313.5802     276535.6   -76403.147    7591.9375   -83995.085    4994.8857 
  100000    296.46929   -29.942565    276216.18   -76370.046    7541.6548     -83911.7    4993.6635 
Loop time of 252.095 on 6 procs for 100000 steps with 8535 atoms

Performance: 342.728 ns/day, 0.070 hours/ns, 396.676 timesteps/s
99.4% CPU use with 6 MPI tasks x no OpenMP threads

MPI task timing breakdown:
Section |  min time  |  avg time  |  max time  |%varavg| %total
---------------------------------------------------------------
Pair    | 72.967     | 129.91     | 198.15     | 447.1 | 51.53
Neigh   | 31.453     | 36.735     | 40.495     |  62.4 | 14.57
Comm    | 7.1897     | 79.032     | 141.26     | 612.1 | 31.35
Output  | 0.146      | 0.14887    | 0.16137    |   1.5 |  0.06
Modify  | 5.127      | 5.1696     | 5.2506     |   1.7 |  2.05
Other   |            | 1.094      |            |       |  0.43

Nlocal:        1422.50 ave        1456 max        1389 min
Histogram: 1 0 1 0 1 1 1 0 0 1
Nghost:        2001.33 ave        2059 max        1960 min
Histogram: 1 1 1 0 0 1 1 0 0 1
Neighs:        0.00000 ave           0 max           0 min
Histogram: 6 0 0 0 0 0 0 0 0 0
FullNghs:      39694.3 ave       40283 max       39071 min
Histogram: 1 1 0 0 1 0 0 2 0 1

Total # of neighbors = 238166
Ave neighs/atom = 27.904628
Neighbor list builds = 21122
Dangerous builds = 0

# Create data file for import to other simulations
#
write_data data.${NAME}
write_data data.coexist_295K_-500atm_ML
System init for write_data ...

Total wall time: 0:04:12
