
# Import phase coexistance setup
#
read_data           data.coexist_${TEMP}K_${PRES}atm_ML
read_data           data.coexist_295K_${PRES}atm_ML
read_data           data.coexist_295K_-500atm_ML
Reading data file ...
  orthogonal box = (-0.19075421 -0.17982536 -0.17982536) to (104.63701 51.151964 51.151964)
  3 by 1 by 2 MPI processor grid
  reading atoms ...
  8535 atoms
  reading velocities ...
  8535 velocities
  read_data CPU = 0.029 seconds

# Define potential
#
pair_style 	    sw
pair_coeff	    * * /data/emrosky-sim/Freezing_Simulations/Melting/MLmW_fancy/ML_mW.sw mW
Reading sw potential file /data/emrosky-sim/Freezing_Simulations/Melting/MLmW_fancy/ML_mW.sw with DATE: 2019-02-27

# Reset velocity/set timestep
#
velocity	    all create ${TEMP} 120598 rot yes dist gaussian
velocity	    all create 295 120598 rot yes dist gaussian
timestep	    10.0

# Define output
#
compute	            1 all msd
compute             2 all orientorder/atom nnn NULL degrees 2 4 12
thermo              1000
thermo_style        custom step temp press vol etotal ke pe c_1[4]

# Neighbor lists
#
neigh_modify        delay 0 every 1 check yes

# Set fixes
#
fix                 1 all momentum 10 linear 1 1 1 rescale
fix                 2 all nph iso ${PRES} ${PRES} ${PCOUPL}
fix                 2 all nph iso -500 ${PRES} ${PCOUPL}
fix                 2 all nph iso -500 -500 ${PCOUPL}
fix                 2 all nph iso -500 -500 10000.0
fix                 3 all temp/csvr ${TEMP} ${TEMP} ${TCOUPL} 837492
fix                 3 all temp/csvr 295 ${TEMP} ${TCOUPL} 837492
fix                 3 all temp/csvr 295 295 ${TCOUPL} 837492
fix                 3 all temp/csvr 295 295 5000.0 837492

# Run very short equilibration
#
dump		    1 all atom 50 eq.${NAME}.dump
dump		    1 all atom 50 eq.melt_295K_-500atm_ML.dump
run	            500
Neighbor list info ...
  update every 1 steps, delay 0 steps, check yes
  max neighbors/atom: 2000, page size: 100000
  master list distance cutoff = 6.0032907
  ghost atom cutoff = 6.0032907
  binsize = 3.0016454, bins = 35 18 18
  2 neighbor lists, perpetual/occasional/extra = 1 1 0
  (1) pair sw, perpetual
      attributes: full, newton on
      pair build: full/bin/atomonly
      stencil: full/bin/3d
      bin: standard
  (2) compute orientorder/atom, occasional, copy from (1)
      attributes: full, newton on
      pair build: copy
      stencil: none
      bin: none
Per MPI rank memory allocation (min/avg/max) = 4.599 | 4.601 | 4.602 Mbytes
Step Temp Press Volume TotEng KinEng PotEng c_1[4] 
       0          295     -36.1281    276216.18   -76407.422    7504.2787     -83911.7            0 
     500    344.15304   -316.68735    271730.26   -78046.334    8754.6452   -86800.979    15.633198 
Loop time of 1.19067 on 6 procs for 500 steps with 8535 atoms

Performance: 362.822 ns/day, 0.066 hours/ns, 419.933 timesteps/s
99.4% CPU use with 6 MPI tasks x no OpenMP threads

MPI task timing breakdown:
Section |  min time  |  avg time  |  max time  |%varavg| %total
---------------------------------------------------------------
Pair    | 0.39454    | 0.64994    | 0.96856    |  27.1 | 54.59
Neigh   | 0.1266     | 0.14561    | 0.16009    |   3.3 | 12.23
Comm    | 0.024505   | 0.35755    | 0.63201    |  38.4 | 30.03
Output  | 0.0078329  | 0.0084053  | 0.0089548  |   0.4 |  0.71
Modify  | 0.023418   | 0.024128   | 0.024831   |   0.3 |  2.03
Other   |            | 0.005025   |            |       |  0.42

Nlocal:        1422.50 ave        1452 max        1396 min
Histogram: 2 0 0 1 0 1 0 0 0 2
Nghost:        2014.33 ave        2074 max        1962 min
Histogram: 1 1 1 1 0 0 0 0 0 2
Neighs:        0.00000 ave           0 max           0 min
Histogram: 6 0 0 0 0 0 0 0 0 0
FullNghs:      39991.0 ave       40997 max       39268 min
Histogram: 1 0 2 1 0 0 0 1 0 1

Total # of neighbors = 239946
Ave neighs/atom = 28.113181
Neighbor list builds = 83
Dangerous builds = 0

reset_timestep      0
undump              1
unfix               2
unfix               3


################################################
#######         Run Simulation         #########
################################################

log                 log.run_${NAME}
log                 log.run_melt_295K_-500atm_ML
