
# Set production fixes - Nose/Hoover
#
fix                 2 all nph iso ${PRES} ${PRES} ${PCOUPL}
fix                 2 all nph iso 1 ${PRES} ${PCOUPL}
fix                 2 all nph iso 1 1 ${PCOUPL}
fix                 2 all nph iso 1 1 10000.0
fix                 3 all temp/csvr ${TEMP} ${TEMP} ${TCOUPL} 837492
fix                 3 all temp/csvr 290 ${TEMP} ${TCOUPL} 837492
fix                 3 all temp/csvr 290 290 ${TCOUPL} 837492
fix                 3 all temp/csvr 290 290 5000.0 837492

# Define Order parameter
#
compute             2 all orientorder/atom nnn NULL cutoff 3.5
thermo              200
thermo_style        custom step temp press vol etotal ke pe c_1[4]

# Run 1ns simulation
dump		    1 all custom 400 prod.${NAME}.dump id type x y z vx vy vz c_2[*]
dump		    1 all custom 400 prod.ice_290K_1atm_ML.dump id type x y z vx vy vz c_2[*]
run                 200000
Neighbor list info ...
  update every 1 steps, delay 0 steps, check yes
  max neighbors/atom: 2000, page size: 100000
  master list distance cutoff = 6.0032907
  ghost atom cutoff = 6.0032907
  binsize = 3.0016454, bins = 20 17 17
  2 neighbor lists, perpetual/occasional/extra = 1 1 0
  (1) pair sw, perpetual
      attributes: full, newton on
      pair build: full/bin/atomonly
      stencil: full/bin/3d
      bin: standard
  (2) compute orientorder/atom, occasional, copy from (1)
      attributes: full, newton on
      pair build: copy
      stencil: none
      bin: none
Per MPI rank memory allocation (min/avg/max) = 5.819 | 5.819 | 5.819 Mbytes
Step Temp Press Volume TotEng KinEng PotEng c_1[4] 
       0    289.67487    32.719875    148546.35    -47605.59    3977.9868   -51583.577   0.14262198 
     200    290.94763    15.406392    148577.62   -47596.213     3995.465   -51591.678   0.14384869 
     400    283.61395   -28.221436    148603.33   -47589.618    3894.7546   -51484.372   0.14546939 
     600     291.3621    10.986297    148543.59   -47629.013    4001.1568    -51630.17   0.14237285 
     800     283.7187   -11.769438    148488.13   -47642.745    3896.1931   -51538.938   0.15008269 
    1000    289.36404    9.0170896     148503.5   -47656.769    3973.7183   -51630.487   0.14546596 
    1200    284.70318    9.2913554    148511.32   -47680.988    3909.7126     -51590.7   0.14250183 
    1400    290.30073    32.250025    148507.36   -47672.185    3986.5814   -51658.766   0.14000755 
    1600    284.17973    10.510697    148481.73    -47674.96    3902.5242   -51577.484   0.14346808 
    1800    281.94038    40.212348    148492.72   -47680.652    3871.7721   -51552.424   0.14350924 
    2000    284.11448    -18.49166    148561.25   -47635.108    3901.6283   -51536.736   0.14195807 
    2200    286.16707   -6.4738217    148582.15   -47604.063    3929.8156   -51533.879   0.14073746 
    2400    285.63924    -2.328276    148534.51    -47621.98    3922.5672   -51544.547   0.14358093 
    2600    289.98621    60.874318    148487.12   -47667.801    3982.2623   -51650.064   0.13916684 
    2800    291.69891   -46.279585    148569.42   -47685.277    4005.7821   -51691.059   0.14064341 
    3000      288.499   -54.863092    148630.34    -47697.66     3961.839   -51659.499    0.1425014 
    3200    291.54657    63.747989    148517.97   -47642.851    4003.6901   -51646.541   0.13936604 
    3400    290.32013    18.059169    148477.29   -47683.309    3986.8479   -51670.157   0.14217887 
    3600    285.79594   -54.967825    148596.01   -47712.078     3924.719   -51636.797   0.14113128 
    3800    285.99082   -39.900234    148635.11   -47637.974    3927.3952   -51565.369   0.14176769 
    4000    284.04805    48.708427    148499.67   -47632.315     3900.716   -51533.031   0.14335928 
    4200     290.9933    61.585476    148506.32   -47650.095    3996.0923   -51646.188   0.13834394 
    4400     287.4548   -93.374555    148671.94   -47637.533    3947.4995   -51585.032   0.14578446 
    4600    293.52519   -29.179187    148609.95   -47617.561    4030.8616   -51648.423   0.14510055 
    4800    288.64688    96.447076    148418.64   -47606.765    3963.8697   -51570.635   0.14485342 
    5000    288.15982    25.493643    148506.72   -47586.374    3957.1812   -51543.556   0.14654825 
    5200    289.79697    -93.02674    148693.84   -47588.119    3979.6636   -51567.782   0.14887593 
    5400    289.86792   -32.941285    148593.76   -47548.581    3980.6379   -51529.219   0.15009637 
    5600    292.18818    102.55059     148434.2   -47533.002    4012.5011   -51545.503   0.14368962 
    5800    292.87961   -7.8590381    148561.54    -47523.31    4021.9961   -51545.306   0.14547457 
    6000    296.86978    -92.50207     148716.4   -47509.216    4076.7915   -51586.008   0.14735758 
    6200    297.41945    25.844654    148547.59   -47502.166      4084.34   -51586.506   0.14376493 
    6400    291.58596    130.44708    148407.79   -47469.049     4004.231    -51473.28   0.14309932 
    6600    293.03276   -76.659875     148635.9   -47509.643    4024.0993   -51533.742   0.14940733 
    6800    290.32627    -116.1326    148693.42   -47547.704    3986.9322   -51534.636   0.15161648 
    7000    290.13266    118.33359    148418.37   -47549.991    3984.2734   -51534.264   0.14778412 
    7200    290.80663     78.36579    148423.25   -47497.302    3993.5287   -51490.831   0.15124916 
    7400    296.38816   -147.52658    148758.39    -47480.45    4070.1776   -51550.627   0.14636446 
    7600    293.02838   -95.989007    148684.17   -47514.644    4024.0391   -51538.683   0.14880681 
    7800    295.74437    169.41513    148313.26   -47542.777    4061.3368   -51604.114   0.14739516 
    8000    291.14375    49.607331    148463.01   -47510.321    3998.1584    -51508.48    0.1487961 
    8200    289.99961   -223.65246    148844.76   -47545.384    3982.4463   -51527.831   0.15090751 
    8400    292.67163   -61.026638     148589.5   -47571.535      4019.14   -51590.675   0.14714091 
    8600    293.02814    268.90131    148210.47   -47530.527    4024.0358   -51554.562   0.14669667 
    8800    297.04678   -23.375023    148596.68   -47463.052    4079.2222   -51542.274   0.14846178 
    9000    294.20939    -311.3363    148961.94   -47440.584    4040.2574   -51480.842   0.15310853 
    9200    297.83115    122.27354    148463.86   -47425.932    4089.9937   -51515.925   0.15081279 
    9400    294.52363    319.77216    148174.51   -47476.006    4044.5728   -51520.579   0.14702376 
    9600    294.01128   -162.21461    148760.33    -47467.58     4037.537   -51505.117   0.15031237 
    9800    293.46639   -318.81542    148951.44   -47482.712    4030.0542   -51512.766   0.15112323 
   10000    295.26032    237.00547    148261.89    -47479.04    4054.6894   -51533.729   0.14758206 
   10200    291.99003    264.68994    148186.47   -47470.614    4009.7799   -51480.394   0.14646754 
   10400    296.48938   -246.17696    148907.51   -47457.886    4071.5676   -51529.453   0.14872073 
   10600    289.95038   -237.51633    148892.16   -47438.046    3981.7702   -51419.816   0.14949937 
   10800    295.49208    326.52217    148155.07   -47470.148    4057.8722   -51528.021   0.14556008 
   11000    293.39374    179.08204    148295.52   -47514.288    4029.0565   -51543.344   0.15000143 
   11200    288.99181   -348.16202    148980.25   -47529.946    3968.6066   -51498.553   0.15090406 
   11400     292.4764   -92.292106    148675.88   -47556.603    4016.4591   -51573.062   0.14657174 
   11600    288.58823    345.85605    148080.76   -47526.958    3963.0644   -51490.022   0.14738436 
   11800    285.24716    14.150939    148486.33   -47602.498    3917.1829   -51519.681   0.14961327 
   12000    287.05702   -313.06141    148945.22   -47600.771    3942.0369   -51542.807   0.14608979 
   12200    291.83886    44.152741    148479.75   -47580.194     4007.704   -51587.898   0.14229863 
   12400    290.93262    298.81262    148171.61   -47548.244     3995.259   -51543.503   0.14674738 
   12600    289.54858   -75.423041    148645.06   -47560.782    3976.2524   -51537.035   0.14570168 
   12800    295.07953   -198.06413    148831.08   -47570.679    4052.2068   -51622.885   0.14564933 
   13000    293.69581    123.99945    148388.79   -47550.924    4033.2047   -51584.128    0.1466249 
   13200    289.68234    150.38282    148330.01   -47522.754    3978.0893   -51500.844    0.1500127 
   13400    290.64893   -142.58799    148693.15   -47542.401    3991.3632   -51533.764   0.15006365 
   13600    292.50905   -87.903886    148665.64    -47533.07    4016.9075   -51549.978   0.14554626 
   13800    294.54181    135.70563    148391.07    -47527.12    4044.8224   -51571.943   0.14350403 
   14000    287.87298    30.175736    148480.13   -47548.468    3953.2422    -51501.71   0.14630416 
   14200    295.92159   -124.39455    148697.34   -47576.165    4063.7704   -51639.935   0.14179266 
   14400    289.35953   -39.702893    148560.95   -47599.607    3973.6563   -51573.263   0.14421887 
   14600    288.54402    141.19738    148359.61   -47594.891    3962.4573   -51557.348    0.1436412 
   14800    285.76524   -24.136973       148523   -47577.953    3924.2974    -51502.25   0.14810687 
   15000    283.85496   -165.67925     148679.6   -47629.956    3898.0644    -51528.02   0.15018044 
   15200    288.83241    36.568648    148477.57   -47683.374    3966.4177   -51649.792    0.1399799 
   15400    283.21585    73.273501    148360.39   -47699.536    3889.2877   -51588.824   0.14846834 
   15600     285.3607   -59.310758    148557.53   -47736.652     3918.742   -51655.394   0.14640443 
   15800    285.16312   -85.194351    148655.01   -47687.625    3916.0287   -51603.654   0.14459265 
   16000    285.80896    26.034368     148469.7   -47674.891    3924.8978   -51599.789   0.14494977 
   16200    285.83974    90.583669    148403.08   -47622.303    3925.3205   -51547.623   0.14390238 
   16400    289.82716   -33.751386    148618.74   -47619.793    3980.0781   -51599.871   0.14257929 
   16600     292.5897   -109.80567    148652.93    -47637.34     4018.015   -51655.355   0.14264339 
   16800    290.25307    111.58657    148395.63   -47590.516    3985.9269   -51576.443    0.1454644 
   17000    287.66606    42.584123    148410.48   -47614.986    3950.4006   -51565.386   0.15277871 
   17200     290.3794    -126.4366    148646.62   -47596.846    3987.6618   -51584.508   0.15287149 
   17400    289.77835   -82.706373    148580.33   -47642.474    3979.4078   -51621.882    0.1476878 
   17600    285.33068    119.53205    148298.11   -47679.057    3918.3298   -51597.386   0.14790181 
   17800     286.7121    100.66458    148391.68   -47697.388    3937.3003   -51634.688   0.14281517 
   18000    284.40189    -167.8655    148664.06   -47729.967    3905.5751   -51635.542   0.14132456 
   18200    285.24543   -23.643161    148471.31   -47754.883    3917.1591   -51672.043   0.13861704 
   18400    283.95167    157.12406    148218.29   -47775.285    3899.3924   -51674.678   0.14321529 
   18600    285.50008   -2.5964041    148486.86   -47731.444    3920.6561   -51652.101   0.14118565 
   18800    286.14756   -208.44688    148738.22   -47665.256    3929.5476   -51594.803   0.14326038 
   19000    285.78172    51.856236    148440.18   -47694.019    3924.5237   -51618.543   0.14495576 
   19200    284.89696    206.63771    148245.33   -47667.339    3912.3737   -51579.713   0.14620712 
   19400    288.78638   -68.219835    148629.97   -47658.647    3965.7855   -51624.433   0.14631286 
   19600    286.63721     -223.196    148755.52   -47686.255    3936.2719   -51622.527   0.14683077 
   19800    286.98702     120.4574    148321.73   -47683.569    3941.0756   -51624.645   0.14887938 
   20000    287.98611    114.35769    148307.95   -47675.024    3954.7958    -51629.82   0.14805399 
   20200    288.13536   -208.26254    148791.58    -47700.26    3956.8453   -51657.106   0.14181383 
   20400    285.59637   -97.490523    148679.06   -47679.126    3921.9784   -51601.104   0.14575957 
   20600    290.39087    296.75682    148176.64   -47675.579    3987.8194   -51663.399   0.14045389 
   20800    286.67741    114.30127    148412.64   -47678.777    3936.8238   -51615.601    0.1444517 
   21000    287.11152   -306.58736    148948.55   -47672.582    3942.7853   -51615.367   0.14644751 
   21200    290.15734   -29.536415    148558.01   -47663.764    3984.6124   -51648.376   0.14401789 
   21400    287.27721    364.69877    148057.08   -47658.592    3945.0607   -51603.653   0.14729273 
   21600    288.38463   -112.81383    148635.52   -47617.316    3960.2684   -51577.585   0.14767997 
   21800    291.42453   -372.42016    149085.88   -47565.443    4002.0141   -51567.457   0.14308378 
   22000    289.14099    152.19022    148369.12   -47572.621    3970.6552   -51543.276   0.14626305 
   22200    295.52066    493.02165    147994.76   -47531.579    4058.2647   -51589.843   0.14407413 
   22400    292.79383   -241.03642    148870.38   -47510.942    4020.8182    -51531.76   0.14575416 
   22600    292.60332   -401.22861    149148.97   -47515.416     4018.202   -51533.618   0.14556515 
   22800    290.30092    295.31355     148209.4    -47552.15     3986.584   -51538.734   0.14205668 
   23000    288.26279    362.83396    148066.74   -47570.696    3958.5952   -51529.291   0.14921011 
   23200    288.85563   -309.39807    149005.19   -47565.249    3966.7365   -51531.985   0.14362878 
   23400    290.11058    -307.8232    148950.23   -47573.032    3983.9702   -51557.002   0.14891635 
   23600    290.17716     350.3009    148069.36   -47590.248    3984.8845   -51575.133   0.15118847 
   23800    292.93321    221.82133    148254.91   -47530.927    4022.7322   -51553.659   0.14957854 
   24000    290.07407   -307.08525     148947.9   -47567.063    3983.4688   -51550.532   0.14969236 
   24200    288.46856   -109.24585    148701.09    -47550.53    3961.4211   -51511.951   0.15184086 
   24400    289.36943    248.25124    148251.41   -47555.824    3973.7923   -51529.616   0.15189672 
   24600    287.07759    37.130566    148526.85   -47555.402    3942.3193   -51497.721   0.14590865 
   24800    293.27879   -174.27545    148824.45   -47478.892    4027.4779    -51506.37     0.143624 
   25000    294.75995   -16.605694    148597.46   -47478.737     4047.818   -51526.555   0.15093381 
   25200    291.83773    178.64625    148376.34   -47502.918    4007.6885   -51510.606   0.15318825 
   25400    293.46831    20.095054    148531.13   -47565.707    4030.0806   -51595.788   0.14829351 
   25600    294.53225   -107.27217    148689.14   -47587.747    4044.6912   -51632.438   0.14876761 
   25800    290.10437    44.805401    148501.53   -47564.445     3983.885    -51548.33   0.14924219 
   26000    290.43731    111.26625    148389.83   -47542.791     3988.457   -51531.248   0.14974517 
   26200    287.65107    -50.03987    148577.27   -47589.317    3950.1948   -51539.512    0.1488072 
   26400    290.68952   -66.476625    148644.36   -47612.439    3991.9205    -51604.36   0.14491532 
   26600    289.22476    32.789496     148448.2   -47621.762    3971.8056   -51593.567   0.14778243 
   26800     291.2407    91.032429    148412.13   -47626.423    3999.4897   -51625.913   0.14410411 
   27000     292.2106   -100.06117    148602.37   -47626.678     4012.809   -51639.487   0.14399185 
   27200    285.13734    -83.52463    148593.28   -47619.612    3915.6747   -51535.287   0.15244503 
   27400    294.07717    95.041579    148421.43   -47585.548    4038.4417   -51623.989   0.15020417 
   27600    290.73194   -3.4346543    148487.23   -47590.392    3992.5031   -51582.895   0.15383826 
   27800    290.81506   -85.787994    148697.37   -47586.562    3993.6445   -51580.207   0.14874726 
   28000     290.7656   -40.351584    148623.13   -47575.084    3992.9654    -51568.05   0.15020775 
   28200     289.5507    81.514258    148450.55    -47594.22    3976.2816   -51570.502    0.1472895 
   28400    291.27587   -26.876779     148539.6   -47590.796    3999.9727   -51590.768   0.15110005 
   28600    289.76313   -102.99264     148662.8     -47610.6    3979.1989   -51589.799   0.14946458 
   28800    290.45476    20.064576    148512.06   -47622.244    3988.6967    -51610.94   0.14665691 
   29000    289.46424    106.51771    148401.19   -47659.095    3975.0943   -51634.189   0.14773404 
   29200    290.96583   -58.433258    148577.24   -47695.519     3995.715   -51691.234   0.14160008 
   29400    285.26443   -124.60714    148636.02   -47693.744      3917.42   -51611.164   0.14848838 
   29600    287.00723    109.17501    148428.35   -47654.392    3941.3532   -51595.746    0.1447683 
   29800    289.33656    107.06134    148450.84   -47578.184    3973.3409   -51551.525   0.15027855 
   30000    291.88448   -122.82185    148764.38   -47569.258    4008.3304   -51577.589   0.14805165 
   30200    286.93744   -98.605689    148717.81   -47577.543    3940.3948   -51517.938    0.1453969 
   30400    287.84036     145.6831    148348.57   -47630.122    3952.7942   -51582.916   0.14810475 
   30600    292.70224    104.71668    148413.25   -47578.439    4019.5605       -51598   0.14435613 
   30800    289.76886   -203.46989    148818.22   -47544.625    3979.2775   -51523.903   0.14842426 
   31000    292.95733   -71.911082    148675.88   -47531.593    4023.0634   -51554.656   0.14823066 
   31200    295.02646    240.81899    148222.62   -47534.319     4051.478   -51585.797   0.14679602 
   31400    289.34051    61.938814    148483.31   -47531.435    3973.3951    -51504.83   0.15021321 
   31600    291.37081   -284.84589    148932.03   -47592.827    4001.2764   -51594.104   0.14798388 
   31800    290.86062   -2.3993761    148525.56   -47564.961    3994.2701   -51559.231   0.15142381 
   32000     295.2841    363.62458    148119.12   -47535.049    4055.0161   -51590.066   0.14772188 
   32200    292.42321    -133.7721    148671.87   -47571.568    4015.7286   -51587.297   0.14930852 
   32400    295.46044   -316.66182     148985.8   -47564.104    4057.4376   -51621.541    0.1473927 
   32600    291.43018    150.52052    148335.31   -47550.499    4002.0918   -51552.591    0.1494228 
   32800    295.24339    347.39667    148146.46   -47547.662    4054.4569   -51602.119   0.14201322 
   33000    294.49401   -252.11971    148850.31   -47537.694     4044.166    -51581.86   0.15568562 
   33200    290.22317   -266.79549    148903.52   -47530.227    3985.5163   -51515.743   0.14922203 
   33400    294.54069    290.30318    148200.79   -47491.162    4044.8071   -51535.969   0.14425651 
   33600    295.52835    225.14067    148287.87   -47425.288    4058.3703   -51483.659   0.14790841 
   33800    298.84885   -333.98448    149000.42   -47459.784    4103.9693   -51563.753   0.15132703 
   34000    292.65713   -173.99203    148750.34   -47480.854    4018.9409   -51499.795   0.15677013 
   34200    294.33261    354.94586    148050.32     -47512.1    4041.9496    -51554.05   0.15265444 
   34400    288.58036     99.12994    148386.84   -47578.515    3962.9562   -51541.472   0.14975875 
   34600    294.94997   -311.26362    148969.87   -47550.323    4050.4275    -51600.75   0.14983791 
   34800    291.34901   -40.833792    148552.38   -47591.983     4000.977    -51592.96   0.14964052 
   35000    289.75623    349.88515    148079.54   -47616.094    3979.1041   -51595.198   0.14586712 
   35200    290.78622    8.9055074    148532.53   -47605.232    3993.2485    -51598.48   0.14657688 
   35400     289.5213    -241.9431    148885.75   -47563.908    3975.8779   -51539.786   0.14839897 
   35600    286.89557    21.348102    148437.16   -47558.167    3939.8198   -51497.987   0.15328699 
   35800    289.66887     211.0907    148182.48   -47558.426    3977.9044    -51536.33   0.15468171 
   36000    287.75304   -75.021166    148632.31   -47560.023    3951.5951   -51511.618   0.15426283 
   36200     289.8432   -195.93131    148799.59   -47575.162    3980.2984    -51555.46   0.15476993 
   36400     290.8884    102.53268    148346.87   -47602.409    3994.6517    -51597.06   0.15124114 
   36600    287.28775    183.99839    148269.69   -47577.185    3945.2054   -51522.391   0.15380401 
   36800    287.55481   -129.65349    148705.85   -47621.263    3948.8728   -51570.136   0.15032005 
   37000    291.46217   -95.271877    148710.21   -47610.331     4002.531   -51612.862   0.14293759 
   37200    286.95344    147.85618    148338.42   -47571.165    3940.6145    -51511.78   0.14587042 
   37400    291.28838    75.960192    148420.88   -47565.379    4000.1445   -51565.523   0.14467658 
   37600    287.31364   -201.57963    148787.77   -47592.389     3945.561    -51537.95   0.14845345 
   37800    289.72446    -68.59259    148653.37   -47557.768    3978.6678   -51536.436   0.14755456 
   38000    294.14328    193.45961    148320.25   -47612.863    4039.3496   -51652.213   0.14540698 
   38200    290.54498     60.24928    148477.77   -47607.396    3989.9357   -51597.332   0.14955979 
   38400    292.05245   -205.10064       148793   -47572.455    4010.6372   -51583.092   0.15134499 
   38600    286.95759    -23.65628    148582.93   -47568.822    3940.6715   -51509.493   0.15131595 
   38800    291.32011     166.3749    148288.67   -47621.094    4000.5802   -51621.674   0.14723184 
   39000    287.76121    9.0646984    148519.07   -47647.622    3951.7073   -51599.329   0.14557933 
   39200     287.2687    -176.7335    148780.02   -47667.022    3944.9438   -51611.966   0.14218503 
   39400    285.91767   -30.143791    148522.68   -47658.053    3926.3907   -51584.444   0.14774083 
   39600    286.51381    164.60328    148330.66   -47729.244    3934.5773   -51663.821   0.14101641 
   39800    289.50618   -42.358548    148592.09   -47719.076    3975.6702   -51694.746   0.14464295 
   40000    287.35852    -137.9648    148694.96   -47729.478    3946.1773   -51675.655   0.14043612 
   40200    288.24879    78.142959    148385.99   -47705.388     3958.403   -51663.791   0.14784188 
   40400    289.42978     171.6892    148355.81   -47699.187     3974.621   -51673.808     0.143287 
   40600    285.48757   -148.41421    148677.29   -47727.558    3920.4843   -51648.042   0.14800398 
   40800    281.90834   -91.311601    148619.53   -47745.099    3871.3322   -51616.431   0.14818539 
   41000    286.74575    168.43666    148307.72   -47700.982    3937.7624   -51638.744   0.13846964 
   41200    286.06458      64.6343    148429.05   -47734.689    3928.4081   -51663.097   0.14075434 
   41400    285.48505   -179.72675     148745.2   -47698.213    3920.4496   -51618.663   0.14263994 
   41600    283.79505   -43.557494    148575.46     -47692.6    3897.2415   -51589.842   0.14372519 
   41800    284.69912    169.60688    148255.11   -47692.875    3909.6568   -51602.532   0.14558243 
   42000    288.53149    24.275158    148513.73   -47665.492    3962.2852   -51627.777   0.14829266 
   42200    285.62445   -247.06472    148829.68   -47689.708     3922.364   -51612.072   0.14602293 
   42400    288.57735    43.626073    148449.99   -47741.118     3962.915   -51704.033   0.14206274 
   42600    283.78223    279.08087     148138.1   -47767.447    3897.0655   -51664.513   0.14417996 
   42800    287.34386   -42.689438    148586.68     -47769.5    3945.9759   -51715.476    0.1408967 
   43000    286.30085   -262.14725    148866.98   -47722.684    3931.6527   -51654.337   0.14281794 
   43200    288.58242    152.62486    148344.13    -47726.68    3962.9846   -51689.665   0.13983511 
   43400    285.53494    254.49303    148177.25    -47718.05    3921.1348   -51639.185   0.14627634 
   43600    287.37627   -175.73938    148785.51   -47714.892    3946.4211   -51661.313   0.14194279 
   43800    284.45767   -241.12671    148854.84   -47686.538    3906.3411   -51592.879   0.14451568 
   44000    285.83958     173.4117    148238.22   -47705.753    3925.3183   -51631.072   0.14811587 
   44200    286.10986    220.97767    148276.43   -47749.321    3929.0299   -51678.351   0.14233614 
   44400    281.38873    -269.8016    148906.56   -47722.875    3864.1966   -51587.072    0.1451471 
   44600    284.63756   -123.04621    148726.83   -47659.995    3908.8114   -51568.806   0.14500838 
   44800    291.42608    346.45428    148134.45   -47625.307    4002.0354   -51627.343    0.1452356 
   45000    287.03975    11.047579    148485.65   -47664.734    3941.7997   -51606.534   0.14826688 
   45200    291.23683   -337.75562    148992.22   -47683.728    3999.4365   -51683.164   0.14541956 
   45400     287.3028    32.907717    148486.66   -47733.022    3945.4121   -51678.434   0.14005764 
   45600    286.93987    399.44593    148058.73   -47720.152    3940.4282    -51660.58   0.13886005 
   45800    288.51415   -108.16439     148655.2   -47695.891     3962.047   -51657.938   0.14461881 
   46000    286.01142   -322.87019    148979.01   -47690.579    3927.6781   -51618.257   0.14302579 
   46200     283.4673    154.48235    148325.94   -47724.444    3892.7407   -51617.185   0.14835953 
   46400    288.16575    319.18713    148108.97   -47707.704    3957.2626   -51664.966   0.14469876 
   46600    285.62923   -172.53626    148756.43   -47705.238    3922.4296   -51627.667   0.14426181 
   46800    287.18743   -255.77959    148852.01   -47669.073    3943.8278   -51612.901   0.14497458 
   47000    292.01292    221.53061    148262.45    -47648.83    4010.0942   -51658.924   0.14823524 
   47200    290.58692    175.43756    148316.65   -47620.631    3990.5115   -51611.143   0.15038873 
   47400    288.93523   -212.21814    148837.76   -47550.653    3967.8297   -51518.482   0.15110616 
   47600    292.96703   -83.154092    148706.07   -47523.652    4023.1967   -51546.849     0.145277 
   47800    293.27279    217.44757     148282.3   -47492.932    4027.3955   -51520.327   0.15182632 
   48000    294.10376    98.196028    148479.15   -47496.661    4038.8069   -51535.468   0.14886607 
   48200    293.60999   -159.20715    148802.98    -47496.34    4032.0262   -51528.366   0.15196909 
   48400    289.98647    15.118924    148583.31   -47475.914    3982.2659    -51458.18   0.15476245 
   48600    292.34548    172.37719    148340.96   -47540.939    4014.6611     -51555.6   0.14714466 
   48800    294.13311      7.15987    148544.24   -47483.359    4039.2099   -51522.569   0.14995087 
   49000    293.09577   -130.69341    148754.97   -47460.184    4024.9646   -51485.148   0.14767516 
   49200    294.50738    -5.635283    148572.45   -47494.635    4044.3497   -51538.985   0.15241026 
   49400    293.32169     97.01631    148391.38   -47505.733     4028.067     -51533.8   0.15255144 
   49600    291.31667   -45.721653    148589.57   -47523.939     4000.533   -51524.472   0.14748629 
   49800      292.963   -105.09387    148700.79    -47503.01    4023.1413   -51526.151    0.1470573 
   50000    295.08105    73.552231    148488.45   -47503.706    4052.2277   -51555.934   0.14668463 
   50200     296.5563    110.96225       148454   -47541.646    4072.4867   -51614.132   0.14531862 
   50400    290.97209   -81.086348    148653.54   -47545.767    3995.8009   -51541.568   0.14767755 
   50600    291.77415   -85.061969    148665.94   -47566.261    4006.8154   -51573.077   0.14575224 
   50800    291.96252     69.50801    148476.57   -47577.354    4009.4021   -51586.756   0.14997722 
   51000    295.72964    106.84598    148479.53   -47513.735    4061.1344   -51574.869    0.1456895 
   51200    291.88474   -114.44426    148696.57   -47544.232    4008.3341   -51552.566   0.14846933 
   51400    290.61807   -71.889026    148654.85   -47506.816    3990.9394   -51497.755   0.15016976 
   51600    293.53588     99.98683     148469.8   -47507.833    4031.0084   -51538.842   0.15026199 
   51800    295.72806    61.656267    148555.79   -47504.879    4061.1127   -51565.992   0.14655622 
   52000    292.04178   -138.21688    148717.65   -47465.772    4010.4905   -51476.263   0.15177686 
   52200    293.30725    3.5690027     148604.4   -47438.559    4027.8688   -51466.428   0.14860495 
   52400    291.63137    95.636767     148494.8   -47420.055    4004.8546   -51424.909   0.14922699 
   52600    296.50282   -11.687037    148655.89   -47459.355    4071.7522   -51531.107    0.1455488 
   52800    292.70734    -86.20346    148713.36   -47477.465    4019.6305   -51497.096    0.1470026 
   53000    290.96016    69.810692    148509.96   -47482.753    3995.6372   -51478.391   0.15000797 
   53200    296.22296    42.630418    148463.91   -47492.838    4067.9091   -51560.747     0.150697 
   53400    293.25293    -79.33062    148665.32   -47521.248    4027.1228   -51548.371   0.14476897 
   53600    289.78821    -85.18288     148655.6   -47547.238    3979.5433   -51526.781   0.14860879 
   53800    295.04616     83.92204    148446.45   -47524.613    4051.7485   -51576.361   0.15027177 
   54000    293.67736    54.991813    148499.04   -47514.243    4032.9514   -51547.195   0.14714625 
   54200    291.41974   -82.480634    148732.53   -47522.127    4001.9484   -51524.075   0.14354072 
   54400    292.83039   -64.126409    148649.83    -47549.44    4021.3203    -51570.76   0.14405811 
   54600    288.85457    161.53503    148333.09    -47543.86    3966.7219   -51510.582    0.1496216 
   54800    294.65417    24.177569    148532.22   -47488.861    4046.3655   -51535.226   0.14952075 
   55000    299.47977   -243.30513    148908.02   -47490.872    4112.6335   -51603.506   0.14941093 
   55200     287.2536   -12.901319    148581.31   -47520.485    3944.7365   -51465.221   0.15080101 
   55400    295.00686    315.96752    148195.46   -47544.522    4051.2088    -51595.73   0.14233143 
   55600    291.98383   -47.350386    148640.62    -47582.65    4009.6948   -51592.345   0.14421347 
   55800    295.24181   -267.38432    148983.37   -47553.747    4054.4354   -51608.182    0.1469803 
   56000    292.20847    142.51508    148465.16   -47538.694    4012.7797   -51551.473   0.14356159 
   56200    292.22478     303.0754    148217.59   -47573.357    4013.0037    -51586.36   0.14213203 
   56400    285.81542   -191.84753    148808.75   -47576.517    3924.9865   -51501.504   0.14711534 
   56600    291.98698   -258.61107    148918.04   -47579.567     4009.738   -51589.305   0.14551913 
   56800    292.45885     259.4923    148271.55   -47529.706     4016.218   -51545.924   0.14609351 
   57000    291.55482    172.80969    148328.14   -47537.274    4003.8034   -51541.078    0.1488744 
   57200    295.62947   -271.75299    148978.25   -47567.254    4059.7589   -51627.013   0.14694336 
   57400    294.21221   -149.72785    148805.02   -47585.815    4040.2962   -51626.112   0.14377906 
   57600    290.40653    308.48254    148182.65   -47574.651    3988.0343   -51562.685    0.1425854 
   57800    291.45012    79.672671    148473.85   -47588.932    4002.3656   -51591.298   0.14527292 
   58000    287.18109   -321.44845    148993.43   -47598.962    3943.7407   -51542.703   0.14851605 
   58200     290.0524   -7.3753795    148572.03   -47639.198    3983.1712   -51622.369   0.14661256 
   58400    287.72277    327.98852    148150.31   -47629.796    3951.1793   -51580.975   0.14579704 
   58600    290.61578   -23.793168    148619.77   -47608.351    3990.9079   -51599.259   0.14550248 
   58800    285.28474   -332.37767    148902.83   -47639.243    3917.6989   -51556.942   0.15460752 
   59000    288.00537    81.810945    148365.98   -47663.065    3955.0602   -51618.125   0.14771219 
   59200    289.29185    238.21844    148189.16    -47661.92    3972.7269   -51634.647   0.14659667 
   59400    290.66411   -131.52964    148726.51   -47603.899    3991.5716    -51595.47   0.14898072 
   59600    288.43068   -221.63509    148810.15   -47598.761    3960.9009   -51559.662   0.15042899 
   59800    288.75145    199.73771    148328.11   -47583.422    3965.3058   -51548.728   0.14670317 
   60000    289.25792    134.11671     148369.8   -47570.702     3972.261   -51542.963   0.14469555 
   60200    295.82107   -140.80112    148790.51   -47544.456      4062.39   -51606.846   0.14578413 
   60400    292.11786   -113.09324    148712.25   -47513.002    4011.5353   -51524.538   0.14869184 
   60600     291.1109    151.77583    148377.42   -47553.811    3997.7071   -51551.519   0.14643582 
   60800     295.1053    84.148057    148501.44   -47494.735    4052.5607   -51547.296   0.14611873 
   61000    293.56005   -162.26557    148818.46   -47535.116    4031.3403   -51566.456   0.14617013 
   61200    293.58451   -49.852236    148661.51   -47539.627    4031.6763   -51571.303   0.14490386 
   61400    295.07746    173.20799    148373.35   -47538.046    4052.1784   -51590.224   0.14399904 
   61600    295.03553    34.766784    148548.21   -47530.374    4051.6026   -51581.977   0.14355472 
   61800    293.43343   -129.71275    148764.89   -47530.604    4029.6015   -51560.205   0.14580608 
   62000    290.11932    32.172092    148552.16   -47555.052    3984.0902   -51539.142   0.14491085 
   62200    291.45144    122.57905    148381.62   -47567.658    4002.3836   -51570.042    0.1432898 
   62400     291.8297    -29.42736    148600.05   -47527.722    4007.5782     -51535.3   0.14651968 
   62600    293.65016    -145.6379    148724.34   -47548.186    4032.5778   -51580.764   0.14687323 
   62800    291.74714    39.949485    148490.45   -47525.311    4006.4444   -51531.755   0.14749528 
   63000    292.19018     59.07354    148464.15   -47493.537    4012.5285   -51506.065   0.14941502 
   63200    292.52152   -97.523223    148712.95   -47498.839    4017.0787   -51515.918    0.1483872 
   63400    295.29472   -110.76024    148695.84   -47454.462    4055.1618   -51509.624    0.1504337 
   63600    288.11701    63.945893    148452.61   -47435.178    3956.5933   -51391.771   0.15290722 
   63800    296.92565    60.572834    148517.89    -47464.23    4077.5587   -51541.789   0.14793635 
   64000    299.38545   -78.398339    148704.95   -47457.735    4111.3382   -51569.073   0.14530776 
   64200    293.97773   -19.900087    148611.38   -47459.291    4037.0763   -51496.367   0.14801884 
   64400    295.31155    135.30507    148469.97   -47446.059     4055.393   -51501.452   0.14558936 
   64600    292.52731   -17.338464    148588.34   -47503.287    4017.1581   -51520.445   0.15104078 
   64800    293.85098   -42.759328     148717.3   -47513.538    4035.3355   -51548.874   0.14627769 
   65000    294.51241    7.5368504    148574.75   -47503.368    4044.4187   -51547.786   0.14415512 
   65200    289.14561    88.328705    148450.55   -47529.833    3970.7186   -51500.552   0.14809693 
   65400    294.28965   -29.031775    148597.09   -47556.669    4041.3596   -51598.028   0.14668361 
   65600    287.73274   -92.494015    148658.19   -47580.862    3951.3163   -51532.178   0.15092928 
   65800    294.29742    32.340152    148521.54   -47556.157    4041.4663   -51597.623   0.14011956 
   66000      290.728    53.977669    148520.97   -47554.834    3992.4489   -51547.283   0.14377606 
   66200    295.61506   -28.139481    148652.31    -47581.75     4059.561   -51641.311   0.14058211 
   66400    286.14282   -27.847164    148629.91   -47576.194    3929.4825   -51505.676   0.14479075 
   66600    291.49503    17.687555    148525.21     -47589.2    4002.9823   -51592.183   0.14792372 
   66800    293.47014    67.941908    148521.83    -47571.16    4030.1056   -51601.265   0.14442204 
   67000    286.75752   -4.2741899     148627.7   -47600.433     3937.924   -51538.357   0.14370532 
   67200    289.42546    -38.09986    148643.91   -47621.655    3974.5618   -51596.217   0.14191281 
   67400    286.85117     31.51411    148529.29   -47655.613    3939.2101   -51594.823    0.1427309 
   67600    285.90228    7.1023987    148526.56   -47611.173    3926.1793   -51537.352   0.14500546 
   67800    292.90315   -36.164952    148658.98   -47559.259    4022.3194   -51581.578    0.1420574 
   68000    289.30757   -48.111582    148635.06   -47554.337    3972.9428    -51527.28   0.14289116 
   68200    291.79017    25.462846    148498.79   -47627.189    4007.0354   -51634.225   0.14103652 
   68400    291.99848    91.179288     148500.1   -47569.966    4009.8959   -51579.862   0.14289572 
   68600    288.54043   -83.575722    148645.14    -47554.65    3962.4079   -51517.058   0.14827498 
   68800    289.17325   -58.381027    148641.71   -47522.464    3971.0982   -51493.562   0.15102203 
   69000    290.93711    44.921827    148527.81   -47568.369    3995.3205    -51563.69   0.14586506 
   69200    290.94113    27.037409    148521.92   -47573.447    3995.3758   -51568.822   0.14532253 
   69400    291.26191   -43.501141    148625.85    -47612.86     3999.781   -51612.641   0.13953348 
   69600    289.24491   -24.686336    148615.52   -47624.543    3972.0823   -51596.626   0.14171918 
   69800    288.89185    67.708928    148494.68   -47591.206    3967.2338   -51558.439      0.14378 
   70000     289.6403   -25.600117    148518.96    -47552.72     3977.512   -51530.232   0.15139871 
   70200    295.10111   -12.711137    148638.92   -47535.074    4052.5031   -51587.577   0.14277033 
   70400    293.01334   -12.956265    148641.17   -47548.871    4023.8326   -51572.703   0.14152591 
   70600    287.25226    8.5881319    148525.87   -47520.209     3944.718   -51464.927   0.15105803 
   70800     289.3116    62.884638       148539   -47546.272    3972.9981    -51519.27    0.1461023 
   71000    289.71726   -58.841961    148669.76   -47591.322    3978.5689   -51569.891   0.14631604 
   71200    294.20939   -45.303267    148595.78   -47600.641    4040.2575   -51640.898   0.14914939 
   71400    290.36322    95.750447    148448.92   -47566.732    3987.4396   -51554.171   0.14553987 
   71600    292.53751   -32.670104    148560.11   -47545.257    4017.2983   -51562.555    0.1462183 
   71800    292.07324   -73.907826    148665.79   -47564.343    4010.9227   -51575.266   0.14394991 
   72000    292.83422    36.904281    148491.25   -47588.836    4021.3728   -51610.209   0.14568463 
   72200    285.72162    89.604615    148369.81   -47623.192    3923.6984    -51546.89   0.14798179 
   72400    294.77757   -1.9073656    148581.87   -47605.112      4048.06   -51653.172   0.14426133 
   72600    291.74888   -107.87407    148698.33   -47570.367    4006.4683   -51576.835   0.14800195 
   72800    289.58256    53.418656    148455.19   -47647.156    3976.7191   -51623.875   0.14134152 
   73000    288.60899    98.704014    148380.74    -47644.18    3963.3495    -51607.53   0.14554514 
   73200    284.18045   -85.596458     148643.1   -47656.835    3902.5341   -51559.369   0.14835591 
   73400    289.31431   -79.835737    148650.03   -47651.855    3973.0354    -51624.89   0.14760301 
   73600    286.13635    117.18881    148362.79    -47634.56    3929.3937   -51563.954   0.14364481 
   73800    285.45272    104.49311    148430.04   -47628.953    3920.0057   -51548.958   0.14331942 
   74000    286.59188   -150.37414     148733.6   -47677.112    3935.6494   -51612.761   0.14400795 
   74200    288.78662   -3.8148585    148587.54   -47671.902    3965.7888   -51637.691   0.14269535 
   74400    288.97604     196.5141    148296.88   -47634.245      3968.39   -51602.635   0.14838168 
   74600    283.39752  -0.48747885       148521   -47657.349    3891.7825   -51549.131   0.15006673 
   74800    286.39781   -191.76696    148783.83   -47667.593    3932.9843   -51600.577   0.14439761 
   75000    285.61407    9.9902967    148480.32   -47630.276    3922.2215   -51552.498   0.14821738 
   75200    287.05464    248.74039    148230.43   -47616.706    3942.0042    -51558.71   0.14643152 
   75400    285.32649   -83.468331     148617.5   -47605.159    3918.2722   -51523.431   0.15502277 
   75600    294.34038   -214.15915    148803.08   -47583.977    4042.0563   -51626.033   0.15269476 
   75800     287.8676    78.572235    148353.35    -47560.33    3953.1683   -51513.498   0.15779638 
   76000    289.40351     224.5432    148193.76   -47545.912    3974.2603   -51520.172   0.15102036 
   76200    290.94222   -129.34673    148694.41   -47572.048    3995.3907   -51567.439   0.14552865 
   76400    293.85512   -190.87071    148773.22   -47540.491    4035.3925   -51575.884   0.15269744 
   76600    290.35572    228.97424    148260.18   -47526.904    3987.3366   -51514.241   0.15479357 
   76800    294.57626    214.94348    148295.44   -47527.516    4045.2956   -51572.811   0.15074526 
   77000     290.0088   -260.56907    148873.13   -47529.903    3982.5725   -51512.475   0.15181361 
   77200    295.66925   -120.01449    148724.95   -47575.949    4060.3051   -51636.254   0.14697572 
   77400    285.78868     260.5204    148152.62   -47564.828    3924.6192   -51489.447   0.15418416 
   77600    287.64341    87.147921    148417.29   -47582.454    3950.0895   -51532.543   0.15368832 
   77800    290.23774   -314.94199    148931.33   -47594.193    3985.7164   -51579.909   0.15335247 
   78000    292.07571   -37.163085    148540.66   -47594.608    4010.9565   -51605.564    0.1533635 
   78200    292.37968    309.22639    148098.28   -47588.026    4015.1309   -51603.157   0.15026474 
   78400     289.3994   -35.934808    148562.89   -47609.026    3974.2038    -51583.23   0.15264296 
   78600    286.85683   -299.31751     148877.6   -47626.604    3939.2877   -51565.892   0.15389219 
   78800    295.79039    142.18868    148357.69   -47613.752    4061.9687   -51675.721    0.1477921 
   79000    294.98749    276.12084    148170.45   -47596.401    4050.9428   -51647.344   0.14699573 
   79200    290.34183   -195.12029     148729.3   -47607.275    3987.1459    -51594.42    0.1524731 
   79400    293.70658   -194.58179       148799   -47560.134    4033.3527   -51593.487   0.15235171 
   79600    291.97354    212.22891    148262.15   -47549.655    4009.5535   -51559.208   0.15039759 
   79800    288.09836    147.15366    148299.25   -47576.506    3956.3373   -51532.844   0.15438109 
   80000    289.96898   -210.96227    148784.87    -47548.02    3982.0257   -51530.046   0.15135349 
   80200    294.87401   -81.554087    148652.65   -47512.743    4049.3845   -51562.127   0.14867376 
   80400     296.4545    227.26703    148262.86   -47482.766    4071.0887   -51553.855    0.1475867 
   80600    289.19895    26.699099    148482.76   -47502.954    3971.4512   -51474.405   0.15510231 
   80800    290.20835   -217.40355    148820.37   -47446.144    3985.3128   -51431.457    0.1558579 
   81000    291.45238    23.549138    148592.18   -47498.437    4002.3965   -51500.833   0.14721946 
   81200    295.63669     221.9712    148324.92   -47479.473     4059.858   -51539.331   0.14702588 
   81400    294.42665   -24.327437    148603.67   -47457.007     4043.241   -51500.248    0.1538807 
   81600    293.47621   -178.28812    148815.06   -47476.494    4030.1891   -51506.683   0.15339083 
   81800    293.88114    33.173516    148499.86   -47481.742    4035.7498   -51517.492   0.15409818 
   82000    295.09866    211.19907    148330.05   -47447.994    4052.4694   -51500.464    0.1526218 
   82200    289.10094   -116.06239    148673.44   -47494.208    3970.1053   -51464.314   0.15238078 
   82400    293.04952   -125.17808    148744.86   -47495.258    4024.3295   -51519.587   0.14687697 
   82600    292.02493     175.7336    148375.63   -47539.139    4010.2591   -51549.399   0.14785844 
   82800    291.56496    160.72394    148371.67   -47579.997    4003.9426   -51583.939   0.14821492 
   83000    287.25858   -113.31826    148725.01   -47563.234    3944.8049   -51508.038   0.15168758 
   83200     287.5968   -83.404677    148688.43   -47584.034    3949.4495   -51533.484   0.14946474 
   83400    288.65155    126.09329    148359.38   -47604.345     3963.934   -51568.279   0.15096441 
   83600    288.93029    57.967862    148412.23    -47621.03    3967.7618   -51588.791   0.14820326 
   83800    286.91208   -149.33873    148634.87   -47570.001    3940.0465   -51510.048   0.15454786 
   84000     288.2701   -76.375389    148558.88   -47599.962    3958.6956   -51558.658   0.15293647 
   84200     289.3592     61.56895    148407.58   -47587.675    3973.6518   -51561.327   0.15165303 
   84400    289.09103    9.2065132    148517.74   -47590.858    3969.9691   -51560.827   0.14500188 
   84600    289.65278     -68.8493    148625.64   -47587.676    3977.6834   -51565.359   0.14126988 
   84800    286.36857   -10.183584    148510.28   -47597.312    3932.5827   -51529.894   0.14992515 
   85000    287.63095    63.106381    148430.71   -47562.166    3949.9184   -51512.085   0.15298308 
   85200    288.09997   -18.179736    148560.67   -47531.934    3956.3594   -51488.293   0.15652942 
   85400    296.44922   -65.936612    148643.45   -47519.497    4071.0162   -51590.513   0.14933623 
   85600     295.8051    26.125646    148531.79    -47516.94    4062.1707    -51579.11   0.14569488 
   85800    293.08965    102.06155    148490.01   -47530.504    4024.8805   -51555.384   0.14589735 
   86000    294.15548   -41.571305    148569.47   -47484.942    4039.5172   -51524.459   0.14998797 
   86200    292.72824   -37.466886    148629.48   -47495.234    4019.9175   -51515.152   0.15066158 
   86400    295.63962    31.714899    148558.52   -47488.744    4059.8983   -51548.642   0.14954814 
   86600    295.96815    35.665636    148517.14   -47488.207    4064.4098   -51552.616   0.14801435 
   86800    294.37321   -23.983056    148594.92   -47518.567    4042.5071   -51561.074   0.14648175 
   87000    290.79742   -31.391949    148597.67   -47539.982    3993.4023   -51533.384   0.15112341 
   87200    295.49128    70.288948    148518.21   -47510.419    4057.8612    -51568.28   0.15089875 
   87400    292.37388    22.680765    148562.28   -47474.113    4015.0512   -51489.164   0.15338555 
   87600    289.46166   -27.184139    148645.67   -47539.632    3975.0588   -51514.691    0.1439338 
   87800    293.51301    19.927662    148542.19   -47546.849    4030.6943   -51577.544   0.14483355 
   88000    297.50572    111.66774    148459.65   -47497.516    4085.5246   -51583.041   0.14439151 
   88200    294.48084   -70.484145    148625.55   -47509.168    4043.9852   -51553.154    0.1478323 
   88400    294.30183   -105.23709    148675.31   -47493.425     4041.527   -51534.952    0.1501405 
   88600    289.66578    41.558091    148472.23   -47505.293    3977.8619   -51483.154   0.15019286 
   88800    288.39039    84.513891    148405.23    -47494.81    3960.3475   -51455.157   0.15358872 
   89000    292.39075    -59.76947    148615.73   -47515.831    4015.2828   -51531.114   0.14576128 
   89200    290.23128   -114.64527    148639.59   -47488.782    3985.6278    -51474.41   0.15303015 
   89400    294.14529    89.938268     148419.2   -47462.221    4039.3772   -51501.598   0.15480946 
   89600     291.9187     65.37708     148475.7   -47486.012    4008.8004   -51494.812   0.14887927 
   89800    293.69288   -121.51753    148704.66   -47521.106    4033.1644    -51554.27   0.14710844 
   90000    295.95217   -16.931559    148579.83   -47538.299    4064.1904    -51602.49   0.14361412 
   90200    295.13915    190.19345    148353.39   -47583.432    4053.0255   -51636.457     0.141873 
   90400    290.39868   -23.308581    148559.03   -47605.361    3987.9265   -51593.288   0.14790381 
   90600     292.3709   -189.33868    148810.99   -47596.711    4015.0103   -51611.721    0.1423195 
   90800    288.74539    37.430704    148506.92   -47621.356    3965.2226   -51586.579   0.14835773 
   91000    285.99788    198.81981    148241.19   -47621.546    3927.4922   -51549.038   0.15034359 
   91200    285.92737   -43.220264     148630.6    -47635.61    3926.5239   -51562.134   0.14495646 
   91400    289.28173   -254.00526    148865.24   -47625.494    3972.5879   -51598.082   0.14693055 
   91600    288.29095    147.32116    148339.82    -47630.14     3958.982   -51589.122   0.14917465 
   91800     285.8826    250.00379     148156.6   -47606.023    3925.9091   -51531.932   0.15270973 
   92000    285.27796   -209.76152    148769.63   -47620.914    3917.6058    -51538.52   0.14781149 
   92200    283.49392   -264.88291    148852.06   -47642.722    3893.1064   -51535.829    0.1470976 
   92400    287.66749     239.3594     148178.4   -47622.367    3950.4203   -51572.787   0.14468478 
   92600    289.01562    250.57225    148218.75   -47679.134    3968.9335   -51648.068   0.14461249 
   92800    284.89027    -261.0875    148881.57   -47647.159    3912.2818   -51559.441   0.14600566 
   93000    293.00722   -120.89865    148725.53   -47575.641    4023.7485    -51599.39   0.14776154 
   93200    292.82114    321.43977    148151.56   -47574.879    4021.1933   -51596.072   0.14535965 
   93400    288.47586    11.665218    148472.75   -47579.284    3961.5212   -51540.805    0.1457176 
   93600    287.54193   -355.94813    148991.84   -47561.564     3948.696    -51510.26    0.1526084 
   93800    288.26262   -26.327183    148585.96   -47552.685     3958.593   -51511.278   0.15033566 
   94000    291.49744    300.78815    148181.71   -47553.202    4003.0153   -51556.217   0.14693932 
   94200    288.17701   -54.633553     148597.5   -47636.899    3957.4172   -51594.317   0.14320147 
   94400    290.71847   -241.95681    148874.12    -47620.25    3992.3182   -51612.568   0.14542482 
   94600    291.04876    98.998032    148420.35     -47617.4    3996.8539   -51614.254   0.14199876 
   94800    286.99129    236.54184    148222.12   -47669.717    3941.1343   -51610.851   0.14490689 
   95000    285.17835   -118.47354    148693.15   -47676.679    3916.2379   -51592.917   0.14713831 
   95200    288.52693   -162.20955    148751.42   -47681.981    3962.2225   -51644.203   0.14647732 
   95400    286.14718    183.09766    148252.06    -47693.87    3929.5424   -51623.413   0.14574443 
   95600     285.8404    145.36924    148275.21   -47656.501    3925.3296   -51581.831   0.14609259 
   95800    286.74315   -167.62122    148796.91   -47619.997    3937.7267   -51557.724   0.14948029 
   96000    294.91947   -131.62355    148724.21   -47613.022    4050.0088   -51663.031   0.14635138 
   96200    287.11198    225.62139    148237.98   -47654.408    3942.7916     -51597.2   0.14676428 
   96400    286.78603     137.4155    148377.53   -47648.506    3938.3156   -51586.822    0.1384481 
   96600    289.92617    -235.6885    148831.64   -47659.925    3981.4377   -51641.363   0.14362212 
   96800    284.29103   -51.107167    148593.16   -47711.388    3904.0527    -51615.44   0.13987484 
   97000    291.46967    266.13007    148187.13   -47695.645     4002.634   -51698.279    0.1386496 
   97200    287.18938    39.395428    148502.22   -47683.139    3943.8546   -51626.993   0.14220402 
   97400    290.54607   -248.85487    148872.74   -47637.757    3989.9506   -51627.707   0.14648443 
   97600    286.73806    23.960041    148538.56   -47610.153    3937.6568   -51547.809   0.14790035 
   97800    286.95097    215.87278    148286.04    -47604.84    3940.5805   -51545.421   0.14475179 
   98000    288.78376   -44.184692    148624.86   -47577.502    3965.7495   -51543.252   0.14905412 
   98200    294.59571   -194.08321    148779.75   -47589.368    4045.5627   -51634.931    0.1467811 
   98400    292.39493    59.458582    148499.73   -47518.183    4015.3403   -51533.524   0.14872682 
   98600    293.74839    108.87146    148441.27   -47566.882    4033.9267   -51600.808   0.14172789 
   98800    288.02661   -48.669104    148668.83    -47528.12    3955.3518   -51483.471   0.14729308 
   99000    295.84343   -85.559227    148721.47   -47532.322    4062.6971   -51595.019   0.14370028 
   99200    285.67201    5.6871792    148544.45   -47596.467    3923.0171   -51519.484   0.14623851 
   99400    293.70682    101.36443    148495.49   -47690.042    4033.3559   -51723.398   0.13959885 
   99600    287.98001   -59.065302    148602.61   -47714.029    3954.7119    -51668.74   0.14791632 
   99800     288.8167   -61.325742    148597.53   -47685.867    3966.2018   -51652.069   0.14801704 
  100000    283.62099   -19.412734     148487.8   -47685.023    3894.8513   -51579.875   0.14654455 
  100200     289.7583    39.530402    148494.59   -47643.344    3979.1325   -51622.477   0.14777846 
  100400    289.47509   -49.094768    148613.76   -47641.504    3975.2432   -51616.747   0.14861061 
  100600    294.95033    23.831019    148578.68   -47590.386    4050.4325   -51640.818   0.14198566 
  100800    289.94395    29.881741    148484.88   -47619.825     3981.682   -51601.507   0.14421851 
  101000    291.66086   -26.897297    148500.47    -47600.11    4005.2596   -51605.369   0.14597067 
  101200    291.68063   -31.813253    148584.98   -47578.363     4005.531   -51583.894   0.14659857 
  101400    291.96832   -37.144084    148599.08   -47584.686    4009.4817   -51594.168   0.14517194 
  101600    290.54628    1.0482925    148486.57   -47599.462    3989.9535   -51589.415   0.15201574 
  101800    288.66134    28.818072    148467.19   -47566.442    3964.0684    -51530.51     0.154164 
  102000    293.36961   -47.131695    148610.27   -47568.229    4028.7252   -51596.954   0.14539508 
  102200    290.08988   -54.130676    148618.07   -47559.821     3983.686   -51543.507   0.14744809 
  102400    294.58575    95.389161    148470.58   -47503.003    4045.4258   -51548.429   0.14953721 
  102600    293.37891     37.27475    148512.76   -47515.571    4028.8529   -51544.424    0.1498636 
  102800    297.74036   -78.938733    148661.29   -47527.336    4088.7468   -51616.083    0.1458294 
  103000    293.11419   -28.196708    148574.28   -47521.878    4025.2175   -51547.095   0.15128266 
  103200    292.00316    99.386657    148438.57   -47501.751    4009.9602   -51511.711   0.15193103 
  103400    293.11593   -6.2101201    148569.45   -47530.845    4025.2415   -51556.086   0.14789341 
  103600    291.44303   -69.917266    148673.13   -47534.373    4002.2681   -51536.641   0.14872304 
  103800    291.24879    25.059013     148528.5   -47538.685    3999.6007   -51538.286   0.15580985 
  104000    285.33945    67.666819    148440.79   -47546.644    3918.4502   -51465.094   0.15332509 
  104200    290.49299    -38.75341    148596.72   -47561.377    3989.2216   -51550.599   0.14840764 
  104400    291.83156   -83.851051    148648.69   -47577.749    4007.6037   -51585.353   0.14895072 
  104600     293.3843    98.003756    148457.06   -47573.797    4028.9268   -51602.724   0.14861023 
  104800    289.69904    55.939127    148473.18   -47565.122    3978.3187   -51543.441   0.15186496 
  105000    292.39948   -89.344549    148730.23   -47594.195    4015.4027   -51609.597     0.143534 
  105200    288.67845   -33.137292    148649.91   -47594.361    3964.3033   -51558.664   0.14667005 
  105400    290.07587    206.59224    148364.88   -47586.635    3983.4935   -51570.129   0.14593007 
  105600    291.52973    28.922377    148554.85   -47585.388    4003.4589   -51588.847   0.14367007 
  105800     292.0113    -215.5154    148862.71   -47601.986     4010.072   -51612.058   0.14917879 
  106000    291.12559    28.135922    148567.79   -47583.337    3997.9089   -51581.245   0.15212665 
  106200    296.61011    224.06543    148293.06   -47560.389    4073.2256   -51633.614   0.14801541 
  106400    288.67221    -91.87615    148678.43   -47571.818    3964.2176   -51536.036   0.14507138 
  106600    290.64405   -224.17813    148882.67   -47572.424    3991.2961   -51563.721   0.14367211 
  106800    290.78486    98.808887    148430.11   -47566.472    3993.2299   -51559.702   0.15400816 
  107000    292.84037    230.06829    148320.57   -47523.954    4021.4572   -51545.411   0.14825761 
  107200    294.40053   -194.47834    148825.45   -47513.335    4042.8823   -51556.218   0.15325377 
  107400    293.80077   -181.53502     148819.2   -47518.582    4034.6461   -51553.228    0.1489527 
  107600    296.12972    231.77626    148300.04   -47496.918    4066.6286   -51563.547   0.15068353 
  107800    292.51481    83.853007    148428.59   -47519.451    4016.9865   -51536.438   0.15519657 
  108000    291.05693   -259.56683     148901.6     -47494.8    3996.9661   -51491.766   0.15766933 
  108200     294.1432   -117.62311    148674.56   -47528.622    4039.3485    -51567.97   0.15696596 
  108400    291.46485    261.07872    148224.19   -47525.537    4002.5679   -51528.105   0.15139144 
  108600    289.54474    13.117749     148561.3    -47497.07    3976.1998    -51473.27   0.14754043 
  108800    294.22788   -256.47661    148919.76   -47518.889    4040.5114     -51559.4   0.14594568 
  109000    291.47085    96.665613    148506.23   -47556.667    4002.6503   -51559.317   0.14514894 
  109200    292.89671    196.84428    148228.88   -47558.182     4022.231   -51580.413   0.15133937 
  109400     296.5001   -80.286031     148651.3   -47544.443    4071.7149   -51616.158   0.14991801 
  109600    293.16471   -218.37565    148846.11   -47503.589    4025.9113   -51529.501   0.14999308 
  109800    290.10332    108.17048    148391.65   -47554.427    3983.8705   -51538.297   0.15292919 
  110000    287.93715    217.48832    148236.37   -47492.474    3954.1234   -51446.598   0.15951154 
  110200    291.20553   -141.90951     148753.5   -47480.236    3999.0067   -51479.242   0.15436675 
  110400    287.13754   -225.57447    148817.41   -47529.451    3943.1427   -51472.594   0.15905352 
  110600    291.83327    252.36497    148258.29   -47602.161    4007.6271   -51609.788   0.14614163 
  110800    289.07027    196.34403    148315.59   -47598.331    3969.6841   -51568.015   0.14362829 
  111000    285.37648   -247.46747    148826.72   -47598.002    3918.9588    -51516.96   0.14632301 
  111200    288.14946   -59.543902    148641.24   -47586.377     3957.039   -51543.416   0.14867576 
  111400    285.43077    226.42971    148223.29   -47641.037    3919.7043   -51560.741   0.15253929 
  111600    286.01356    24.038186    148468.04   -47695.092    3927.7075     -51622.8   0.15014393 
  111800    280.48313   -232.14799    148785.32   -47725.233    3851.7604   -51576.994    0.1543691 
  112000    288.69962    34.177577    148468.86   -47718.133     3964.594   -51682.727   0.14824865 
  112200    286.07943    166.78957    148246.73   -47676.478     3928.612    -51605.09   0.15390387 
  112400    287.69376    -24.21001    148600.53   -47645.329    3950.7811    -51596.11    0.1498283 
  112600    286.61812   -196.73001    148781.62   -47620.377    3936.0096   -51556.387   0.15742803 
  112800    289.06558    106.94099    148424.08    -47636.13    3969.6196    -51605.75   0.14563388 
  113000    292.37636    209.50957       148320   -47615.299    4015.0853   -51630.385   0.13768231 
  113200    290.84171     -108.042    148725.25   -47651.472    3994.0105   -51645.483   0.14094214 
  113400    287.46923   -146.84646     148751.5   -47631.145    3947.6976   -51578.842   0.14937053 
  113600    288.98403    148.96093    148362.43   -47635.906    3968.4997   -51604.405   0.15217904 
  113800    287.33618    103.81499    148421.29    -47619.96    3945.8705    -51565.83   0.14928267 
  114000    291.66823   -144.53417    148775.89   -47604.691    4005.3608   -51610.052   0.15167578 
  114200    291.57305   -5.5505718    148640.78   -47616.496    4004.0536    -51620.55   0.14853704 
  114400    293.67594    145.88851    148359.23   -47559.407    4032.9318   -51592.339   0.15132006 
  114600    290.05224   0.35234503    148566.75   -47533.562     3983.169   -51516.731   0.15450732 
  114800    289.02718   -175.31878    148811.52   -47518.915    3969.0922   -51488.007   0.15205323 
  115000    293.65309    34.022198    148585.33   -47548.471    4032.6181   -51581.089   0.14772517 
  115200    296.77131    189.83535    148400.06   -47563.339    4075.4393   -51638.778   0.14277826 
  115400    290.34539   -39.900017    148628.32   -47575.912    3987.1947   -51563.107   0.14841312 
  115600    291.70821   -139.44006     148706.5   -47557.908    4005.9098   -51563.818   0.15202255 
  115800    288.47422    86.406169    148474.49    -47574.46    3961.4987   -51535.959   0.15346986 
  116000    286.93775    91.668078    148472.75   -47559.607     3940.399   -51500.006   0.15317444 
  116200    293.10007    -72.13673    148710.15   -47577.353    4025.0236   -51602.376   0.14598393 
  116400    287.58701   -55.844182    148623.26   -47618.823    3949.3151   -51568.138   0.15024993 
  116600    290.15676    117.68589    148395.62   -47630.716    3984.6044    -51615.32   0.14935751 
  116800    291.17139    60.037766    148519.87   -47587.482    3998.5378    -51586.02   0.14845451 
  117000    292.72735   -137.14688     148746.4   -47594.064    4019.9052   -51613.969   0.14674158 
  117200    292.77581     13.85053    148550.09   -47583.454    4020.5708   -51604.025   0.14429159 
  117400     295.5809    131.11334    148374.84   -47610.277    4059.0918   -51669.369   0.14573801 
  117600    290.95949    1.7150605    148599.61   -47589.188     3995.628   -51584.816   0.14294908 
  117800    292.91848   -127.10031    148753.42   -47549.068      4022.53   -51571.598   0.14998483 
  118000    290.60196    56.921621    148515.17   -47541.325    3990.7182   -51532.043   0.15390408 
  118200    290.13766    162.83613    148426.81   -47576.185    3984.3421   -51560.527   0.14657206 
  118400    287.24537   -100.60854    148710.18   -47627.201    3944.6234   -51571.824   0.14746207 
  118600    287.85156   -159.32552    148741.94   -47653.868     3952.948   -51606.816   0.14830193 
  118800     287.7907    133.50147    148386.99   -47704.272    3952.1123   -51656.384   0.14272084 
  119000    288.32988    110.94296    148401.19   -47703.315    3959.5165   -51662.832   0.14358021 
  119200    285.75258   -146.96537    148767.12   -47704.231    3924.1236   -51628.354   0.14416352 
  119400    291.91415   -47.208787    148674.47   -47729.981    4008.7379   -51738.719   0.13768891 
  119600    286.38772    199.21066       148277   -47669.206    3932.8457   -51602.051   0.14079873 
  119800     284.6154    95.220365    148449.52    -47666.03    3908.5071   -51574.537   0.14650736 
  120000    288.45885   -256.88907    148868.12   -47683.925    3961.2876   -51645.213   0.15459561 
  120200    284.73624   -50.362904    148561.61   -47657.153    3910.1666    -51567.32   0.15568146 
  120400     287.3261    306.52035     148128.2   -47702.356    3945.7321   -51648.088   0.14774795 
  120600    286.07986   -65.521915    148547.16   -47697.068     3928.618   -51625.686   0.14899055 
  120800    288.28436   -289.12184    148962.14   -47685.862    3958.8914   -51644.754   0.14554461 
  121000    288.85108    61.441861    148445.08   -47671.362     3966.674   -51638.036   0.14518307 
  121200     285.6113    346.44545    148107.08   -47669.391    3922.1834   -51591.575   0.14454836 
  121400    286.27954   -144.68578     148722.2   -47668.757    3931.3601   -51600.117    0.1434118 
  121600     287.8982   -304.02055    148973.64   -47658.345    3953.5885   -51611.933   0.14196867 
  121800    286.61364    192.07952    148276.55   -47656.534    3935.9481   -51592.482   0.14492001 
  122000    290.06813    308.72879    148127.05   -47635.083    3983.3873    -51618.47   0.14429111 
  122200    284.73629   -280.11519    148878.32   -47603.492    3910.1673    -51513.66   0.15495295 
  122400    292.37407   -223.67787    148901.03   -47556.425    4015.0539   -51571.479    0.1502812 
  122600    292.49327     281.9188    148187.06   -47477.897    4016.6907   -51494.588   0.15302692 
  122800    299.83966    198.51591    148342.71   -47479.955    4117.5756   -51597.531   0.14639617 
  123000    289.86768   -320.55175    149023.98   -47525.861    3980.6345   -51506.496   0.14967268 
  123200    293.95115   -125.08246    148758.96   -47550.049    4036.7111    -51586.76   0.14906399 
  123400     292.4674     322.6576    148151.59   -47633.471    4016.3355   -51649.806   0.13893449 
  123600    294.73792    79.172353    148494.59   -47582.803    4047.5155   -51630.319   0.14689406 
  123800    288.82351   -311.12818    148986.93   -47602.861    3966.2954   -51569.157   0.15015089 
  124000    289.00353    -30.24877    148565.22    -47585.82    3968.7675   -51554.588   0.14926754 
  124200    289.66591    306.00378    148169.19   -47568.924    3977.8638   -51546.788   0.15039545 
  124400    285.68365     -77.9876    148601.93   -47583.666     3923.177   -51506.843   0.15751456 
  124600    287.94506   -239.19589    148867.17    -47600.56     3954.232   -51554.792   0.15304854 
  124800    292.34607    64.576846    148466.69   -47606.092    4014.6693   -51620.761   0.14504726 
  125000    290.05355    180.23243       148303   -47615.051     3983.187   -51598.238   0.14728689 
  125200     289.0409   -54.003981    148683.45    -47606.26    3969.2808    -51575.54   0.14589641 
  125400    285.27118   -165.43179    148774.95   -47672.989    3917.5126   -51590.502   0.14124548 
  125600    289.63647    125.81233    148414.78    -47667.03    3977.4594    -51644.49    0.1418097 
  125800    285.79459    87.056104    148413.65   -47658.671    3924.7005   -51583.372    0.1496717 
  126000    288.05476   -127.15863    148724.72   -47626.026    3955.7385   -51581.764   0.14573801 
  126200    287.43592    -25.73889    148665.03   -47606.138    3947.2402   -51553.378    0.1423812 
  126400    292.70651    109.27518    148439.86    -47636.52     4019.619   -51656.139   0.13941968 
  126600    287.73935    35.587224    148509.72   -47661.674    3951.4071   -51613.081   0.15042537 
  126800    287.91867    -116.8339    148665.49   -47632.425    3953.8696   -51586.294   0.15480326 
  127000    289.47739    8.7316808    148568.58   -47649.114    3975.2749   -51624.388   0.14281802 
  127200    287.82467    85.115112    148426.99   -47683.461    3952.5787   -51636.039   0.14460253 
  127400     288.2991    7.1354089    148521.27   -47682.114    3959.0939   -51641.208   0.14331092 
  127600    291.16041   -101.88674     148645.9   -47677.411    3998.3871   -51675.798   0.14704278 
  127800    287.09694    22.343673    148542.61   -47665.312    3942.5852   -51607.897   0.14235462 
  128000    290.13266    86.022968     148432.7     -47662.1    3984.2734   -51646.373   0.14336219 
  128200    286.31554   -9.4543832    148559.58   -47627.746    3931.8545   -51559.601   0.15188824 
  128400    288.36705    -109.3171    148653.66   -47654.007     3960.027   -51614.034   0.14522761 
  128600     288.6589    17.948687    148483.73   -47685.407    3964.0348   -51649.442   0.15013765 
  128800    287.88818    100.61104    148390.93   -47721.995    3953.4509   -51675.446   0.14913253 
  129000    284.85317   -63.919113    148592.97   -47755.535    3911.7724   -51667.307   0.14990197 
  129200    286.93936   -96.662508    148665.46   -47712.963    3940.4211   -51653.384    0.1467592 
  129400    289.38564    50.728936    148450.22   -47713.571    3974.0149   -51687.586   0.14001666 
  129600    283.83171    45.631004    148431.21   -47712.595     3897.745    -51610.34   0.14418961 
  129800    286.81911   -97.898815    148641.07   -47724.955    3938.7698   -51663.725   0.13873616 
  130000    287.66978   -80.464154    148618.22   -47734.159    3950.4517   -51684.611   0.14001182 
  130200    280.01236    104.19078    148375.75   -47751.298    3845.2954   -51596.594   0.14615618 
  130400    285.31905     95.53436    148426.95   -47736.095    3918.1701   -51654.265   0.14247209 
  130600    286.85033   -110.45974    148687.29   -47692.504    3939.1985   -51631.702   0.14282409 
  130800    287.78369   -63.557609    148620.31   -47713.815     3952.016   -51665.831   0.14175634 
  131000    287.17862    172.36333    148348.92   -47732.504    3943.7068    -51676.21   0.14466615 
  131200    286.89678     52.40732    148457.79   -47706.626    3939.8364   -51646.462   0.15211211 
  131400    290.78525   -150.00698    148757.82   -47707.879    3993.2352   -51701.114    0.1406267 
  131600    288.18428   -46.004309    148605.23    -47700.62    3957.5171   -51658.137   0.13782877 
  131800    290.55584    197.12756    148309.41   -47673.535    3990.0848    -51663.62   0.14209218 
  132000    284.67634   -44.534158    148555.57   -47618.869     3909.344   -51528.213   0.15041052 
  132200    291.34714   -170.21989    148810.67   -47625.025    4000.9514   -51625.976   0.14737217 
  132400    291.98236    50.878135    148472.79    -47628.94    4009.6745   -51638.615   0.14631598 
  132600    288.52371    186.49938    148266.23   -47604.208    3962.1784   -51566.386   0.15290377 
  132800    291.72471   -122.33391    148703.04   -47576.057    4006.1364   -51582.194   0.14882212 
  133000    287.02423   -227.21968    148868.35   -47568.514    3941.5866   -51510.101   0.14913871 
  133200    291.22803    163.10532    148333.54   -47516.791    3999.3157   -51516.107   0.15643704 
  133400    296.65533    251.82023    148257.31   -47504.636    4073.8466   -51578.482   0.15111569 
  133600    292.29826   -267.10377    148891.79   -47516.162    4014.0128   -51530.174   0.14658906 
  133800    296.93875   -229.77533    148840.66   -47536.323    4077.7386   -51614.062   0.14078323 
  134000    295.32929    341.58046    148184.28   -47485.744    4055.6366   -51541.381   0.14606434 
  134200    296.93122    117.50494    148403.38   -47501.499    4077.6352   -51579.135    0.1488838 
  134400    295.49979    -386.6256    149052.13   -47499.369    4057.9781   -51557.347   0.15121009 
  134600    297.59222   -89.678919    148701.11   -47515.351    4086.7126   -51602.063   0.14763694 
  134800    294.99353    370.57688    148079.86   -47557.446    4051.0257   -51608.472   0.14835489 
  135000    292.98052     18.81948    148556.68   -47614.839    4023.3819   -51638.221   0.14225128 
  135200    292.05546   -354.23521    149075.11   -47622.496    4010.6785   -51633.175    0.1405593 
  135400    285.30637    65.653597       148475   -47643.371     3917.996   -51561.367   0.14817972 
  135600    290.80927    374.87016    148072.56   -47606.949    3993.5651   -51600.514   0.14515938 
  135800     284.0595   -156.04185    148715.77   -47679.392    3900.8732   -51580.266   0.14190511 
  136000    281.54981   -316.29822    148919.01   -47708.963    3866.4087   -51575.371   0.13823901 
  136200    289.70346    197.69805    148276.61   -47721.008    3978.3794   -51699.388   0.14190807 
  136400    284.98339    218.25994     148246.4   -47674.902    3913.5606   -51588.463   0.14752404 
  136600    293.23476   -192.24027    148833.82   -47618.645    4026.8733   -51645.518   0.14642989 
  136800    290.65656   -211.66181    148799.41   -47628.589    3991.4679   -51620.057   0.14935199 
  137000    288.96794    195.24758    148328.82   -47632.091    3968.2789    -51600.37    0.1429599 
  137200    284.87985    93.684315    148447.08   -47664.399    3912.1387   -51576.538   0.14362362 
  137400     291.1592   -131.86872    148797.81   -47622.768    3998.3705   -51621.139   0.13575592 
  137600    290.81072   -65.650598    148671.39   -47615.268     3993.585   -51608.853   0.14262227 
  137800    289.59014    103.92761    148420.82   -47589.454    3976.8232   -51566.277   0.14816519 
  138000    294.83766    20.357985    148564.54   -47587.868    4048.8853   -51636.753   0.13582939 
  138200    285.30175   -152.10003    148731.09   -47637.019    3917.9325   -51554.952    0.1400955 
  138400    293.39497    28.647066    148523.68   -47622.876    4029.0734    -51651.95   0.14457882 
  138600    286.34656    105.53964    148398.04   -47635.277    3932.2805   -51567.557   0.14624963 
  138800    290.27251   -37.643049    148622.21    -47586.36    3986.1939   -51572.553   0.14684346 
  139000    289.95407   -99.825958    148702.34   -47573.188    3981.8209   -51555.009   0.14759688 
  139200    291.38428    73.111022    148464.66   -47574.941    4001.4614   -51576.403   0.14862799 
  139400    289.68584    59.018063    148457.12    -47602.62    3978.1375   -51580.757   0.14286443 
  139600    288.96368    -123.3256    148668.86   -47582.926    3968.2203   -51551.146   0.14490092 
  139800    295.93322   -28.506514    148613.29   -47544.108    4063.9301   -51608.038   0.15326119 
  140000    293.44485    109.79415    148456.19   -47510.449    4029.7584   -51540.207   0.14859316 
  140200    291.67128    16.508069    148580.81   -47553.029    4005.4026   -51558.432   0.14430598 
  140400    290.05036   -144.63214    148741.03   -47577.044    3983.1432   -51560.187   0.14514689 
  140600    293.07532    9.8000045     148528.1   -47576.824    4024.6837   -51601.508   0.14853744 
  140800    287.89831     120.0493    148370.45   -47569.578      3953.59   -51523.168   0.15150233 
  141000     286.6345   -59.050919    148623.62    -47606.87    3936.2347   -51543.104   0.14496245 
  141200    291.30677   -114.94595    148707.16   -47558.915    4000.3969   -51559.312   0.14886039 
  141400    291.52156    47.543246    148429.72   -47563.495    4003.3466   -51566.842   0.14997533 
  141600    290.94989    107.82966    148423.53    -47547.31    3995.4961   -51542.806    0.1437361 
  141800    289.05094   -141.21549    148728.62   -47600.509    3969.4186   -51569.928   0.14700355 
  142000    288.30271   -60.413345    148642.71   -47616.706    3959.1435    -51575.85   0.14726764 
  142200    290.23635    185.45237    148342.61   -47613.386    3985.6973   -51599.083   0.14967387 
  142400    290.94286   -1.9405359    148518.75   -47617.853    3995.3995   -51613.253   0.14298006 
  142600    290.14722   -175.51253    148801.78    -47607.28    3984.4733   -51591.754   0.14340641 
  142800    290.04799    11.855947    148562.93   -47612.197    3983.1107   -51595.308    0.1524471 
  143000     285.2096    165.55536    148321.49   -47674.336     3916.667   -51591.004   0.14643609 
  143200     286.9456   -31.668108    148604.62   -47642.361    3940.5068   -51582.868   0.14388334 
  143400     295.3417   -139.59579     148792.2   -47607.358     4055.807   -51663.165   0.14666938 
  143600    289.27944     69.48248    148470.91   -47596.067    3972.5565   -51568.624   0.15196553 
  143800    292.58716    137.36093    148294.66   -47609.056    4017.9801   -51627.036   0.14973845 
  144000    293.17332   -119.38648    148668.24    -47597.22    4026.0296    -51623.25   0.14344377 
  144200    292.59322   -204.99974    148819.19   -47569.607    4018.0633   -51587.671   0.15097061 
  144400    293.96493    134.11412    148362.74   -47572.483    4036.9003   -51609.383   0.15032042 
  144600    291.96747    198.26562     148299.9   -47546.583    4009.4701   -51556.053   0.14370478 
  144800    290.05755   -247.93857    148841.73   -47515.333    3983.2419   -51498.575    0.1497173 
  145000    288.08291   -175.01493    148767.13   -47558.092     3956.125   -51514.217   0.15366661 
  145200    290.58766     319.7492    148105.16   -47588.143    3990.5218   -51578.665   0.15078143 
  145400    288.55559    130.84872    148319.92   -47594.275    3962.6162   -51556.891    0.1473577 
  145600    289.75909   -340.09807    148991.64   -47610.649    3979.1434   -51589.792   0.14809437 
  145800    290.71345   -87.842439    148591.68    -47627.06    3992.2492    -51619.31    0.1513063 
  146000    289.88152    391.86563    147951.79   -47613.503    3980.8246   -51594.328   0.14827422 
  146200    284.83756   -44.716003    148520.03   -47646.484     3911.558   -51558.042   0.14893375 
  146400    292.47864   -438.75144    149053.37   -47596.895    4016.4898   -51613.385   0.14976419 
  146600    292.63838    136.70538    148406.04    -47561.06    4018.6835   -51579.744   0.14783668 
  146800    292.75759    404.81071    148070.63   -47516.392    4020.3205   -51536.713   0.14207943 
  147000     290.6357   -167.62157    148810.06   -47531.641    3991.1814   -51522.822   0.14016177 
  147200     291.8337    -373.8846    149023.23   -47498.702    4007.6331   -51506.335   0.15824822 
  147400    294.20149    240.54378    148268.19   -47565.273     4040.149   -51605.422   0.14534789 
  147600    292.87556    305.78154    148196.59   -47578.597    4021.9405   -51600.537   0.14700045 
  147800     285.0677   -311.59126     148913.7   -47620.332    3914.7184    -51535.05   0.15006447 
  148000    295.91499   -208.64279     148820.2   -47585.599    4063.6797   -51649.279   0.14611041 
  148200    291.94093    304.89208    148177.23   -47626.824    4009.1057    -51635.93   0.14258367 
  148400    286.76044    106.97677    148380.12   -47677.677    3937.9642   -51615.641   0.14490669 
  148600    287.89542   -300.50433    148947.78   -47645.422    3953.5503   -51598.973   0.14943421 
  148800    286.70013   -37.697461    148664.66   -47649.055    3937.1359   -51586.191   0.14374263 
  149000    287.31475    327.59061    148184.28   -47655.502    3945.5763   -51601.078    0.1350389 
  149200    284.37767   -25.351561    148556.58   -47664.103    3905.2425   -51569.345   0.14543219 
  149400    286.92605   -260.60479    148926.97   -47685.501    3940.2384   -51625.739   0.14804106 
  149600    292.54995    79.632514    148491.51   -47686.356    4017.4691   -51703.825   0.14167492 
  149800    288.95085    302.91996    148195.62   -47672.001    3968.0442   -51640.045   0.14093709 
  150000    289.95414   -73.046904    148664.71   -47632.618    3981.8218    -51614.44    0.1427473 
  150200    288.08247   -256.28382    148869.43   -47575.936     3956.119   -51532.055   0.14856935 
  150400    296.66783    153.66992       148407   -47548.331    4074.0182   -51622.349   0.14054411 
  150600    289.89768    214.28363    148321.87   -47598.992    3981.0466   -51580.038   0.14065756 
  150800    287.93033   -192.61131    148808.11    -47562.69    3954.0297    -51516.72   0.14839455 
  151000    290.54072    -180.5798    148810.61    -47601.08    3989.8772   -51590.957   0.14148328 
  151200     290.9193    191.95234    148320.99   -47588.815     3995.076   -51583.891   0.13882744 
  151400    296.53679    154.77749    148433.26   -47502.959    4072.2187   -51575.178   0.14395227 
  151600    292.60941    -242.6607    148914.01   -47489.149    4018.2856   -51507.435   0.15067975 
  151800    293.24205   -91.022317    148720.76   -47501.426    4026.9734   -51528.399   0.14902392 
  152000    291.98939    259.08162    148264.98   -47502.575    4009.7712   -51512.346   0.14509142 
  152200    294.60342     59.67571    148533.17   -47523.868    4045.6685   -51569.536   0.14530245 
  152400    289.23886   -217.78104    148924.03   -47571.549    3971.9993   -51543.549   0.14561768 
  152600    293.07195   -19.447315    148587.91   -47541.527    4024.6374   -51566.164    0.1407797 
  152800    294.40385    244.62332    148307.76   -47472.911     4042.928   -51515.839    0.1395943 
  153000    294.64289   -61.687434    148697.97   -47543.095    4046.2106   -51589.305   0.14830994 
  153200     297.4096   -160.87267    148877.67   -47484.448    4084.2047   -51568.653    0.1436876 
  153400    288.00398    51.965122    148510.33   -47538.261    3955.0411   -51493.302    0.1438049 
  153600    290.32376    171.10592     148405.4   -47565.966    3986.8978   -51552.864   0.14108351 
  153800    282.38068   -164.34259    148760.21    -47594.28    3877.8186   -51472.098    0.1509614 
  154000    288.00289   -148.90663    148774.78   -47609.544    3955.0261   -51564.571   0.14658691 
  154200    288.78945     140.9728    148442.37   -47555.202    3965.8276   -51521.029   0.13857713 
  154400    289.87276    102.10193    148501.39   -47550.145    3980.7043   -51530.849   0.14197011 
  154600    293.94125   -162.49025    148805.26   -47572.278    4036.5752   -51608.853    0.1404549 
  154800     291.9469   -52.789136    148663.85   -47587.697    4009.1877   -51596.885   0.13842438 
  155000    296.29902    208.35947     148363.1   -47576.059    4068.9535   -51645.012    0.1351217 
[...]
  163200    288.54483    81.386037    148489.24   -47641.643    3962.4684   -51604.111   0.14236511 
  163400    291.73281    255.74133    148209.78   -47676.412    4006.2476    -51682.66   0.14142378 
  163600    290.14918   -111.45358    148715.93   -47625.619    3984.5003   -51610.119   0.14036561 
  163800     286.2607    -298.2789    148920.52   -47683.702    3931.1014   -51614.803    0.1435789 
  164000    284.21058    179.46654    148273.03    -47700.78    3902.9479   -51603.728   0.14798184 
  164200    286.55616    282.41276     148171.8    -47698.18    3935.1588   -51633.339   0.14562971 
  164400    282.42461   -277.77665    148882.24   -47639.549    3878.4219   -51517.971   0.14813159 
  164600    290.59067   -261.75939    148871.71   -47618.347    3990.5631    -51608.91   0.14799741 
  164800    288.77897    302.68755    148156.53   -47656.187    3965.6838   -51621.871   0.14485616 
  165000     289.5133    154.83861    148306.98   -47633.708    3975.7681   -51609.476   0.14443464 
  165200    291.45944   -329.09841    149008.89   -47629.114    4002.4935   -51631.608   0.14200492 
  165400    288.61047   -172.46948    148763.77   -47657.868    3963.3698   -51621.237   0.14523877 
  165600    293.15527    372.09557    148122.51   -47595.509    4025.7817    -51621.29   0.14277774 
  165800    286.06538    66.369264    148472.95   -47622.189    3928.4191   -51550.608   0.14206902 
  166000     288.0287   -353.24253    148993.23   -47580.191    3955.3806   -51535.571   0.14787544 
  166200    289.95006    27.004604    148575.38   -47611.115    3981.7659   -51592.881   0.14666205 
  166400     287.0233    286.73663    148183.35   -47606.767    3941.5739   -51548.341   0.15175754 
  166600    287.99357   -52.258086    148667.32   -47603.197    3954.8981   -51558.096   0.13904807 
  166800    282.48626   -282.24106    148945.17   -47662.151    3879.2685    -51541.42   0.14139343 
  167000    287.56468    129.90753    148447.98   -47664.218    3949.0083   -51613.226   0.14014708 
  167200    290.32073    230.33186    148298.89   -47614.321    3986.8562   -51601.177   0.13701124 
  167400    286.53407   -143.20872    148784.03    -47659.85    3934.8555   -51594.706   0.13723975 
  167600    290.91411   -187.59794    148815.57   -47641.436    3995.0048   -51636.441   0.14062814 
  167800    290.41673    170.76179    148342.52   -47709.853    3988.1745   -51698.027   0.13847971 
  168000    288.11562    152.18354    148336.12   -47698.403    3956.5742   -51654.977   0.13518505 
  168200    288.63099   -144.59381    148749.93   -47695.354    3963.6516   -51659.005   0.13754526 
  168400    285.58113    -100.7319    148680.36   -47651.584    3921.7691   -51573.353    0.1469084 
  168600    287.36853    142.04402    148367.28   -47663.225    3946.3148    -51609.54   0.14373632 
  168800    287.89612    47.239611    148502.18   -47703.571    3953.5599   -51657.131   0.13760943 
  169000    286.09277   -105.66497    148734.46   -47688.318    3928.7952   -51617.113   0.13769241 
  169200    289.90511    12.087679    148542.67   -47657.991    3981.1486    -51639.14   0.13951323 
  169400    289.68222    159.01847    148364.47   -47684.112    3978.0877     -51662.2   0.13724618 
  169600    286.55172    -66.66537    148602.87   -47693.983    3935.0978   -51629.081   0.14219301 
  169800    288.36829   -126.93164    148710.13   -47699.129     3960.044   -51659.173   0.14133938 
  170000    287.15145    84.658712    148459.55   -47737.238    3943.3337   -51680.572   0.13697382 
  170200    284.33313    157.41981    148391.18   -47747.128    3904.6308   -51651.758   0.13610798 
  170400    281.87958   -110.38541    148649.26   -47716.326    3870.9372   -51587.263   0.13981831 
  170600    283.91997    -83.42915    148650.98   -47697.531    3898.9571   -51596.488    0.1461538 
  170800    287.30759    96.581352     148433.2   -47722.636    3945.4779   -51668.114   0.13934845 
  171000    288.77806    53.727423    148480.43   -47722.298    3965.6712   -51687.969   0.13735702 
  171200    284.57849   -136.73788    148677.74   -47748.495    3908.0002   -51656.495   0.13775095 
  171400    287.47881   -22.820205    148555.53   -47743.902    3947.8292   -51691.731   0.14059789 
  171600    287.68362    143.54535    148399.42   -47707.916    3950.6418   -51658.558   0.13680713 
  171800    284.92609   -12.729733    148537.32    -47685.77    3912.7737   -51598.544   0.13910471 
  172000    288.38791   -84.472879    148655.08   -47691.665    3960.3134   -51651.978   0.13955331 
  172200    285.85851   -12.544271    148526.75   -47697.645    3925.5782   -51623.224   0.14264776 
  172400    285.73146    116.81045    148438.98   -47664.839    3923.8335   -51588.672   0.14060097 
  172600    282.77947     -81.8389    148592.57   -47649.479    3883.2951   -51532.774   0.14813379 
  172800    285.41104   -99.515501    148607.65   -47657.061    3919.4334   -51576.494   0.14938271 
  173000    281.84838    88.940553    148423.04   -47674.861    3870.5088    -51545.37   0.14475126 
  173200    286.78093    65.651516    148454.85   -47712.624    3938.2454    -51650.87    0.1375258 
  173400    286.90874   -63.264357    148592.46   -47698.394    3940.0007   -51638.395   0.13993824 
  173600    289.34475   -11.874286    148565.82   -47649.319    3973.4533   -51622.772   0.14397787 
  173800    288.86877     21.36164    148476.69    -47649.44    3966.9169   -51616.357   0.14224391 
  174000    294.43582     8.915036     148494.1   -47613.424    4043.3669   -51656.791    0.1394821 
  174200     288.4681   -27.019362    148615.78   -47606.067    3961.4147   -51567.481   0.14485153 
  174400    292.83342    7.5122907    148575.53   -47588.743    4021.3618   -51610.105    0.1417178 
  174600    289.96099    64.965736    148465.94   -47601.377    3981.9159   -51583.293   0.14584779 
  174800    286.90439    23.347387    148545.07   -47564.535    3939.9408   -51504.476   0.14772336 
  175000    293.45826   -76.633531    148642.37   -47612.723    4029.9425   -51642.665   0.14624885 
  175200    293.26634   -17.815769     148560.4    -47609.99     4027.307   -51637.297   0.14543955 
  175400    289.71847    47.192317    148469.17   -47619.163    3978.5855   -51597.748   0.14447915 
  175600    286.77636    23.482588    148531.77   -47629.385    3938.1827   -51567.567   0.14276697 
  175800     289.9335    -9.842942    148617.35   -47613.192    3981.5385   -51594.731   0.14255451 
  176000     289.3484   -16.843939    148551.15   -47601.125    3973.5035   -51574.628   0.14453725 
  176200    287.12756    33.657197    148530.79   -47549.721    3943.0057   -51492.727   0.14554387 
  176400    291.37818   -61.133206    148641.24   -47590.032    4001.3776   -51591.409   0.14631871 
  176600    290.27258   -24.216714    148611.27   -47570.227    3986.1949   -51556.422   0.14966205 
  176800    291.42362    88.442113    148495.56   -47578.706    4002.0017   -51580.708   0.14719117 
  177000    285.89881   -20.249806    148572.79   -47594.288    3926.1317    -51520.42   0.14891254 
  177200    284.86123   -52.752099    148684.48   -47607.856     3911.883   -51519.739   0.14661938 
  177400    287.36006    26.291117    148565.82   -47698.127    3946.1984   -51644.325   0.14203025 
  177600    289.53632    113.92083    148405.25   -47663.377    3976.0841   -51639.461   0.13814725 
  177800    284.30353    12.521063    148594.21   -47641.919    3904.2243   -51546.143   0.14068542 
  178000    286.16869   -145.96999    148781.72   -47599.832    3929.8379    -51529.67   0.14310057 
  178200    289.08672    45.077511    148524.79   -47635.481      3969.91   -51605.391   0.14294348 
  178400    287.35862    213.93644    148359.67   -47611.302    3946.1787    -51557.48   0.14178718 
  178600    286.15288   -102.15801    148696.23   -47627.418    3929.6208   -51557.039   0.14566177 
  178800     288.8196   -203.47079    148784.57   -47596.086    3966.2417   -51562.328   0.14971896 
  179000    297.42177    124.99963    148402.61   -47571.957    4084.3718   -51656.329   0.14482376 
  179200    290.16774    129.11687    148397.33    -47596.14    3984.7551   -51580.896   0.14519487 
  179400    289.27231   -203.83328    148838.56   -47569.137    3972.4586   -51541.596   0.14530866 
  179600    292.05553   -137.86841    148752.91   -47575.634    4010.6794   -51586.314   0.14254406 
  179800     292.4062    257.01027    148264.66   -47604.154     4015.495   -51619.649   0.14027239 
  180000    291.47977    106.34092    148478.97   -47572.433    4002.7727   -51575.206   0.14091812 
  180200     290.9395   -302.06151    148967.48   -47533.443    3995.3535   -51528.797   0.14893339 
  180400    298.14556   -15.642593     148609.5   -47489.703    4094.3113   -51584.015   0.14443721 
  180600    295.83731    320.76619    148129.31   -47577.239     4062.613   -51639.852   0.14594423 
  180800    292.47741    5.7335463    148563.38   -47542.518    4016.4729   -51558.991   0.14669575 
  181000    289.41749   -327.88272    148986.67   -47581.823    3974.4523   -51556.275   0.14826006 
  181200    288.27281    31.235769    148475.63   -47566.042    3958.7328   -51524.775   0.14840747 
  181400    287.00157    311.99794    148134.46   -47604.261    3941.2755   -51545.537    0.1455658 
  181600    292.32901     -87.7816    148685.91   -47626.374     4014.435   -51640.809   0.14019073 
  181800    289.76224   -309.16895    148943.92   -47596.258    3979.1866   -51575.445   0.14746492 
  182000    287.29109    121.77724    148391.97   -47603.879    3945.2513    -51549.13   0.14179549 
  182200    290.12912    244.41031    148221.91   -47619.844    3984.2248   -51604.068   0.14541537 
  182400    289.94749   -198.01425    148766.17   -47621.084    3981.7305   -51602.814   0.14636968 
  182600    292.05055    -169.7337    148827.46   -47583.482     4010.611   -51594.093   0.14223961 
  182800    289.90464    205.63003     148279.9   -47548.122    3981.1421   -51529.264   0.14650445 
  183000    291.49402     177.8319    148336.36   -47548.713    4002.9685   -51551.681   0.15128869 
  183200    290.11185   -295.97327    148907.54    -47530.34    3983.9876   -51514.327   0.15352128 
  183400    290.79915   -116.98331    148752.57    -47537.25    3993.4261   -51530.676   0.14399966 
  183600    286.47132    277.32653    148237.95    -47565.29    3933.9938   -51499.283   0.14129626 
  183800    293.04117    69.743815    148489.32    -47600.53    4024.2148   -51624.745   0.14167347 
  184000     289.3117   -275.95427    148931.77   -47612.991    3972.9995   -51585.991   0.14498677 
  184200    287.77111    4.9696756    148604.46   -47655.726    3951.8432   -51607.569   0.14212318 
  184400    290.29358    254.66807     148237.6   -47665.963    3986.4832   -51652.446    0.1405728 
  184600    290.53832   -31.757552    148605.19   -47675.813    3989.8442   -51665.657   0.14317998 
  184800    291.08246   -193.79866    148852.53   -47663.106    3997.3167   -51660.422   0.13593147 
  185000    289.85046    108.23621    148451.93   -47654.406    3980.3981   -51634.804   0.13669757 
  185200    291.02094    214.83953    148320.52   -47711.563    3996.4718   -51708.035   0.13992463 
  185400    286.65174    -77.26429    148692.47   -47690.285    3936.4714   -51626.756   0.14600706 
  185600    285.60718   -129.01986    148726.81   -47692.746    3922.1269   -51614.873   0.14110672 
  185800    292.78769    163.49416     148405.9   -47638.612    4020.7338   -51659.346   0.13685699 
  186000    289.27844    82.261897    148437.64   -47625.118    3972.5428    -51597.66   0.14274938 
  186200      288.392   -113.85459    148693.35   -47615.449    3960.3696   -51575.819   0.14472891 
  186400    291.04491   -49.856859    148623.57   -47565.772     3996.801   -51562.573   0.14545506 
  186600    290.67537    79.741248    148433.51   -47599.015    3991.7262   -51590.741   0.14419039 
  186800     288.7074    37.367981    148484.93   -47625.249    3964.7009    -51589.95    0.1462941 
  187000    285.25552   -72.617615    148625.09   -47594.911    3917.2976   -51512.209   0.14456279 
  187200    286.82854   -8.1555342    148560.37   -47613.691    3938.8992    -51552.59   0.14069924 
  187400    289.50042    78.967841    148456.62    -47601.01    3975.5911   -51576.601   0.14698882 
  187600    291.15016    4.9327975    148541.52   -47641.623    3998.2463    -51639.87   0.14357986 
  187800    286.10578   -113.64153    148622.34   -47629.323    3928.9739   -51558.297   0.14631129 
  188000    293.47641    16.538599     148517.8    -47603.13    4030.1918   -51633.322   0.14087549 
  188200    297.78526    87.944881    148456.77   -47594.153    4089.3635   -51683.516   0.13912357 
  188400    292.34253  -0.83830115       148570   -47581.766    4014.6207   -51596.387   0.14227722 
  188600    294.00338   -74.257283    148629.48   -47586.977    4037.4284   -51624.405   0.14355884 
  188800    290.03393   0.15046096     148504.8   -47599.989    3982.9176   -51582.906   0.14703882 
  189000    293.01285    83.996007    148451.65     -47593.7    4023.8259   -51617.526   0.14516833 
  189200    288.05509   -54.825415    148601.56   -47596.731     3955.743   -51552.474   0.14682046 
  189400    296.16021   -28.297124    148635.51   -47558.656    4067.0474   -51625.704   0.14045762 
  189600    290.55103    88.977437    148477.57   -47572.504    3990.0187   -51562.523   0.14538288 
  189800    287.74487    23.402803    148496.23   -47611.531    3951.4828   -51563.014   0.14942402 
  190000    289.04096   -79.040438    148628.37    -47642.76    3969.2815   -51612.041   0.14625591 
  190200    291.54984    2.6329628    148557.83   -47616.751     4003.735   -51620.486   0.13921125 
  190400    290.68052    63.187227    148449.67   -47615.526    3991.7969   -51607.323   0.14293611 
  190600    291.18506    1.5303693    148550.03   -47559.727    3998.7256   -51558.453   0.14526966 
  190800    287.75384   -79.535551    148683.16    -47591.93    3951.6061   -51543.536   0.14543493 
  191000    291.94306   -12.248994    148561.82   -47605.664     4009.135   -51614.799    0.1494388 
  191200    291.85845    96.374499    148409.57   -47599.756    4007.9729   -51607.729   0.14849021 
  191400    291.03363   -36.707633    148565.21   -47625.002    3996.6461   -51621.648   0.14641526 
  191600    292.27983   -82.643929    148711.42   -47579.521    4013.7596   -51593.281   0.13959312 
  191800    287.68534    11.554015    148532.85   -47613.402    3950.6654   -51564.067   0.14724728 
  192000    288.68203    126.95353    148396.52   -47613.917    3964.3525    -51578.27   0.14642148 
  192200    288.47172   -18.639968    148617.71   -47583.762    3961.4644   -51545.226   0.13975694 
  192400    285.50357   -152.67351    148753.01   -47590.417    3920.7041   -51511.121   0.14225214 
  192600    286.56562    87.114627    148438.51   -47621.106    3935.2888   -51556.395   0.14327422 
  192800    289.07395    212.32922    148328.26   -47597.506    3969.7346   -51567.241   0.14389927 
  193000     285.5742   -146.39697    148751.21    -47588.05    3921.6739   -51509.724   0.14613729 
  193200     285.5695   -199.20995    148806.15   -47540.514    3921.6094   -51462.124   0.15175973 
  193400    288.76916    172.55038    148300.03   -47543.035    3965.5491   -51508.585   0.15222719 
  193600    290.64075    181.51621    148313.89   -47556.374    3991.2507   -51547.624   0.14586497 
  193800    285.32168   -266.68854    148859.84   -47604.413    3918.2062   -51522.619   0.14882046 
  194000    294.66257   -115.01428    148702.99    -47629.86    4046.4808   -51676.341   0.14197059 
  194200     293.8828    342.04152    148102.27   -47615.079    4035.7725   -51650.852   0.14138684 
  194400    291.61551    83.045133    148414.16   -47597.201    4004.6368   -51601.837   0.14357827 
  194600    289.75644   -385.31918     148999.9   -47620.522     3979.107   -51599.629   0.14778706 
  194800    288.79229    -38.41969    148554.97   -47606.807    3965.8666   -51572.674   0.14615766 
  195000    289.36505    376.15532    148040.56   -47588.497    3973.7321   -51562.229   0.14667923 
  195200    288.79432   -62.058588    148636.72   -47574.561    3965.8946   -51540.455   0.14456854 
  195400    288.97383   -431.60186    149039.65   -47575.501    3968.3597   -51543.861   0.15200079 
  195600    292.64956    157.01262    148354.31   -47580.586     4018.837   -51599.423   0.14680353 
  195800    288.84835     337.1945    148083.67   -47625.722    3966.6364   -51592.359   0.14746558 
  196000    289.94993   -211.78656    148780.52   -47596.764    3981.7641   -51578.528   0.14339624 
  196200    290.92421   -255.03505    148888.63    -47583.06    3995.1435   -51578.204   0.13957012 
  196400    292.48811    311.62145    148184.74   -47582.409    4016.6198   -51599.029   0.14385948 
  196600    288.08286    206.02798    148229.23   -47649.802    3956.1244   -51605.927    0.1442979 
  196800    291.79473   -276.00363    148885.16   -47639.539     4007.098   -51646.637   0.14723989 
  197000    285.91444   -111.75268    148689.58   -47649.082    3926.3464   -51575.428   0.14751298 
  197200     289.3189    297.84462    148120.41   -47705.532    3973.0984   -51678.631   0.14464496 
  197400    286.32291    25.185022    148414.35   -47664.559    3931.9557   -51596.515   0.14835749 
  197600    290.63467   -277.51129    148892.13   -47576.784    3991.1674   -51567.952   0.14826084 
  197800    293.05075    6.4298397    148561.99   -47564.264    4024.3464    -51588.61    0.1467497 
  198000     288.7534    232.57068    148232.74   -47594.073    3965.3326   -51559.405   0.14613624 
  198200    291.14958    -35.74389    148613.95   -47619.861    3998.2384     -51618.1   0.13858346 
  198400    294.27336   -205.07132    148834.73    -47547.35    4041.1359   -51588.486   0.14576383 
  198600    287.92123    58.131305    148465.49   -47536.415    3953.9048    -51490.32   0.15069496 
  198800    290.84166    180.60982    148326.85    -47569.42    3994.0099    -51563.43   0.14565037 
  199000    294.80986   -95.014257    148690.83   -47576.543    4048.5035   -51625.046   0.14503708 
  199200    288.42594   -168.43474    148764.52    -47569.69    3960.8357   -51530.526   0.14933347 
  199400    290.31891    119.95193    148404.83   -47580.916    3986.8312   -51567.747   0.14532344 
  199600     290.6099    141.37451    148390.84   -47604.322    3990.8271   -51595.149   0.13844277 
  199800    290.22705   -99.850852    148741.14    -47583.38    3985.5696   -51568.949   0.14249218 
  200000    289.29499   -106.06902    148704.42   -47602.626      3972.77   -51575.396   0.14632504 
Loop time of 110.18 on 6 procs for 200000 steps with 4608 atoms

Performance: 784.170 ns/day, 0.031 hours/ns, 1815.209 timesteps/s
97.8% CPU use with 6 MPI tasks x no OpenMP threads

MPI task timing breakdown:
Section |  min time  |  avg time  |  max time  |%varavg| %total
---------------------------------------------------------------
Pair    | 77.386     | 78.111     | 78.991     |   6.9 | 70.89
Neigh   | 12.475     | 12.638     | 12.939     |   5.7 | 11.47
Comm    | 8.591      | 9.3618     | 10.303     |  21.4 |  8.50
Output  | 3.0514     | 3.0526     | 3.0579     |   0.1 |  2.77
Modify  | 5.6661     | 5.7272     | 5.7695     |   1.5 |  5.20
Other   |            | 1.29       |            |       |  1.17

Nlocal:        768.000 ave         781 max         762 min
Histogram: 2 0 2 1 0 0 0 0 0 1
Nghost:        1395.67 ave        1402 max        1388 min
Histogram: 1 0 1 0 1 0 0 1 0 2
Neighs:        0.00000 ave           0 max           0 min
Histogram: 6 0 0 0 0 0 0 0 0 0
FullNghs:      21902.7 ave       22269 max       21735 min
Histogram: 2 1 1 1 0 0 0 0 0 1

Total # of neighbors = 131416
Ave neighs/atom = 28.519097
Neighbor list builds = 12519
Dangerous builds = 0
write_data		data.${NAME}
write_data		data.ice_290K_1atm_ML
System init for write_data ...
Total wall time: 0:02:42
