LAMMPS data file via write_data, version 29 Oct 2020, timestep = 100000

8535 atoms
1 atom types

-0.33094521902378204 104.56351286012745 xlo xhi
-0.22638617574159525 51.22222697344661 ylo yhi
-0.22638617574159525 51.22222697344661 zlo zhi

Masses

1 18.015

Atoms # atomic

478 1 8.999943707172168 3.1401922773812854 25.226283514285658 0 0 0
1956 1 4.5078034889831455 1.4559110208496249 1.1013302420353093 0 1 1
1957 1 10.684207978024997 0.9709067743408255 1.1269805961652137 0 1 1
547 1 6.057014726416672 38.30044436180771 25.05879139879699 0 0 0
1959 1 17.1814493755149 1.2555858439828158 1.003356613985619 0 1 1
2640 1 23.732574921825627 1.0167218316591704 1.1065472046336655 0 1 1
500 1 6.242762018664332 12.768434427642012 24.96838848983938 0 0 0
557 1 15.251564159227074 41.646753381569866 25.19535162639546 0 0 0
2643 1 30.12178727163821 1.2936350830483045 0.8465221243652172 0 1 1
1865 1 0.8278130196891851 4.612193649143233 0.9014330158041692 0 0 1
1867 1 7.833619571852827 4.559004829679164 0.7505042451157494 0 0 1
1869 1 13.658063363134577 4.1919817749079265 0.6615412613547753 0 0 1
2559 1 20.372585477807625 4.254523058722481 0.8415933913913136 0 0 1
2561 1 26.649769375644315 4.73334565378589 1.0699606145908716 0 0 1
2563 1 33.365179100279846 4.449160239091608 0.9395876127062734 0 0 1
1960 1 2.779590956882906 6.127556403801086 2.2606780521154772 0 0 1
1872 1 4.841316905482965 7.634701409356209 1.1872135348089556 0 0 1
468 1 15.624215981394508 47.80550345757033 24.948204174577167 0 0 0
1874 1 11.017987178411655 8.101696049608531 0.749007066300151 0 0 1
1868 1 9.261456894903086 6.321829027196745 2.33237614074766 0 0 1
1877 1 16.802598153579986 7.31291714386326 0.7230294337312151 0 0 1
1242 1 21.824903266752923 41.826616067447254 25.267559833219867 0 0 0
2565 1 23.749617642500528 7.707661306887687 1.0393524204655684 0 0 1
1191 1 21.582726438040034 9.360479723583069 24.971474538917903 0 0 0
2567 1 30.171040608878183 7.668857475279756 0.9171953192685705 0 0 1
756 1 -0.19570096027311817 12.62848060915855 25.033319965590202 0 0 0
1774 1 2.839062537863171 9.423333940843671 -0.18604441103353445 0 0 1
1878 1 1.1040596375988563 10.938679585556642 1.1363367941951366 0 0 1
1880 1 7.945692397983343 11.056476015318474 1.1448387836231497 0 0 1
1170 1 26.727608444991567 46.64986829967036 23.84030890046945 0 0 0
1882 1 14.354318474531256 11.431668776100047 1.1606200231118022 0 0 1
1213 1 22.373715278559676 21.846901090872667 25.236366894215216 0 0 0
1875 1 12.540686705235874 9.683498873054175 2.3614075027409425 0 0 1
2144 1 18.81857369902799 8.951013152533609 2.1283315908947826 0 0 1
2568 1 20.774580136698074 10.363946156436025 0.8957334238296315 0 0 1
1174 1 25.328754120981426 51.19026178302518 24.962763376500533 0 0 0
2570 1 26.769543603006714 11.021727544879854 1.1850880584523886 0 0 1
482 1 15.830414894521997 3.2979634349196827 25.08492654683612 0 0 0
2572 1 33.2139165778884 11.065789369778566 0.9637765345258535 0 0 1
514 1 15.76832632441868 15.657661187045635 25.315146133382544 0 0 0
1885 1 4.590679196057656 14.160404277436133 1.35471742602456 0 0 1
1234 1 28.517430818919383 35.02288558661986 25.399591092449846 0 0 0
1888 1 11.031684430325974 14.729314882559166 1.0848046249879986 0 0 1
429 1 9.434407439001788 29.25168507978174 25.423419391120504 0 0 0
1890 1 17.57213986915691 13.924781328186556 0.9461302616029956 0 0 1
471 1 6.139909687113274 0.007466425224832096 25.32331398414438 0 1 0
2575 1 23.93094567977836 13.8759966434593 1.1328174062865315 0 0 1
404 1 2.9594598882213536 15.90285666870394 25.163342463339355 0 0 0
2579 1 30.216089874631034 14.17622362483428 0.8017732674941112 0 0 1
1240 1 31.58070763048248 38.10603149054929 25.023957273243738 0 0 0
1891 1 1.2946581856941954 17.4474553897669 1.2607458585110853 0 0 1
6088 1 0.11611210165885405 40.887225978169624 21.431356956125768 1 3 0
1893 1 7.628904096100898 17.67106466349765 1.5011198619327293 0 0 1
499 1 3.017703585809387 9.482365015965396 25.39238634400898 0 0 0
1894 1 14.475979592781593 17.491118382592482 0.8163946410254681 0 0 1
1158 1 25.145670927821744 38.72273077912656 25.063349410416446 0 0 0
2581 1 20.767933399523283 17.359885511920005 1.4199208886826802 0 0 1
1129 1 31.494589964360703 19.159743659829676 25.293634762444135 0 0 0
2584 1 26.871698952225664 17.484101611751825 1.0299391427677733 0 0 1
1219 1 22.094619091001526 28.83804388365916 25.149701027934192 0 0 0
2585 1 33.48854783964357 17.26822242774674 1.263171239916213 0 0 1
1896 1 4.487850807948293 20.777080443009375 1.130422126705918 0 0 1
414 1 12.717544045938162 18.956972595144546 25.45305715709376 0 0 0
1897 1 10.938379018592979 20.948731057319833 1.3488432086529403 0 0 1
7989 1 0.008462872753271289 42.39808072839102 16.1265544837783 1 -2 1
1898 1 17.32032020054109 20.836973465036014 1.3883117364546316 0 0 1
2573 1 19.22072701805468 19.059703305895543 0.16410276234992055 0 0 1
2588 1 23.69973033108605 20.926320410814633 1.4484359651300278 0 0 1
2583 1 25.346606692975925 19.249333136548017 0.0076740482008292865 0 0 1
2589 1 30.01883481573003 20.78252415367152 1.3648598331586863 0 0 1
463 1 2.828789893888381 48.13773868619891 25.472309850840603 0 0 0
1899 1 0.859241360907693 23.98591800435064 1.2956878846225313 0 0 1
480 1 12.698143367321467 50.70758572407258 25.388682806917746 0 0 0
423 1 15.982026592650445 23.133375802176996 25.268379068963412 0 0 0
1994 1 12.769937347669053 22.495549624398983 2.3729441569854504 0 0 1
1246 1 28.406452935403067 41.53212931656564 25.388386180478168 0 0 0
2591 1 20.012967245189884 23.89579269267101 1.1386495280978226 0 0 1
442 1 12.736692337264898 32.11561225604106 25.25860875697224 0 0 0
2593 1 27.005390693532547 24.028017212036197 1.1020175417790417 0 0 1
1216 1 28.42322513943898 22.475976141355577 25.366332588457073 0 0 0
1905 1 4.121782109031374 26.811993729104866 1.364433918070793 0 0 1
741 1 18.676404538843002 6.323486149955042 25.407662004477302 0 0 0
1902 1 7.759669603386593 24.192404205788474 1.3152918026019262 0 0 1
534 1 2.818449033725441 29.1003204626148 25.37110872883909 0 0 0
1903 1 14.483714612654602 24.268095121363952 1.0827560137640846 0 0 1
1443 1 -0.2856302208007668 44.55474603366484 5.819218997402829 0 0 1
1123 1 28.666373823128367 15.825685039250196 25.15880929394281 0 0 0
2598 1 29.94435384300695 26.986463404596122 1.0034919278346772 0 0 1
2594 1 33.33458511474162 24.193509292115827 1.3912634960799397 0 0 1
485 1 3.0483895066218136 3.295177430093178 25.187020494058928 0 0 0
1814 1 2.7240846360263085 28.634486189383452 -0.19152234495000836 0 0 1
1908 1 10.828907798776912 27.482123114573564 1.031279297328253 0 0 1
517 1 6.313148643848413 18.98650126859056 24.995830531861 0 0 0
454 1 9.139883057928808 41.85113607633878 25.240549144951892 0 0 0
1911 1 17.119916652318388 27.689398288248984 0.9081421207166902 0 0 1
2596 1 23.770577686022232 27.259872360223778 1.0331205539069512 0 0 1
1457 1 -0.28113812072187944 44.586637236422604 -0.13332751505478624 0 0 1
2682 1 25.54829506945362 28.855705159674514 2.2492165891225655 0 0 1
2686 1 31.82957070130429 28.522054074109185 2.2939962121547004 0 0 1
1913 1 1.062782226079381 30.36941030791654 1.070484318780537 0 0 1
6525 1 -0.07059959772317914 35.713766547731794 3.5778674493675626 1 2 -1
1916 1 7.756040852499288 30.355024809902424 1.0601623302819476 0 0 1
7978 1 0.5514392313829205 11.311111567729705 4.720089854746785 2 -2 -1
1918 1 13.787724353594399 30.59743462456515 1.335375198716657 0 0 1
1102 1 31.786591093894728 6.669534097494001 25.027048587063884 0 0 0
1097 1 21.815212198796207 3.1482360765346167 25.05268476921656 0 0 0
2603 1 20.515819238699773 30.73871206936484 1.0017979093855094 0 0 1
2605 1 27.27170693641923 30.538771475567117 0.7553574327231608 0 0 1
673 1 18.617121078129827 44.70068112760276 24.961046493202673 0 0 0
2606 1 33.060909558647076 30.708132457904142 0.9078874805255646 0 0 1
523 1 9.299617157536545 22.430791583471528 25.49405990235602 0 0 0
1920 1 4.691115397986358 33.65051622200773 0.9222453829881296 0 0 1
1921 1 11.118019844406653 33.58922756617292 0.8980383517382637 0 0 1
385 1 12.422573089169521 6.109129339133703 24.995784574779744 0 0 0
1923 1 17.064905241023595 33.72985973904101 0.9305317909014874 0 0 1
1441 1 -0.30915160463270114 22.341875085994058 2.7390319741646545 0 0 1
2608 1 23.857504874959552 33.226696472295195 1.2510314642442644 0 0 1
2610 1 30.244568458700115 33.662562253027666 1.2368406001162398 0 0 1
402 1 -0.04904544120916898 25.7252595919493 25.067334750539285 0 0 0
1925 1 1.0068447488504277 36.58892235373231 1.1529814014285515 0 0 1
1146 1 25.05931563639035 31.963604275539872 25.190863959034377 0 0 0
2021 1 3.0084616941705478 38.355257739690735 2.3192647718917363 0 0 1
1926 1 8.137854079507507 37.062275890801835 0.9277447165200987 0 0 1
550 1 12.185490055676304 38.36006260601259 25.011774794200964 0 0 0
1928 1 13.811981569149781 36.716420289366425 1.0143607366669223 0 0 1
1136 1 25.282964913757535 25.624643238801337 25.371789222614744 0 0 0
1929 1 15.761729260998106 38.31151031823237 2.245552106246072 0 0 1
2613 1 20.541434926916832 36.83562183694166 1.227949165305251 0 0 1
466 1 12.092735534541822 44.839946648650894 25.09548900550311 0 0 0
2615 1 27.25628116173097 36.79844783871041 0.9153348391916325 0 0 1
540 1 9.34535590279655 34.87406125520542 25.011626667078513 0 0 0
2617 1 33.73542325147905 36.457820557377545 1.149542729283081 0 0 1
2535 1 31.960145506964814 38.268308133803075 -0.12141880509006256 0 0 1
1165 1 25.21454074620565 44.807507909791916 25.331900732745655 0 0 0
1932 1 4.525325314505258 40.06713877707602 1.0747025922567826 0 0 1
1935 1 10.819341186325332 39.63589308150491 1.0211244303820837 0 0 1
4841 1 0.18778466697693297 34.66315099971339 14.63271979847406 1 3 -1
1936 1 12.380060199355006 41.43736213146459 2.347034255480783 0 0 1
1937 1 17.781736213854625 39.801966184585055 0.9791844584409817 0 0 1
1114 1 25.221737066070606 12.276691619109394 25.074230721918564 0 0 0
465 1 8.998877252621071 48.4875304214599 25.191817678989732 0 0 0
2619 1 23.722001116284602 39.811609988355634 0.868729113494302 0 0 1
2621 1 30.438462353464928 39.7414584546863 1.397108332638557 0 0 1
421 1 12.679074398421456 25.628113301220136 25.091120372154506 0 0 0
47 1 -0.27882966536756815 32.12513941923055 25.31001818122009 0 0 0
1938 1 1.3713035110793503 42.83150491894285 1.2790150066735404 0 0 1
560 1 5.983313631893767 45.195751503130786 25.278350332403022 0 0 0
1940 1 7.881684190256717 43.00739399077638 1.6304225717044931 0 0 1
1943 1 14.247344071414362 42.7695470183976 0.8476019583390932 0 0 1
1230 1 21.72334466805162 34.999182886620304 25.30712879455718 0 0 0
2623 1 20.454694658095804 43.103649321239146 1.0945283253268017 0 0 1
552 1 2.8180291410432186 41.65101760168739 25.27679186278806 0 0 0
2626 1 27.068835481319297 42.5058053602324 0.9084875945215096 0 0 1
1084 1 25.397370586039028 48.14425826391155 21.846109307607648 0 0 0
2627 1 33.44005414800266 43.205576317984075 1.0711969209942531 0 0 1
1201 1 31.43801835501953 12.692933633105778 24.977947972395285 0 0 0
1946 1 4.402649712754471 46.23993888417801 1.1463147822175843 0 0 1
1156 1 34.519118043187284 35.40576471282654 25.256660361282925 0 0 0
1947 1 11.014577648148899 46.300525722837946 1.1385521798398601 0 0 1
539 1 5.995335314718359 32.25542473673383 25.106458890340168 0 0 0
38 1 -0.27529584774959265 12.965542850503478 18.485763468436453 0 0 0
1948 1 17.171568852008697 46.20640342344976 1.0150380895795343 0 0 1
2628 1 23.7336027922649 45.965917366409776 0.9563403142360531 0 0 1
486 1 6.125374722233478 6.398898938760343 25.16362125258142 0 0 0
2631 1 29.900565075922373 45.74657372272556 0.8777818235931818 0 0 1
427 1 6.3923572173777305 26.054118450875198 25.204187057199608 0 0 0
1949 1 1.3216530900548404 49.33795582120572 0.6225313231353958 0 0 1
2050 1 2.5924143226765075 -0.14908381146235342 2.1538443866096246 0 1 1
1188 1 28.165652182285783 9.528845406790587 25.27447050087292 0 0 0
1950 1 7.6417636468962025 49.57311101134566 0.9399651976620431 0 0 1
23 1 -0.22399911916502213 19.384563910879667 25.276494762718063 0 0 0
1953 1 13.777885070554344 49.41992637878099 1.076347542007537 0 0 1
1179 1 28.441825721432526 2.8474409337849953 25.132103101119622 0 0 0
2634 1 20.025634283996833 49.24976588077707 0.8701230769442649 0 0 1
2709 1 21.832923924353896 50.729870907441885 2.053927104075812 0 0 1
2635 1 27.202871710735216 49.292265676245044 0.8873341821736291 0 0 1
1142 1 28.717609447396104 28.417633982914886 25.168667168777603 0 0 0
2638 1 33.30405875770057 49.55261633714408 1.199680702507359 0 0 1
431 1 15.83392573024246 28.754156861479657 25.21005688417817 0 0 0
2049 1 0.9671405241308306 1.063483149681302 3.9970208017368023 0 1 1
2052 1 7.711275713188373 1.2074041241512907 4.396456977167912 0 1 1
1440 1 9.615031550872972 2.7361235784193285 5.551613931458709 0 0 1
1965 1 12.512227853169833 2.3333234655717607 2.576672244598988 0 0 1
2053 1 13.909195695314319 0.9734460023364941 4.50002789894294 0 1 1
2047 1 18.887270622400294 2.421267061986305 2.529972638528378 0 0 1
2712 1 20.589201102693497 0.6728474836312375 4.109201918514836 0 1 1
2644 1 22.00895040397989 2.8537124843030726 5.511937419456473 0 0 1
2642 1 25.331135267487365 2.691406777283112 2.7025009373728093 0 0 1
2713 1 27.05268628134292 1.10101059917297 4.170040748715991 0 1 1
2714 1 31.70366913434558 2.5561591021580674 2.5579102145707484 0 0 1
2716 1 33.275204161532386 1.272851541278281 4.180614058436789 0 1 1
1961 1 4.570488188950281 4.904752236717606 4.341470082228827 0 0 1
2051 1 6.275034943201774 2.9223673934084826 2.728738273248749 0 0 1
1962 1 10.797950132330635 4.567174249151034 4.0095956114112905 0 0 1
1967 1 16.74566653371428 4.180249082102732 3.9334617509045557 0 0 1
2560 1 22.11007685455859 5.850799577173612 2.438745037342538 0 0 1
2645 1 23.81014304317545 4.4182308854578 4.121084094725289 0 0 1
2646 1 29.972759415718553 4.488019342692323 4.073584074851237 0 0 1
1968 1 1.1962555938864672 7.440787082386749 4.198694728829827 0 0 1
1969 1 8.046777017114806 7.897243967225922 4.115610810322726 0 0 1
1876 1 15.095427809441711 5.9420414874634275 2.4792863568894736 0 0 1
1970 1 13.631702845893173 7.899158920525947 4.114787625296397 0 0 1
2647 1 20.317233603606795 7.576152866376052 3.851587879450906 0 0 1
2650 1 27.01177112323599 7.82390626637663 4.502494864821461 0 0 1
2566 1 28.3824397133404 6.309075711315299 2.599515106752952 0 0 1
2652 1 33.56559665582096 7.668757943671816 4.307017646846905 0 0 1
1465 1 -0.08681568299008646 9.219698684059377 2.7565137807649664 0 0 1
1972 1 4.841607258988611 10.93249189144369 4.344036146047618 0 0 1
1873 1 6.648625093081707 9.45666608538166 2.6003012935698333 0 0 1
1975 1 10.83430063664356 11.094665084671185 3.951888510378672 0 0 1
2069 1 15.302258412487443 9.485408354075442 5.5382016623008505 0 0 1
1978 1 17.325180946219717 10.492669379368037 3.9501988464146223 0 0 1
2649 1 21.774328850370864 9.176436817173595 5.575808510073675 0 0 1
2654 1 23.6685671030792 11.101292462266068 4.459053142552841 0 0 1
2569 1 25.32063001617012 9.325814812230536 2.780604801746789 0 0 1
2657 1 30.180118403276175 11.221425398084845 4.3397303047802565 0 0 1
2571 1 31.76839073780814 9.314505557240208 2.703967593958889 0 0 1
1979 1 1.5081271097381908 13.971620254481925 4.498632709039909 0 0 1
1879 1 3.034592037241381 12.327097021702803 2.787354199236005 0 0 1
1981 1 7.8351578065081675 14.02282792696433 4.383450988962397 0 0 1
1973 1 9.457678525530477 12.93152858858118 2.6021246816227173 0 0 1
2068 1 12.329385315196179 12.620290742048049 5.219806418666482 0 0 1
1983 1 14.222704353998802 14.388096121268916 4.459056734176614 0 0 1
1976 1 15.948252644739782 12.892481447150617 2.8223877818099883 0 0 1
2658 1 20.523677286233113 14.117014542169175 4.063740603958698 0 0 1
2653 1 22.058573796537793 12.221921979430295 2.6114695142310578 0 0 1
2659 1 26.96069814244748 14.187094605551351 4.364534581784745 0 0 1
2577 1 28.581615293767076 12.64147030483919 2.627803547779854 0 0 1
2660 1 33.139423081172325 14.252108973094007 4.0925173916009525 0 0 1
1807 1 0.03921431296680555 15.6246921161481 3.0466833182431183 0 0 1
1984 1 4.533027502765197 17.711537670245665 4.680758896807576 0 0 1
1886 1 6.127123825659344 15.981441843120407 3.1959946420775913 0 0 1
1986 1 11.134371109173332 17.630447631868126 4.3105532607430606 0 0 1
1985 1 12.82172251865411 16.130875316786504 2.6301086743096485 0 0 1
1988 1 17.205012109073284 17.548122190223594 3.8820844862071633 0 0 1
1989 1 18.877636383409868 15.721014274212212 2.703015036889837 0 0 1
2662 1 23.7300286621373 17.35195107092705 4.412620428848216 0 0 1
2576 1 25.205944201178486 15.830285533146483 2.527361944105775 0 0 1
2664 1 30.073881292454825 17.381465448644963 4.095234589862403 0 0 1
2663 1 31.612868158422426 15.798036926978817 2.5441927081434654 0 0 1
1990 1 1.2991588978286 20.977238580399895 4.189260308773575 0 0 1
1892 1 2.8874071248803848 19.231947663544396 2.8761966454049053 0 0 1
2078 1 6.571953960728397 19.48741395618241 5.497611072332788 0 0 1
1992 1 9.573825317360809 19.329580727854566 2.8934215568309405 0 0 1
1987 1 15.515328979217196 19.4490780387481 2.606464850051603 0 0 1
1996 1 13.963681818854644 20.687227741263303 4.265302244991713 0 0 1
2665 1 20.561286667158896 20.875693893053658 4.891955526069204 0 0 1
2582 1 22.03118744522891 19.22599427876486 2.877532408444344 0 0 1
2666 1 28.279101599768207 19.092858177391854 2.576970948238602 0 0 1
2667 1 26.96921378860581 20.881876270991533 4.364249158224565 0 0 1
2668 1 33.35023575106151 20.371035743993374 4.342618186188922 0 0 1
1991 1 5.8896368663451275 22.619017544428097 3.0222726027283873 0 0 1
1993 1 8.071522663653145 21.292551739112547 4.328605846608958 0 0 1
2000 1 11.24472257163049 24.01462602366792 3.909772616054352 0 0 1
2145 1 18.72937946134824 22.426198843875493 3.0318197293516778 0 0 1
2592 1 25.25226464559271 22.68361773548199 2.8067451255160236 0 0 1
2672 1 30.035043003830253 23.92066696688424 4.544223690513752 0 0 1
2669 1 31.812012141502038 22.49395760845285 3.171510093196703 0 0 1
2005 1 2.2389977366445835 25.746528547711183 2.8686923964086533 0 0 1
1998 1 4.228784136486272 24.33071089489423 4.303406997816309 0 0 1
1999 1 9.44545365095229 25.888265470296368 2.760650901889707 0 0 1
2001 1 17.580478216223398 24.508228092103995 4.488843451065503 0 0 1
1904 1 15.998367236611916 25.839412894386868 2.795322087483331 0 0 1
2670 1 23.64087566653697 24.35198804487991 4.418259216508562 0 0 1
2595 1 22.043603277517292 25.45754769729812 2.577355811324955 0 0 1
2671 1 28.558185731324894 25.494288097463063 2.9307865200133514 0 0 1
2678 1 33.25188014180498 27.061746363638644 4.367009372939693 0 0 1
2003 1 0.6769111219735835 27.391490085230043 4.241848077357284 0 0 1
2096 1 2.5816015954814144 28.916147848087633 5.586209249944734 0 0 1
2004 1 5.939982817496263 29.007338252415202 2.5366866482588044 0 0 1
2006 1 7.627611124277527 27.126218492354006 4.579134985645481 0 0 1
1910 1 12.219811216403444 28.75733543167697 3.0051738248691544 0 0 1
2007 1 14.115099595424155 27.3900104565092 4.252156298545258 0 0 1
2133 1 18.747812682067906 29.062244954069403 2.684266119339278 0 0 1
2673 1 20.249643387661347 27.106160146887035 4.254967832557602 0 0 1
2676 1 27.110233905226682 27.503244495560857 4.579838097744842 0 0 1
1915 1 2.784913037053952 31.912774444272827 2.492950860663443 0 0 1
2008 1 4.351496667966431 30.41398760905099 4.185566611796961 0 0 1
2010 1 10.444479551618166 30.318961394543287 4.509686164100638 0 0 1
2009 1 9.396535449584086 32.09324319463228 2.4828910629457255 0 0 1
2011 1 15.548666508123588 32.13170066264852 2.596177213998694 0 0 1
2013 1 16.967227660499496 30.4430657614335 4.504345723579507 0 0 1
2680 1 21.90007861148787 31.74195494978917 2.8849902403812124 0 0 1
2681 1 23.985420004989457 30.14298972895181 4.275961084243825 0 0 1
2685 1 30.26358446627253 30.140595148518802 4.17407649350265 0 0 1
2684 1 28.59615607290932 31.914963106787084 2.787528375033385 0 0 1
2611 1 34.575625131544285 31.697273581967284 2.8741383119030792 0 0 1
2015 1 1.5755618299503606 33.622772296933185 4.07015663512724 0 0 1
806 1 19.23917501387495 12.78592232012166 24.89761084202807 0 0 0
2017 1 7.514052820573923 33.19572329639341 4.086079988455039 0 0 1
2016 1 6.39298407460623 35.304548864441145 2.496039036754365 0 0 1
1922 1 12.297579798358363 35.23014723605387 2.6711114577245665 0 0 1
2018 1 14.023321350497376 33.77700699100803 4.273821260879496 0 0 1
2063 1 18.717835763533067 35.198353105580004 2.699839581044895 0 0 1
2687 1 20.46158428401294 33.59145699913164 4.356070132543989 0 0 1
2688 1 26.800251952741807 33.63226869462978 4.482671992951498 0 0 1
2616 1 25.265010681964352 35.01888322430133 2.5450777895501058 0 0 1
2689 1 32.980679955647595 33.474505143521874 4.46532535979296 0 0 1
2694 1 31.663657846822655 35.3412882486392 2.745371086585392 0 0 1
2022 1 4.546026043567719 36.78608565260427 3.914980348898631 0 0 1
1927 1 9.18624815400059 38.33209333820055 3.073697274014529 0 0 1
2024 1 10.875254093563145 36.94843520346978 4.571388586972913 0 0 1
2026 1 17.031105818504688 36.87915133161781 3.998311985483122 0 0 1
2691 1 23.658372529253285 36.64987745641848 3.883410806784279 0 0 1
2690 1 21.96966908766431 38.51894841578785 2.7517705564999013 0 0 1
2696 1 28.45616168245988 38.30791040226987 2.895493579319221 0 0 1
2692 1 30.205150294339475 36.86051161598229 4.643029627768572 0 0 1
1428 1 -0.18223780986184185 41.01699637685618 2.4049829703663326 0 0 1
2028 1 1.6485467027631566 39.75255138915304 4.165080045431741 0 0 1
1933 1 6.0776601365248055 41.50810636660516 2.8517101172192136 0 0 1
2029 1 7.735294323555136 40.04951926909252 4.601984742984792 0 0 1
2030 1 14.202245165951812 39.98307089451805 3.6832605043081137 0 0 1
2231 1 19.193278628004638 41.14268664427675 2.862225566558552 0 0 1
2695 1 20.774920677207394 39.76650532608504 4.879359113733245 0 0 1
2699 1 25.263743028700627 41.212066240785596 2.513197117308553 0 0 1
2697 1 26.73452754685855 39.84639430459354 4.2752869340561475 0 0 1
2698 1 33.505708362428386 39.657565364546016 4.5208874209443515 0 0 1
2701 1 32.17189912501139 41.21589671406221 2.913965433787823 0 0 1
1939 1 2.670239847140033 44.70703600028487 2.6926328367228614 0 0 1
2032 1 4.383635300274335 43.480990276270155 4.295117733022896 0 0 1
1941 1 9.329387484799572 44.74303291407683 3.017667247390461 0 0 1
2033 1 11.106870283009284 43.121625510088634 4.389674530052209 0 0 1
2035 1 15.696200699917298 44.437893614016986 2.706432124921731 0 0 1
2034 1 17.510267734093695 43.04275207365309 4.122573259667495 0 0 1
2624 1 22.050003194176625 44.60362615804797 2.617853294273935 0 0 1
2700 1 24.11928605497581 43.24137423297968 4.1798960125476645 0 0 1
2630 1 28.402250148863644 44.08614868892779 2.5252974044251046 0 0 1
2702 1 30.302543782614084 42.743967187022754 4.217447082424622 0 0 1
2036 1 -0.1125399625663765 47.923268431850296 2.4846522092792624 0 0 1
2037 1 1.2143733623273636 46.178990403174105 4.312149443296554 0 0 1
2043 1 6.235857545534526 47.84829058117188 2.6661325878463957 0 0 1
2038 1 7.802633719197868 46.27025365483127 4.575087659165129 0 0 1
2041 1 14.01446848879009 45.75809693776975 4.4060132657768305 0 0 1
2039 1 12.521318393906755 47.65161567276395 2.8179736926891 0 0 1
2122 1 18.786094209389162 47.682789342758696 2.7591798982023494 0 0 1
2703 1 20.634506988051722 46.07751199659138 4.537346310242432 0 0 1
2704 1 25.43761300574345 47.659291466970444 2.4973740586857165 0 0 1
2705 1 27.15313275117241 46.32701456370511 4.008793007921863 0 0 1
2447 1 28.477198220288972 48.05725831741594 5.528900133144643 0 0 1
2637 1 31.58930529325798 47.60237560397818 2.496195054874081 0 0 1
2707 1 33.22396962366191 46.5015982667631 4.309096166709616 0 0 1
2044 1 4.399244043787577 49.65800362890986 3.8559484799390837 0 0 1
1952 1 9.267340697732827 50.86727112988415 2.9287670018715954 0 0 1
2045 1 10.822520101456417 49.07209710241375 4.422076647820749 0 0 1
1954 1 15.13878590464299 51.17926037339861 2.434064374921303 0 0 1
2048 1 16.788045193059393 49.44441758464108 4.061087034733552 0 0 1
2710 1 23.521666053248527 49.44023844580727 3.851295683550596 0 0 1
2636 1 28.794119660030574 50.80981358792321 2.5366085675845627 0 0 1
2711 1 30.342394433319374 49.358793340468424 4.0384324269750325 0 0 1
1500 1 2.7488755171906045 2.61290487453128 5.720767188771192 0 0 1
1517 1 4.422224256569546 1.3488870088994072 7.349841427575983 0 1 1
1471 1 11.109525054865037 0.8171797299379151 7.0230027750815385 0 1 1
1964 1 15.485429929514655 2.7032707834900696 5.968152996607244 0 0 1
1426 1 17.0719169317374 1.0878108879775954 7.377359856369081 0 1 1
2304 1 23.625951672077985 0.9312860319661715 7.447758943692464 0 1 1
2661 1 25.18537076211755 2.767706560821634 8.810585360813887 0 0 0
2268 1 28.3321009572264 2.829641510953345 5.818354404997171 0 0 1
2228 1 30.285149665102562 1.443076307103171 7.340879159427465 0 1 1
2054 1 0.9758717900929808 4.322934735773589 7.4433701579826765 0 0 1
2055 1 8.006067078403321 4.649305857503683 7.397641647803045 0 0 1
2057 1 14.119723922790396 4.557228387500489 7.475558237831178 0 0 1
2717 1 20.34964468683462 4.2849909816722755 7.401733475102627 0 0 1
2718 1 26.944892820310674 4.71994515244853 7.453009408040145 0 0 1
2719 1 33.29192884123673 4.606098127705151 7.077049748194021 0 0 1
2175 1 31.82218562904478 3.1256317411512957 8.74694733949863 0 0 0
2060 1 4.288538715095132 7.459403860671303 7.342648952519185 0 0 1
2061 1 6.275515940047121 6.341463656243505 5.699510021747189 0 0 1
1963 1 12.330248455571928 5.993833147436902 5.87031240199305 0 0 1
2062 1 10.993822339506549 8.21810549540721 7.370951421385573 0 0 1
2115 1 18.48490064572629 5.922798691249497 5.603052107891864 0 0 1
2064 1 17.283214105084276 8.14050941094463 6.908983567315185 0 0 1
2134 1 15.804303685655839 6.449132986304469 8.646948473762157 0 0 0
2202 1 21.667136496197074 6.320182590941531 8.665433355591198 0 0 0
2720 1 23.786159376531614 7.869819907523409 7.101771174230789 0 0 1
2648 1 25.441750591183318 6.035060854852517 5.771099186837214 0 0 1
2318 1 28.58534111778751 6.2744117184758235 8.55630477791375 0 0 0
2721 1 30.21080684149472 8.074521229045283 7.463054965238786 0 0 1
2651 1 31.604418242078417 6.122746837179294 5.806716580828379 0 0 1
1971 1 2.801953520800322 9.106302331931047 5.88359588360119 0 0 1
2065 1 1.4719515903021678 11.030453754589427 7.197858301602465 0 0 1
2124 1 5.627141535414185 9.465323417637082 8.73560897786283 0 0 0
2066 1 7.686533131113007 10.97108488589941 7.277047814687418 0 0 1
1974 1 9.561538748224557 9.573051513329052 5.714947456772688 0 0 1
2070 1 13.823954703312495 11.01153524798035 7.174433974752265 0 0 1
2723 1 20.41640967558576 10.958261453838222 7.4427088951370735 0 0 1
2724 1 26.754452816185267 11.060911252845436 7.365164678163265 0 0 1
2656 1 28.608775565047722 9.511351106529297 5.783279652975168 0 0 1
2725 1 33.15776204282446 11.11824112969672 7.0934569017715985 0 0 1
473 1 10.924962326762522 49.50020829031566 23.550689471100064 0 0 0
2072 1 4.725409938607036 14.194263859398605 7.815365308935382 0 0 1
2073 1 6.100822172895484 12.729473377183357 5.99590284840038 0 0 1
2074 1 10.930843151676386 14.034859545824515 7.504415747106136 0 0 1
2075 1 17.669264744292594 14.080550880750897 7.183388693748778 0 0 1
2121 1 15.758072202161681 12.57653993630696 8.681186983773477 0 0 0
2237 1 19.17765011243091 12.475825101616232 5.772465892813097 0 0 1
2727 1 23.61933547856159 14.2564969593978 7.530543976501455 0 0 1
2201 1 22.092494818858526 12.429394276503944 8.78948950688886 0 0 0
2655 1 25.378178373499992 12.799500577539419 5.964071854896555 0 0 1
2729 1 29.982388154835498 14.62501297020557 7.637674037486467 0 0 1
2728 1 31.556723546930275 13.014251079115855 5.735508157221761 0 0 1
1980 1 2.8277043836347335 15.955699855983276 6.088366208923378 0 0 1
2077 1 1.3750552003772012 17.805941858545868 7.5864538650971385 0 0 1
2079 1 7.911632963297652 17.57483677086682 7.391996496526477 0 0 1
1982 1 9.623433782360669 15.82223461446484 5.80334399661627 0 0 1
2081 1 14.110772213426104 17.601157257677407 7.506192694225034 0 0 1
2082 1 15.88781414090483 16.081312497940957 5.8922719075723196 0 0 1
2726 1 21.857353413999935 15.729582696220126 5.956111205552948 0 0 1
2730 1 20.678456308575022 17.369499671134335 7.717633083135122 0 0 1
2732 1 26.764316266459613 17.737375985448075 7.428185759968857 0 0 1
2731 1 28.333494288066284 16.17484493820491 5.867471747317157 0 0 1
2733 1 33.55871186225437 17.491281092938863 7.368724462493013 0 0 1
1564 1 0.01758625093871441 19.251198779028876 5.606103142321966 0 0 1
2084 1 4.452067955332335 20.97383865422824 6.9686204397151705 0 0 1
2086 1 11.222251027975704 20.870668066237933 7.142889878772446 0 0 1
2080 1 12.738680239409666 19.265575873114425 5.842720867921315 0 0 1
2088 1 17.371993329627472 20.81045387162624 7.589692057795475 0 0 1
2760 1 18.993299963206365 18.93751493839773 6.17241853979404 0 0 1
2736 1 25.191752306157497 19.308292054476933 5.924436925431815 0 0 1
2739 1 30.167673461036923 20.446819948283064 7.57143374719403 0 0 1
2741 1 31.906862598707328 18.993499512236887 6.120158436533399 0 0 1
2083 1 2.6105596410290985 22.78333885992206 5.897827965840833 0 0 1
2092 1 7.643467484703457 23.90857383794837 7.647625873861332 0 0 1
1995 1 9.791307485331828 22.766097315078923 5.800334895785974 0 0 1
2094 1 14.442507577344346 23.979062885610702 7.425815552937864 0 0 1
2002 1 15.83280464914376 22.054901315718407 6.176249365962861 0 0 1
2737 1 21.941605182701263 22.99958524523012 5.991798684672962 0 0 1
2735 1 23.637726593973323 21.148278907350072 7.318093093628011 0 0 1
2743 1 26.967998925217795 23.867247825057632 7.426118209589642 0 0 1
2738 1 28.543781404083912 22.249257338772278 5.956984268802784 0 0 1
2745 1 33.453587838569355 23.585151994119013 7.458661089119173 0 0 1
2090 1 0.9969113259273128 24.149824349883378 7.743355121674121 0 0 1
2091 1 5.87036333745559 25.665367263035748 6.27121918457657 0 0 1
2098 1 11.134917579820288 26.620310998383598 7.345352318416639 0 0 1
2093 1 12.791585949591786 25.467722915029093 5.69031781735653 0 0 1