LAMMPS data file via write_data, version 29 Oct 2020, timestep = 200000

4608 atoms
1 atom types

0.06900730903262442 53.33099269096596 xlo xhi
-0.13290224337578138 51.040022243374395 ylo yhi
-0.13290224337578138 51.040022243374395 zlo zhi

Masses

1 18.015

Atoms # atomic

4492 1 4.885288552848946 1.6938236482677427 3.180851937028627 1 0 2
3441 1 3.2071225005160433 29.236044273891576 14.638590293210182 1 -1 0
2237 1 15.13454236950212 0.24180702378390528 0.6127808664379364 0 1 0
553 1 4.848070532976389 11.194035853430547 25.206259006974893 -1 -1 -1
4516 1 10.131094075555712 48.268619675986606 23.892101170144887 1 0 0
3560 1 4.7025049659604 6.406616789330592 0.9991380209733656 0 0 0
2233 1 3.682986698258972 37.57427946156468 23.394760707059195 0 0 0
3431 1 8.336112786641294 7.159390033567409 3.0924292667562954 0 1 1
3445 1 11.476165906841004 6.091395558690523 3.0415703910063963 1 1 0
561 1 10.301647291307978 6.987350809158947 0.33212371520715395 1 0 0
300 1 15.316615883552041 27.317116831182013 0.5230382490147389 -1 0 1
3544 1 0.5098211980894718 42.28212081907498 8.40774442986139 1 -1 0
60 1 11.729763927391325 8.478818015982897 4.5213666384810205 0 0 0
2281 1 7.853903758535826 4.867517897367422 1.5385356485975146 1 1 1
2692 1 1.8244998146993714 10.308875625446658 4.665894931148842 1 1 1
1843 1 3.3273808771166773 7.967187146226221 3.6481850852314985 0 0 0
2349 1 4.757379449258647 9.373232878105087 1.9204820892702106 0 0 0
3503 1 14.07132324799813 6.3438578463647675 1.6108382311665788 0 0 2
1748 1 10.989995478063603 38.66124976055303 2.015108863115524 1 1 2
1121 1 1.9528832934552067 14.084532774049256 -0.10674000823229621 0 0 -1
95 1 4.357920497806264 13.923554931555927 1.8753518814260515 -1 1 1
1601 1 6.194546291121859 11.724054120758137 2.082587329874694 0 0 1
1000 1 1.8485144547887742 23.454553380327518 21.41483456702363 0 0 0
3348 1 11.474988062885888 11.152597504761506 2.9629991275825653 1 0 0
3170 1 0.40540671864863803 48.13115305919754 3.5702248318574696 1 -1 1
4505 1 1.193165716407602 35.973372649778305 13.574691863060178 2 0 0
3040 1 12.013872824001856 36.033739761725016 1.6522399559025531 1 -1 0
2525 1 1.9880833092424575 25.581197601792457 15.269061449373263 0 0 0
3528 1 9.320116152480072 15.754706427297371 1.5565462973676911 1 0 0
3654 1 14.16753378522979 14.954722678396301 1.9519351906059668 0 0 1
4083 1 11.447316742622615 25.05986310750838 1.2133023151142575 0 0 1
3450 1 0.8459281319979182 19.911753959537645 2.425387609106633 1 0 1
898 1 7.286355219381907 8.001158885616654 0.6183059429739862 0 0 2
2682 1 6.27240617138201 17.802639993812207 2.8235439671831637 1 1 1
1716 1 0.2657785249802884 39.72849226544982 5.623787555861336 1 -2 0
707 1 12.624207237170484 19.44894493955076 3.1823576184952453 0 1 1
2404 1 13.295319385893944 16.684883938562667 3.783357130102941 1 0 1
4012 1 16.834454898262948 16.762390223639485 2.3584619982210775 1 1 1
4191 1 1.44279568684966 33.77399125276329 1.5058617126893201 1 1 1
882 1 4.54030959137892 23.130994181891737 1.3580829588994727 -1 0 0
4357 1 9.97931197071128 23.03992330194603 2.979303440964268 1 1 1
586 1 0.4062570168114013 1.092716431482333 2.3396189238343927 0 1 0
746 1 15.291342177201532 19.951069558219867 0.2158009851714241 -1 1 0
1809 1 4.922068388865619 25.261969847664698 3.196042878999428 0 0 0
1061 1 15.659729207306757 20.96052699323171 25.10200275498544 -1 0 1
3189 1 12.28823125244586 26.267847923696696 3.4878341906383685 1 1 0
893 1 0.22436857821053133 23.36131198041594 8.887391511189907 0 -1 -1
1523 1 13.679419943852187 31.860581413764486 24.8188051370829 -1 0 1
594 1 8.84471906631168 27.612907190349095 3.145697052472318 0 0 0
3993 1 10.635260214453403 29.635123093461058 1.4032819938000753 0 0 0
2399 1 12.501551128533483 29.141787013073845 3.6230479530275512 0 1 1
757 1 3.604970497422542 35.763199637068645 21.26519672390813 0 0 0
3981 1 15.212022944557507 28.23876563113263 4.829056580570952 -1 0 0
3100 1 1.3406552218319912 28.074456673376787 1.5311965745520966 1 -1 0
797 1 0.6778199369664145 15.1428222960929 20.367150962695955 0 0 0
4108 1 17.338916160784116 41.96401600443728 24.86537266411683 0 -1 1
1049 1 13.010091101696613 34.8699953788428 3.814540391881906 0 -1 1
4421 1 10.044534937649486 29.5050788281963 23.96619507819025 0 1 0
3696 1 2.3672002569381023 36.240916956705725 2.5660818593353136 1 -2 0
6 1 0.09890683232553463 0.7986480085484148 5.296896025276293 -1 0 0
2546 1 5.698398523216311 29.410599270467767 1.4369834893757645 1 -1 1
1322 1 14.291459258069526 33.132287244117926 1.2748252282335952 0 0 0
4545 1 7.746388798802786 2.4269341764193033 2.900144022432065 0 1 1
4373 1 15.636163630563761 30.819679725612996 2.1121964309589374 0 0 0
4071 1 6.950614216741594 32.521104701707124 25.29978308569302 1 0 0
369 1 3.3615422519959894 39.31250689020641 1.4622634825866112 1 0 0
1865 1 12.558174898708513 1.3968069708826016 24.00558065030607 0 0 0
4584 1 0.10730175477849321 43.84710494046579 14.291871385844296 0 0 0
3230 1 7.536198950811956 37.54330109888133 3.8825199785599036 1 -1 -1
3387 1 15.56774352241166 35.41906689286353 4.673680392138529 1 0 0
4563 1 10.139240288035133 38.119042186197 5.135581756632689 1 -1 0
1862 1 1.3215848910653492 3.4989315107973433 1.2895028777400503 1 2 -2
2907 1 4.902278432982235 40.2159912076767 9.941573123616955 0 -1 1
2152 1 0.21248214301591653 29.81828302220157 12.16030936296778 0 0 -1
135 1 1.2247293425522259 28.010255172436228 21.75750602819699 -1 1 0
661 1 1.6392301159742064 23.027802760551502 14.740453393747462 0 1 -1
977 1 16.401656226623555 5.043808760999045 2.5637306814339995 0 1 0
2436 1 1.0894465530731408 45.07709980297099 3.160626070077879 0 -1 0
3843 1 4.9392809793782755 47.21157188722629 0.1825587853502023 0 -1 1
4418 1 0.09758211028018593 16.40214715907543 9.244959492139548 1 0 0
3621 1 0.3148946278334161 9.727351812890584 19.779530583942723 0 1 0
918 1 12.41979353371056 39.482233160770235 6.69249680686466 0 0 1
2391 1 13.669169746150894 42.27199444512534 6.634590253822801 0 0 0
1625 1 13.59212809712615 29.468245881722567 0.5773842671651032 0 -1 0
3159 1 0.8984436942526702 50.13653140534948 19.852591773662937 1 -1 0
2214 1 5.310341916976857 43.53100664319872 2.439721462863422 -1 0 0
1213 1 2.7532698079284725 35.801990353549684 25.271435793019847 -1 -1 0
3633 1 1.0146424190826977 29.525270829338563 6.898743602505605 2 0 0
1554 1 7.6555276104086225 47.61768578489687 22.285462463562332 0 0 -1
2753 1 2.048784635762793 49.94968808445723 2.1100389715611785 1 1 1
2609 1 6.065254038336866 18.427357361239633 0.21869772796871428 0 1 1
2044 1 2.9631807225349367 16.44320307397008 18.695886873425057 1 0 0
4171 1 8.314403870164174 50.638994327113416 2.26160027247723 0 0 0
3673 1 12.412728178196376 50.97633872043662 4.227086926467715 1 0 0
748 1 0.23482284375721463 24.32864112445143 19.25529548081355 1 0 1
1674 1 2.310062418036147 20.91568224510035 11.008653887639431 0 -1 0
366 1 3.1943960828245475 50.464972355283656 4.651302114979708 1 -2 1
2043 1 2.827021695928018 1.8818191128265038 5.992560657698366 0 0 -1
2880 1 6.178846573370966 49.87356042735892 3.9474385920245743 -1 0 2
1193 1 11.007979030441374 3.520701293491213 4.321693789038738 1 0 0
372 1 10.686316948749077 0.9968754814792717 2.0616612779755976 -1 0 0
3545 1 16.00048943777319 1.3868621312926708 4.835397416227632 1 0 0
2187 1 4.1207039984351335 4.410659021572608 2.9349713686034007 0 0 -1
1603 1 8.17299330147191 3.5978466305331955 5.45441068086445 0 0 2
4340 1 6.460510825048094 5.499526885785033 4.52322353017585 0 0 1
3996 1 9.728612140589986 3.5724933896770388 8.089701870998066 1 0 1
3597 1 14.000081245543925 1.6446571386370454 2.9163149177768886 0 0 0
2790 1 7.559379390182806 7.688981330876581 6.6913095679347485 1 0 2
4586 1 8.569092117907136 6.034489160135606 8.59743856071335 1 1 0
2328 1 8.775771019610083 9.5715695587022 4.4337440560865975 1 0 2
4532 1 14.257966508692693 8.997952510932286 2.647466765486133 2 0 1
675 1 13.09909275720566 7.427497481993896 6.957599436834536 -1 -1 -1
1759 1 11.567541701447507 9.471548776507525 0.5720562058663614 0 -1 0
285 1 4.58106721517977 7.00012967314446 6.070054608640049 0 1 0
3265 1 13.061791359745868 4.4259530188130265 6.003378779976557 1 -1 0
4249 1 7.415833936127164 12.659028386190482 4.46473962480858 1 0 0
49 1 8.113320080142692 11.60455705740727 7.179661538716772 0 1 0
1064 1 3.9053149372271707 14.388423766262191 4.613195242934881 1 1 1
3807 1 14.549594494263388 16.49269456356179 24.29087094056813 0 0 0
4131 1 6.470483550834003 15.472188639961603 0.8591418179543525 1 0 1
2752 1 10.26008622538673 13.138272787218643 4.462533431313167 0 -1 0
324 1 14.17415509097171 12.146881652678259 2.635786725388699 -1 1 1
3652 1 16.3104615592133 4.145450855251833 20.60289900578246 1 0 0
4044 1 2.0038538290465504 25.728696241787553 11.00691722319678 -1 0 0
74 1 3.1164387321152516 18.500863240715987 0.3205393540640769 0 0 0
3070 1 3.419827866723284 17.011421184966803 3.4994428259008155 1 0 1
359 1 10.941195512380563 12.056925665864394 6.908527722554489 0 1 0
1812 1 10.720913663607947 15.945003415773456 3.9131341308965446 0 1 -1
862 1 1.5088101986536704 16.46763832750909 1.2894040475427302 1 0 1
2500 1 3.932360052770562 20.21133677485712 2.8395585315956637 1 -1 2
504 1 1.0517851381546945 23.33727437475355 11.676036485754231 0 1 0
3610 1 9.189639145000239 21.39719247584163 4.956774158465751 0 0 1
764 1 14.897252299667707 15.248028070912323 6.111006475834846 0 1 1
4109 1 11.303200268924693 19.806238407638524 0.7965871867072747 0 -1 1
2868 1 2.8729010154571553 20.743228560415353 5.44795072775541 1 1 0
1045 1 1.213203917835359 23.02591202697292 2.084261376741318 0 -1 0
4096 1 5.458192833073999 20.29386395629486 6.684460268351578 1 0 1
31 1 12.650513992212813 22.26072430129623 2.990283454064535 0 0 1
4537 1 3.0349418820874527 27.296567040614086 3.5823077282859064 1 1 0
826 1 6.015226991263035 43.314364394070374 24.83492207285801 0 1 -1
2681 1 6.066538595705835 29.725081489043603 7.721300878121203 0 0 2
704 1 10.027062531310667 25.655952933683324 5.038418620712194 1 1 0
2520 1 12.683536578946434 26.159992175340484 7.761199917443375 -1 0 1
1561 1 14.023184793346141 22.57169289835888 5.271953266422006 1 -1 -1
1769 1 0.8231542792389936 27.312180520261062 4.928375578344361 1 1 0
864 1 7.398786213175481 31.59902418134628 5.538106037056062 1 1 2
792 1 9.578927122230258 30.06690953619854 4.71603153821323 1 -1 0
706 1 2.073857425947032 32.34219339767612 4.010477115522271 0 0 1
2268 1 5.670610183144381 31.41447025495485 3.437685726247564 0 0 1
1774 1 9.108814566014276 34.683714347677615 1.0126822213068019 0 -1 0
4027 1 11.032553236591776 32.65648091260164 0.8888787989413713 0 0 0
1911 1 10.596186977875682 32.52589317027356 3.9576515544382023 0 1 1
2538 1 13.248605828492146 31.888627078122738 4.168654276465797 0 -1 1
3111 1 0.8112965401976693 43.88519336358951 0.4608082165201679 2 0 0
3839 1 2.9130922749181143 9.867512294174382 -0.11291900773440028 0 0 0
3151 1 11.121125584658978 35.59754943476306 5.6449404365085964 1 0 0
1754 1 7.261644137704125 34.707427118759334 3.0637851308155843 1 0 0
1696 1 14.94659584793732 38.84820850782621 4.904173322744238 1 1 -1
401 1 11.508185360436821 35.500711987594286 8.426745600697885 1 0 0
1306 1 5.8864502769180405 19.85418848921455 22.834943366376987 1 1 1
3035 1 15.567393004635033 0.09907259709206845 20.30781273837872 -1 1 0
4241 1 8.075548386194695 37.72847918841366 7.819217916659874 1 0 0
1519 1 4.836714352802392 38.42160028503122 3.8287435979094844 1 0 0
1184 1 15.754860390091196 35.495588831765204 1.5931180109368608 -1 -1 1
189 1 2.499053121208018 41.00052804014939 3.6952473570793845 1 0 0
4070 1 13.616852346143244 49.31734783090364 0.06545301601551179 1 0 1
1290 1 6.459425648335084 41.85121682114045 4.5976067900655195 1 -1 0
274 1 10.102021789961842 41.13466407671559 5.935662086258821 0 0 0
819 1 17.100900669325423 15.801783739374674 22.780457790318444 1 -1 0
1684 1 6.694553013837471 38.09309873001601 0.5606081342230841 1 0 1
1641 1 4.009901784066768 45.93484498016521 2.4118205968009234 0 0 0
2197 1 2.2675589147766155 42.82117069122062 5.956653766089218 1 0 -1
3130 1 8.185788932833772 44.41304658469117 2.2582982145707167 1 0 0
327 1 10.081067296359409 43.03328736366476 3.6446726127195044 0 0 0
2093 1 15.669369193840978 41.44602499761749 5.030040325162802 0 -1 -2
4025 1 12.790792468463753 44.13530710051386 5.000225665794579 2 -1 1
4434 1 4.618510567336825 4.675085042470608 24.84700391738103 1 1 1
2649 1 0.11584350747074268 1.3873207608838876 17.01080302559668 -1 0 1
3709 1 7.742661681554179 47.07341105780731 3.196528628900376 1 0 1
4436 1 14.137357205462013 46.419799165614236 4.585784484995157 0 0 0
1429 1 14.757646978828072 45.39890073692594 1.6000653772545108 0 0 1
2106 1 16.046207711035205 11.252791492909743 0.8371397598499892 0 0 1
3049 1 2.6310287853348595 47.82857081891352 5.36735891297536 1 0 1
1218 1 6.541417827389261 0.880854778822532 5.645505869497189 0 0 0
994 1 10.541794040049648 1.2639386559149708 6.048321515300872 -1 1 1
1087 1 12.078774960237807 48.27406655604967 3.803042656024676 0 -1 0
2630 1 2.757829684103515 1.5232143292799802 8.793073536553631 -1 2 0
2022 1 5.615134994642116 0.6650105137023129 8.380390825521141 1 0 -1
2824 1 2.9978645621958084 4.72735414993719 5.548428310731562 1 1 0
597 1 9.127201598914747 0.3157763018825922 10.818189895671225 0 -1 1
773 1 13.808406980080868 0.18257936135612374 6.617765225604249 0 0 1
3192 1 9.682884355523084 49.3285914488349 9.086785278805776 2 0 -1
1896 1 15.231560674319645 3.311109452040212 9.499525527724732 0 0 0
549 1 10.399145996213372 8.773748951954968 7.442301062239644 0 0 0
2596 1 12.936983410481938 2.4041912214487113 7.903567477006963 -1 1 1
3951 1 9.391360928749148 21.782543532767523 0.7946999471242445 0 -1 0
1818 1 4.291547490704793 6.135842582839087 8.950366184491461 1 1 1
2635 1 7.9375390076122985 9.260901851709965 9.029347539335223 0 1 1
4215 1 10.877420933929129 7.174070664114279 9.866646358711673 0 1 1
4348 1 7.988551234743735 11.324875740227762 11.337964353058295 1 0 1
2772 1 11.273145386510928 4.109569049087229 10.243258118369171 0 1 1
2211 1 14.197587436391617 38.90159796604604 1.9690925997809803 0 -1 1
306 1 2.34856964699507 10.194255110460302 9.749726556216602 0 0 1
2585 1 1.4834378366848644 5.947207240681422 8.84424417243804 2 -1 1
2940 1 5.858340987212115 8.030012028203181 10.734082398408395 1 0 1
2132 1 7.627452312505727 6.283918257667202 11.91224972573591 1 1 0
3471 1 13.141928229216349 12.644072402843518 9.8939779889977 0 1 0
2474 1 5.431420384170868 11.19954308903255 10.749331837574545 0 0 0
4456 1 0.5297338147338946 34.98264854968153 10.901556157329145 1 0 0
3697 1 5.267893250756573 10.871374370767674 8.012126990012018 1 -1 0
3752 1 6.30929719815767 14.77050631468442 5.992816612784025 1 0 0
2881 1 3.174513710597758 12.266179395854486 7.064179526655076 -1 -1 0
4568 1 7.5941473294312045 14.059640150565755 8.432445925573514 1 1 2
3466 1 12.455484652282538 14.623550512577856 8.15735072746684 0 0 0
3132 1 13.919686514524207 12.646082496005715 5.507325797178331 -1 1 0
4045 1 14.989358141422272 10.817053980669481 6.850016649115954 0 0 0
1319 1 0.2239141962317602 24.584147460465125 4.329017035001359 1 -1 1
1701 1 3.533378566610497 14.478319807880109 9.00429703175922 0 0 1
492 1 7.98369821911373 16.83440750903836 4.860924344299446 0 0 0
3299 1 9.750528751750103 15.3214422782622 9.113644789322944 1 1 -1
511 1 17.11706660828878 14.52872987656337 8.058797472205065 -1 -1 0
1798 1 17.39317619983361 13.28833342806588 15.60963346209453 0 0 1
165 1 4.491077810374924 17.28865242492842 8.826983505292947 0 0 -1
360 1 10.662506268479813 18.70525453453022 5.355788974650109 0 0 -1
1215 1 6.450362835441347 22.00011330335211 4.350877801291049 1 1 1
419 1 11.400442517838986 18.39192441820069 7.91692422892109 0 0 0
2503 1 1.051147594162381 38.1507534259136 0.24287371659304835 0 1 0
3059 1 4.521332088531947 21.80574402364113 8.88390957143676 1 0 0
1630 1 1.7334550614784525 18.43004598647385 7.8277615104520155 0 0 0
1004 1 6.747765980675712 17.487178487709336 7.117203529978162 1 0 0
3071 1 10.071762581505139 23.411439851167906 6.7903548656333 1 1 1
4075 1 15.1932402314965 20.108560905306035 7.494466726820422 1 0 2
4138 1 12.785604937854753 23.63376967891445 8.864637402032784 1 0 1
1170 1 14.95233165448691 40.531011755236456 24.346760405343765 1 -1 1
1483 1 4.33711770854716 24.91873934610302 9.34698045310252 -1 1 0
3219 1 7.272174719374355 25.992399775323655 9.598306563533182 1 1 1
4275 1 7.521497040371609 27.75538241078596 6.005642031392883 2 0 1
3479 1 9.954881688448237 27.504326143602615 7.530723431098223 1 1 1
3172 1 8.929568797439726 40.13423804656909 0.11372616534084587 1 0 0
268 1 12.177387946671018 21.270294392235616 7.262829830462455 0 -1 -1
777 1 14.63882991709417 25.431440350386694 5.3064344739936535 0 0 1
3961 1 1.848903086658793 25.878279947685584 7.607683513179133 1 0 0
1224 1 3.6797933184473486 30.038886164385925 4.340452808232299 0 2 0
2557 1 13.66894060114952 27.695014406775154 9.646994283463606 -1 1 1
715 1 15.271608844990668 32.06808745485646 8.46526317214039 1 0 2
2031 1 15.458904393802118 19.06225389311693 23.175808090264542 1 1 0
36 1 9.313583224147596 32.20126049737142 7.847041843308598 0 1 -1
685 1 4.29947576502417 35.57077376714776 5.6619190095545875 1 -1 1
4300 1 11.342892927502765 35.20627879816494 12.570188901169146 1 0 0
1385 1 8.822499511649582 34.314374430249835 5.2742336493106485 0 0 0
712 1 13.548328668185148 30.747271558053843 6.70963682173431 0 0 0
4323 1 10.877682098696376 30.075333482216134 7.349344751141095 0 0 0
664 1 15.624481365678548 31.513817472744915 11.232122035061654 0 1 0
4431 1 4.307615054419772 34.24344785635606 3.007919873651883 0 0 -1
1242 1 6.764897179849108 35.274212689100665 7.345142795963217 0 0 3
2853 1 14.210354296567697 34.673766536184175 8.685416438863877 0 0 1
2168 1 12.027862459920492 47.16246251682039 1.3999361414336968 0 -2 1
2437 1 9.18825092769355 41.64455366033572 8.40603847987691 1 -1 1
1459 1 13.052283380958114 37.94140768195776 11.200003933998447 1 -1 0
4576 1 2.1142384660523756 39.86789104592604 7.763047880619419 1 0 1
93 1 3.067809238471712 40.91445450224593 22.954450643970393 0 -1 -1
1340 1 17.11760488206768 12.90109082156166 4.267242621900117 -1 0 0
1410 1 0.9900108872718424 38.381715957336425 10.841496280656266 -1 0 0
785 1 3.7944500963339043 36.530266010230974 8.850909533393688 0 0 0
2780 1 5.407060300267807 38.591941848732965 7.548602595192854 1 0 1
1901 1 7.580775240676278 40.2488606859142 10.533921966424762 1 -1 0
38 1 14.35537721083632 38.84479803891697 8.787587165886485 0 1 0
1736 1 13.209942619948647 42.59229062090071 9.568106363913355 1 0 0
2726 1 16.30987614870925 41.13868357263563 9.526316424815848 0 0 1
443 1 15.668968606974666 36.807501072628106 7.316605503967234 -1 -1 -2
2248 1 5.06307980737924 43.547913992703634 6.8664276842199925 0 0 1
293 1 6.411417085749557 43.24227644778438 9.3057587152218 0 -1 1
1456 1 11.92346587232336 47.676785391261866 8.484943735835476 0 0 1
4166 1 15.891814154794023 46.982682345476434 6.717194663530335 1 -1 1
3092 1 12.943199933922308 5.571805016841107 24.80528638911584 0 0 0
3149 1 3.4319633575953796 45.591772614878366 8.493002393591865 0 0 0
1660 1 6.183512150214512 45.48569068002888 5.670566483117338 0 0 0
938 1 7.234071783222533 47.414151427458016 7.5573209421738285 0 0 2
435 1 9.541470795361656 45.45695564056514 5.643298123167909 1 -1 -1
3613 1 9.938898022057053 48.114437102272234 4.777780532554191 1 0 0
4030 1 5.242557752623481 39.85185435169194 24.81940771455071 1 -1 0
2985 1 3.0343745690615718 48.19533962249676 8.688865061163694 1 -1 1
485 1 4.962145803776474 47.2347589893815 4.314600920707532 -1 -1 -1
3854 1 8.667977888473878 49.78333666411046 6.40171077571578 2 0 1
3294 1 12.501929640525361 21.43102060708779 25.260960139765782 0 1 -1
2822 1 1.1664704195817075 0.2594672719759514 10.971917423538628 0 0 0
2094 1 3.5271930312048463 0.5896641623732216 14.326280028422707 1 2 1
2258 1 6.2776167446184985 50.702305618733966 11.673200796999273 0 -1 -1
3535 1 16.560144602414553 0.7351853188880455 10.760832463054241 1 2 0
3915 1 12.285478630866049 26.833831041947057 22.758558248959638 0 -1 0
1316 1 3.2253251879384046 3.6414150465085013 10.28355188887225 -1 0 1
4601 1 5.042035975916785 2.3930038841271903 12.38560753136196 0 1 0
3439 1 6.194891884921969 4.358923029418124 10.422494704162064 1 0 0
3461 1 9.552580461428265 1.53090762626054 13.438998925090228 0 1 0
4114 1 7.749895460911346 2.1442206270673068 9.287188496976482 0 1 1
1650 1 11.633471722038239 3.6722348718624778 13.327754874824754 1 1 0
3425 1 17.76307893781345 5.672533178679024 11.504015394507915 1 0 0
1661 1 0.11246615983478539 19.529366031141933 25.339104124662125 -1 0 0
2117 1 4.147340980323468 7.703992283431104 12.74521547351367 1 -1 0
891 1 9.56450128524814 9.061615249325998 11.850410857675017 1 1 2
1268 1 11.133825747792253 11.365340590247515 12.081968725241419 0 0 -1
3947 1 13.349561449495537 6.977699692985948 11.745897730182769 0 0 1
3971 1 13.567516259693356 5.694063271756042 9.0738663062594 1 1 0
2970 1 1.4871882927497557 6.209241216540139 2.7489594976708993 0 -1 1
2209 1 6.990148341176124 10.843251113473723 15.06858371947626 0 0 0
463 1 10.999005118681973 14.238999615733373 11.396113579428057 -1 0 0
4020 1 12.88914754749586 10.416523693639379 8.441215729780403 1 1 0
939 1 4.509652617767592 12.662355454584196 13.36530920360492 -1 0 0
3398 1 2.4247597820068205 15.91691046129592 13.744714178079949 1 1 0
2263 1 5.708291379403235 14.202376536637363 10.690625874882596 0 0 0
887 1 12.319743296566417 16.669772190909335 11.99367525743724 1 1 0
1946 1 15.57890727903423 13.087241286431643 10.516741120378574 -1 0 0
57 1 16.011125201193256 11.746812496616117 12.931531316656692 0 -1 -1
3660 1 8.186575028135854 14.628795679499657 12.139458090386258 1 0 0
2941 1 14.637697603824119 17.01338208798782 10.797142241233194 0 0 1
3496 1 14.810191818464194 15.397826809997845 14.155045309845242 -1 0 0
3836 1 1.208604807399298 19.983798710319736 14.117567615266196 1 0 0
3566 1 1.4158830566280505 15.39161689570664 6.42687128647339 0 0 0
223 1 7.435045127411448 23.594786815594937 7.940212732295105 1 1 0
1265 1 8.196232971894723 21.27788440484172 9.606476388383362 1 0 1
2983 1 8.737644690451297 18.25961567837141 8.819359069960573 1 -1 0
980 1 14.197838053427876 17.24129762643432 8.073373297339785 -1 0 1
3309 1 5.999733947156819 21.13815777335196 10.918747811787956 0 -1 -1
3165 1 8.939009186392822 22.308002710735206 12.160416205364841 2 1 0
620 1 11.366927599433337 21.936705907148134 10.99680626316615 0 0 0
1878 1 15.346042288686434 19.935513163609016 10.568381973505632 -1 0 -2
2779 1 9.641977683886932 26.953023331841816 0.5218712701414528 0 0 0
16 1 15.162127173245032 23.716921863576587 10.472412787061268 -1 -1 0
117 1 4.213537093014525 22.01673719147948 12.945593915321043 0 -1 0
2068 1 8.163615578720254 24.971627087759224 12.518270276235802 1 1 0
3140 1 4.732087607432578 27.860996271867695 9.931102282035512 1 -1 0
1326 1 3.2883948758980903 26.60860876554669 13.028527852535529 1 0 1
1895 1 13.348380585037631 21.62388380207392 12.28498854196975 0 1 0
1575 1 12.404731900042957 25.157080055322638 11.631473980495105 1 -1 0
3908 1 4.979269440991064 24.612674532707562 12.888212883109341 0 -1 1
2851 1 5.058241738540059 29.857041457815928 11.55703172950897 0 -1 0
3532 1 7.1922303826096945 31.35494423458181 9.95011106714317 -1 0 0
4187 1 10.735535923068166 32.34571172776695 13.248535651126598 1 0 0
1891 1 11.024796121312956 29.407319008872225 10.312259435975191 0 0 1
1629 1 10.106392561165718 26.672782650661414 10.515530594880302 0 0 0
926 1 12.334760079605775 29.645276902277132 13.195621042121884 -1 1 1
2564 1 1.848209505117022 28.07004724744482 9.250576453535825 0 -1 1
509 1 5.088018686700196 35.02377213820209 11.11804076154466 0 0 0
4398 1 14.934351899687035 30.252241652153348 13.678080939607202 0 0 0
591 1 0.6956010976895917 37.09731381649734 8.041253103215016 1 0 -1
1909 1 2.5349658315477663 33.05636263815606 10.30957775878308 1 1 1
7 1 5.072629490254065 32.972137842056235 8.537204136894644 0 0 0
2733 1 10.17590461150262 33.889913816364455 10.348996245037325 0 -2 1
3202 1 12.271630593271407 34.73578782887123 16.576695868089434 0 -1 -1
308 1 13.562740144724643 32.94047902753855 12.55022876051327 0 0 1
4186 1 3.772249054320385 38.04117555215727 11.364395460442708 0 0 2
368 1 7.738143541463199 35.18972605383073 10.097113201135857 0 -1 -1
2240 1 11.030150981283526 38.453369231522984 8.819006541738409 1 -1 1
1735 1 13.496984264044928 39.549557360293214 13.493508469787203 1 0 0
3711 1 14.046280204923043 37.68989928433083 15.698684010184921 1 0 -1
3606 1 14.014973364210212 35.57957680707442 11.15588616932805 1 1 0
262 1 4.25600282750547 40.1059925233489 5.648586036804664 0 0 0
386 1 3.9603894673612268 42.774557523383876 11.34191904642605 0 1 0
1420 1 11.089507396211754 41.05192403038196 10.248177968696185 0 0 1
15 1 9.47777334340237 39.135349751476745 14.185820403528849 0 0 0
1811 1 11.191996571383 40.80680731428846 13.128248385010606 0 -1 -1
254 1 15.143399172596974 44.68670132665991 8.305403151153984 0 -1 1
791 1 15.475607014261568 40.734969639226954 12.50311999942693 -1 0 1
1201 1 1.7125501214711183 45.70775819930456 12.639919731185488 1 0 1
2476 1 8.483709538708837 19.358575072452457 24.600345838787348 0 -1 0
3319 1 1.7479467808152254 44.160796009695545 10.167882453258501 0 1 0
3576 1 6.067966565695179 45.865564492049074 9.81982578701958 1 -1 1
569 1 9.440513223014765 42.6362315450814 14.554002634486778 0 0 0
4479 1 11.862566802461924 44.97367671642435 7.67156409974455 0 0 0
3713 1 13.586737247114119 46.0313471791802 10.310691203486494 1 -1 0
3419 1 0.27335045157497906 18.74173221268578 11.409488297722103 1 0 0
4094 1 8.087567705423744 48.08308135902559 10.972474015526535 1 -1 1
3374 1 8.893763922368745 44.66030966668854 8.495229876549233 1 -1 0
4369 1 16.335483067156275 49.31031102195202 9.78845634414582 1 -1 -1
472 1 17.12035992916096 6.295188555136015 6.671673435000843 1 -1 1
3465 1 3.5508914674909535 50.24670269747678 11.86362778154084 1 -1 0
4167 1 5.614948137841929 49.193892810583904 9.143169671633911 2 -2 0
4281 1 8.796726082386952 48.31077120879193 13.65605819011 2 -2 1
3859 1 14.487711838612231 49.09593682301417 7.915576063107604 1 0 0
4295 1 9.052784066098294 48.028070555867316 0.9276224606004964 0 0 2
1480 1 1.8891988945665885 2.3886216041726773 15.020811273231105 0 0 0
4201 1 0.5562465004377191 0.45770759580141074 24.46978326071992 1 0 0
3962 1 4.0521276968645354 1.533206049194043 19.43936607073413 0 0 1
3850 1 10.706075913735232 50.01099921538755 14.365837487209937 1 -1 1
3547 1 9.97453906549179 50.96981049743103 17.078065422890116 0 -1 -1
1091 1 13.930187974597274 2.2359969467171243 14.036717029150488 0 1 -1
1263 1 14.70564666303412 2.762113879052004 16.727038417155185 0 1 0
747 1 4.045965801687473 4.961334637361979 13.509790934833608 1 1 1
2975 1 5.228173113005417 3.864320160431085 18.302756085402706 1 1 0
124 1 7.148776303681577 2.3949008507640874 14.576680311452069 -1 0 -1
2480 1 5.138568214356122 1.3668641819814655 16.52799346636905 1 2 1
2832 1 16.108521045230905 3.6131986466869517 12.316254491500972 1 0 1
595 1 1.2857200358650314 7.95787550105268 12.723006072112193 0 -1 0
234 1 7.642845845162923 5.5668492060971015 14.70610735859495 -1 0 0
4105 1 10.703315736530405 6.513674057915414 13.224263830302043 0 0 0
2000 1 2.173966515233607 12.182496754925706 11.605815089753445 0 1 0
2274 1 0.737678387457253 10.577565639203616 14.100282850087346 0 1 0
4129 1 3.115066511170491 11.019840710987118 15.33102908438479 0 1 0
2107 1 5.212451585522248 8.806382823605157 14.913408030753985 0 1 0
991 1 9.669389356224553 9.453999452947832 15.197456482623087 1 0 0
3400 1 15.941503432881735 7.836496393448173 15.223009402098555 0 -1 -1
1089 1 14.601110683692502 10.809996985334935 18.10456292487469 0 0 0
4067 1 17.050080799899636 8.374796991202807 12.568364245797122 1 1 2
2471 1 0.7824718947134237 13.577017838103169 17.50018957258279 0 0 0
3964 1 2.938304255190362 14.843367214258645 16.47977105267121 1 1 0
588 1 10.670301538766138 12.414499975422851 14.829595553382454 0 2 0
754 1 6.667312707538249 13.828939446774855 14.658720802908944 0 -1 1
2334 1 14.089320892088448 9.75453034593616 12.430190636097723 2 0 1
2460 1 13.76527956303164 9.548270452182223 15.159561423676088 0 0 1
1611 1 1.8700603294416338 15.036525162471161 11.171079127156473 0 1 0
479 1 4.526942138171489 17.992978723409344 15.577848869766141 0 -2 0
3624 1 5.455883149314804 18.373858957903533 11.149186772880055 1 0 0
913 1 12.215568151710322 16.387952402273932 14.912797586497296 0 2 1
2723 1 0.571034287249949 4.200914184133983 6.855601274195151 2 2 1
176 1 16.217451954907588 21.38590224017737 4.293033432954566 1 0 0
2039 1 3.1188645366388346 18.10492241689145 12.618313491899125 1 0 -1
1482 1 8.407715996938656 17.50453945218074 11.597323956415618 0 1 1
4551 1 9.447335951284792 14.733677134363743 15.119653574378635 0 0 1
3601 1 13.48441406839362 18.71176481575834 16.28806003534724 1 0 0
116 1 10.951237708574682 19.026755047932774 11.19030505537202 1 0 0
3174 1 0.8498218840764047 10.23331494594219 7.4623619263349115 0 2 0
200 1 1.9718990002266705 37.42879897381027 5.1156169156729865 0 -1 0
3672 1 16.381460651872775 17.455790318667454 12.951886478544498 1 -1 0
3223 1 1.0250966103294434 17.141586789174877 22.386959660564457 0 0 -1
3835 1 5.289761450794083 24.22839299406401 15.435307195345327 0 0 0
3103 1 5.49396808766103 20.36713298689509 14.740035110583172 0 0 -1
2296 1 8.045265608933908 21.27853372673158 14.426038032468133 1 0 1
3323 1 9.400521682775546 18.991695945780265 14.096784475937477 1 0 0
2671 1 11.856968158264445 20.481104961312713 14.39199388427187 0 1 -1
140 1 17.283850508548326 38.680563707113805 13.595615045412133 0 0 0
2018 1 6.19685110355206 28.154855691291047 13.638475292207804 0 -1 0
2014 1 8.887352160153853 27.77233280253848 13.24706722272517 0 -1 0
3910 1 9.954131367710069 25.435682456486184 15.536937548394148 1 0 1