LAMMPS data file via write_data, version 29 Oct 2020, timestep = 200000

4608 atoms
1 atom types

-0.04990544871089142 57.32041544870943 xlo xhi
-0.04436039885329279 50.95148039885213 ylo yhi
-0.04436039885329279 50.95148039885213 zlo zhi

Masses

1 18.015

Atoms # atomic

29 1 4.554525040773429 1.3589072618714695 1.2139619339173402 0 0 0
25 1 3.0109519955404624 50.866967333547734 2.878029054628631 0 -1 0
285 1 11.115764009258816 1.1707943933206815 1.3922640322886524 0 0 0
351 1 6.546581721510695 12.692980387970113 0.03982666081224967 0 0 0
541 1 17.324516811897023 1.6224983437358864 1.0743958658505464 0 0 0
30 1 1.438973135743224 4.618932199095264 1.4414339239948546 0 0 0
286 1 7.820667611266325 4.819159512789423 1.3931474608451468 0 0 0
1215 1 6.177683459420857 31.972179393445366 25.246021060335366 0 0 0
313 1 9.588086345307653 6.165099989017864 2.9859039298402164 0 0 0
542 1 14.32510200399668 4.75437743084793 1.3585420147853415 0 0 0
569 1 15.677794728098467 6.345104022270652 3.242769893794052 0 0 0
61 1 4.893991996070493 7.733731140979288 1.845858690527669 0 0 0
480 1 9.680192553961605 41.149341837629 0.18522117170458965 0 0 0
317 1 11.205545967495732 8.050791009182422 1.7385169175402493 0 0 0
570 1 12.567366402551876 9.662556100486883 3.5265007314288916 0 0 0
573 1 17.299923790216617 7.797719388880715 1.5250554117356074 0 0 0
146 1 0.15209007781723508 28.81900508872417 9.301938598216582 0 0 0
62 1 1.5948136683394645 10.865487526435015 1.5842153237929828 0 0 0
740 1 17.4793949341127 49.791299963092946 24.036081153673468 0 0 0
318 1 8.075509589155478 11.08386823736768 1.3425181050560178 0 0 0
345 1 9.576559324699708 12.675271769995163 3.430293954804485 0 0 0
574 1 13.879367450806182 10.795116370466525 1.4600311717426728 0 0 0
74 1 0.036064773879353376 16.12861156942215 15.92231886632311 0 0 0
93 1 5.030824849723325 14.251845112018508 1.5795824909090013 0 0 0
2527 1 18.815248416966693 38.22976806298281 25.29817319530159 0 0 0
346 1 6.511624023729658 15.885834372201288 2.971801819096944 0 0 0
349 1 11.118345201894114 14.412822721736465 1.737384881180882 0 0 0
1119 1 6.588633739161081 12.452829500052925 24.982758486083128 0 0 0
602 1 12.929989201617301 15.869059767831029 3.0862584882875135 0 0 0
605 1 17.412603918501414 14.154690676559987 1.3733868816418284 0 0 0
90 1 0.21198030433883736 15.838246021045128 3.4688867506170933 0 0 0
94 1 1.815024368465106 17.43819469662033 1.6639126709970116 0 0 0
800 1 3.0475443768626955 3.1726748628754553 25.072415705438615 0 0 0
121 1 3.054791529804117 19.487391461605476 2.820472775022304 0 0 0
350 1 8.079032264986132 17.516532240086374 1.3874109835259179 0 0 0
377 1 9.670611297975093 19.022324334101405 3.0664733393958716 0 0 0
606 1 14.422969491323906 17.422681114604814 1.4315266560217388 0 0 0
50 1 -0.01495707991821165 9.743986991710248 9.16797587316186 0 0 0
125 1 5.0029159286064555 20.803771292751698 1.3585346003466536 0 0 0
381 1 11.315262615356572 20.58512944977134 1.603729568260731 0 0 0
637 1 17.68584752902918 20.80161639217164 2.132246964766757 0 0 0
151 1 0.1298482656768323 25.485437912211058 6.612744996633673 0 0 0
126 1 1.6331262199969474 23.851849414333763 1.8455332937589288 0 0 0
153 1 3.10581604366478 25.511136073393406 3.4111262765888837 0 0 0
382 1 7.958386546899659 24.01772537801897 1.5708750051341298 0 0 0
119 1 0.24007592031052277 19.386385622729282 6.336978357947523 0 0 0
138 1 -0.018471961488570186 28.800916389689515 15.955662648760079 0 0 0
638 1 14.148863463046844 23.91000019125058 1.7180889548061982 0 0 0
575 1 12.742678101725323 6.594683664577342 0.14625143267606505 0 0 0
665 1 15.97187036640224 25.284998502207614 3.237350854692339 0 0 0
157 1 4.717650946860461 27.274035052467628 1.4920435259906644 0 0 0
410 1 6.285714399210113 28.73403008584928 3.467594619918594 0 0 0
413 1 10.964680328742643 26.534196747762348 1.5344099546504333 0 0 0
1023 1 -0.01582276937586196 44.06933915646935 25.403247162469224 0 0 0
669 1 17.431515106756446 26.797002013879357 1.5845424432507729 0 0 0
158 1 1.6133243241975006 30.00992042119188 1.7860173556544354 0 0 0
414 1 7.80645162471437 30.356995828163466 2.02958873399996 0 0 0
1312 1 15.903443153127656 3.0920359242036084 25.255260673333137 0 0 0
247 1 0.04392455408110518 44.704268070667496 6.26609840768135 0 0 0
670 1 14.48312871847752 30.074386667914307 1.6858900258129894 0 0 0
189 1 4.676899791811967 33.65456942658606 1.2628748492649435 0 0 0
442 1 6.213050445222178 35.08622100073561 3.119671394089935 0 0 0
445 1 11.307962008805434 33.41216845867037 1.7487157406473228 0 0 0
697 1 16.13633392606836 31.880168255070966 3.2543429716889123 0 0 0
701 1 17.613516794742683 33.47157770622244 1.4257199255242992 0 0 0
190 1 1.5597139818558958 36.72807331001872 1.4722601836244518 0 0 0
446 1 7.997736550994279 36.41411313820075 1.8043094787621037 0 0 0
473 1 9.309904831409886 38.12960636825217 3.2225145783758604 0 0 0
447 1 6.294483912671597 31.694656851910693 0.10277734806061647 0 0 0
702 1 14.457718538273346 36.21283044134075 1.568153353537465 0 0 0
698 1 12.846383178294746 35.040813131242714 3.431266937419016 0 0 0
729 1 15.827754340985845 38.36543568336159 3.0684322653638088 0 0 0
221 1 4.987658443113814 39.71900729412876 1.367403587025935 0 0 0
210 1 0.029127337429477235 41.83820622263658 9.30255346730698 0 0 0
477 1 11.393479690796065 39.293349746459434 1.8557332297167202 0 0 0
730 1 12.349748293434878 41.115784570604625 3.5254485778575804 0 0 0
384 1 9.504548420327845 22.296054586561304 0.09047009429986105 0 0 0
733 1 17.667703058400793 39.9078139406898 1.7658553545319755 0 0 0
222 1 1.4110810208835856 42.863157356035906 1.664221998381829 0 0 0
640 1 15.78188896839363 22.329086966494835 0.19228006474550935 0 0 0
249 1 3.2726317370537914 44.624219567181584 3.031585053693409 0 0 0
103 1 0.20634049927556303 19.042064025613332 19.205245097400446 0 0 0
478 1 8.091752193152752 42.73501096802581 1.7157625914639734 0 0 0
734 1 13.979876258876594 42.623491236182055 1.9096603443279938 0 0 0
761 1 15.74641508220076 44.153765355953176 3.29163878469898 0 0 0
484 1 11.254373169588401 49.68422192063881 23.782729383329254 0 0 0
253 1 4.8551572545839745 45.84546587614281 1.3834266940130533 0 0 0
226 1 0.1652914704753852 48.51872255529929 22.460879679507325 0 0 0
114 1 0.10748563773396141 22.222184685683548 9.437590397753528 0 0 0
509 1 11.242229655075894 46.16968170965084 1.6446319210045364 0 0 0
762 1 12.747379051754725 47.45619374751908 3.4756796464413013 0 0 0
765 1 17.073763021830448 45.66165220326884 1.5462051363300766 0 0 0
254 1 1.4041783447067735 49.1284166295478 1.461644008873762 0 0 0
510 1 7.790269443542577 49.14842524892734 1.347630807887428 0 0 0
1743 1 19.000102219160233 38.200738458225814 12.832847799472408 0 0 0
766 1 14.354647602721112 48.96044198331587 1.5411972258919573 0 0 0
239 1 0.2530464684553018 44.74839252115619 13.00284704817033 0 0 0
537 1 15.859144803485588 50.78859382037113 3.151876918563312 0 -1 0
87 1 0.06439099219742463 12.715795356130288 6.19024079521126 0 0 0
27 1 1.4947296402011767 1.2264121729766027 4.4065086060410765 0 0 0
283 1 7.56877226037043 1.5286817203239655 4.516446228318926 0 0 0
280 1 9.30320176125071 2.836144654228307 6.143648407599696 0 0 0
538 1 12.86995103199792 2.993290682291983 2.88920735694742 0 0 0
539 1 14.26105125221224 1.571111413246262 4.537286073379856 0 0 0
282 1 6.102323311686042 2.949298763931327 2.711599589063343 0 0 0
28 1 4.541141385172723 4.390013904234339 4.354977935052968 0 0 0
284 1 10.989787698639141 4.517409582770091 4.455996241268749 0 0 0
567 1 12.827145688916557 6.164737017663975 5.914250869190779 0 0 0
536 1 15.747173972900555 3.069683804559734 6.290498579985581 0 0 0
540 1 17.54750306320663 4.613172221796775 4.909673460719436 0 0 0
57 1 3.2508124200855697 6.113486244050038 2.8959041300034434 0 0 0
59 1 2.3466502858554414 7.8591488810693715 4.867451152178994 0 0 0
311 1 6.231947830192125 6.1145079917064304 6.003050015374339 0 0 0
56 1 3.5576880838828395 9.495889396248156 6.499054731505132 0 0 0
314 1 6.400212587335697 9.85013907134601 3.1424040505183184 0 0 0
315 1 7.811194541928242 7.704799534277739 4.4018431044053274 0 0 0
312 1 9.177553783176005 9.477861066428737 6.312092774263515 0 0 0
571 1 14.464610936175756 8.365682243734154 4.774009651316972 0 0 0
568 1 15.96402219280603 9.731254950117966 6.764177670228882 0 0 0
89 1 3.2295199587162005 12.76151256509491 3.1294212156572394 0 0 0
60 1 4.847050311432484 11.156288898294033 4.777231730751177 0 0 0
316 1 11.137818207602002 11.105354834495868 5.206806020691575 0 0 0
601 1 15.894791862607265 12.531370995233889 3.0100429461191323 0 0 0
572 1 17.433676726840165 11.16864078820237 4.690447433313214 0 0 0
91 1 1.8111675493030415 14.456828082127327 4.8991189640535 0 0 0
347 1 8.16253498112338 14.348096034035576 4.690849684088752 0 0 0
603 1 14.28409468290277 14.334900447337958 4.809667738558634 0 0 0
1703 1 18.910415929510023 32.576951538319555 19.306587242725097 0 0 0
88 1 3.2775213435827593 16.322183499060188 6.001087283845165 0 0 0
92 1 5.096863195891316 17.75277194029544 4.234444792952731 0 0 0
348 1 11.267655857397779 17.266647790676213 4.674740506617203 0 0 0
633 1 15.855335276806583 18.955143444523106 3.2864179303634735 0 0 0
604 1 17.711580130809438 17.400644363146306 4.7193457469522215 0 0 0
123 1 1.4280253417568674 20.924210903020214 4.682993047364819 0 0 0
378 1 6.297973895344263 22.411341796545383 3.1214259945231713 0 0 0
379 1 7.84752354732976 20.64761722488871 4.431397870164886 0 0 0
634 1 12.515898211746666 22.236327274504013 3.4026430625575723 0 0 0
635 1 14.274944036594917 20.85324559714524 4.736823828335847 0 0 0
124 1 4.710602968303645 23.961349256609438 4.808021717628814 0 0 0
120 1 2.8489272773178334 22.674151470041277 6.116057180586202 0 0 0
409 1 9.453613478816447 25.166980705177586 3.2338022987679014 0 0 0
380 1 11.051999336720279 23.77666856399058 5.053659358941069 0 0 0
636 1 18.014884955066275 23.84670885151126 4.955732136735204 0 0 0
155 1 1.5228108700809528 27.12084036981277 5.017897502413299 0 0 0
1120 1 9.676185799809723 16.40884632904005 25.21808461707931 0 0 0
411 1 8.018100562092926 27.077957433278545 4.831176988512471 0 0 0
407 1 6.230483341467336 25.685379568755014 6.538592036493324 0 0 0
667 1 14.256709232354082 26.881149382038878 4.715024855009548 0 0 0
666 1 12.475788565114627 28.45134126519383 3.1069689331863666 0 0 0
156 1 4.849099572303588 30.37257947594916 4.919204519509583 0 0 0
152 1 3.215667035924204 28.776789103286607 6.681604265631004 0 0 0
408 1 9.58119621547584 28.777873824209898 6.317275443048327 0 0 0
439 1 6.5744661699164855 32.073911840503754 6.217398670515131 0 0 0
412 1 11.099928640431092 30.096508459033544 4.65880413400273 0 0 0
668 1 17.487884926757175 29.907051408656653 4.526474123689225 0 0 0
58 1 0.2406042532968618 9.292032170042939 3.4331591963156245 0 0 0
187 1 1.800423311704806 33.51666208603028 4.746824429803969 0 0 0
185 1 3.288164860080885 31.783681837712557 3.06665587351299 0 0 0
443 1 8.05625621072661 33.59221162739442 4.521558901599018 0 0 0
441 1 9.689514188852229 31.81653544000118 3.2329910322818733 0 0 0
699 1 14.315443701190807 33.37854617755701 5.126701553323646 0 0 0
217 1 3.425881594127346 38.1968754367396 3.2633249802836413 0 0 0
188 1 4.684154509086937 36.352521831606445 4.981362768228775 0 0 0
471 1 6.224565868322465 37.92348762134996 6.588999147105849 0 0 0
444 1 11.371088054318973 36.984154668020096 4.65971315525901 0 0 0
727 1 12.696775607438001 38.35222670156782 6.658706763703619 0 0 0
700 1 17.115104279943438 36.16365484332931 4.414006022160697 0 0 0
696 1 15.919635203755094 34.901687075157376 6.478225582777448 0 0 0
219 1 1.6378621136319766 39.507787452029945 4.662088465857373 0 0 0
475 1 7.875753633757092 39.59772452706636 4.912159680445861 0 0 0
731 1 14.330894987427701 39.82370131032522 5.239594261726878 0 0 0
728 1 15.939449293856784 41.50554707411989 6.28292383238741 0 0 0
220 1 4.820050905692074 43.11727540533868 4.610694978924113 0 0 0
474 1 6.637160581614483 41.53725048412653 3.321186380395733 0 0 0
476 1 10.844237542809394 42.565212641744125 4.86062857642709 0 0 0
759 1 12.752121989249227 44.55810123939357 5.862854211035547 0 0 0
732 1 17.60094297381064 42.88348138156835 4.735092389028445 0 0 0
251 1 1.7483240134921234 46.06417050172254 4.701048895276616 0 0 0
506 1 6.339217062558221 47.77326732878527 3.0888757377923537 0 0 0
507 1 8.07592159925624 46.22259538401477 4.587067454953137 0 0 0
505 1 9.616371078100904 44.422389382501976 3.1421055623321736 0 0 0
763 1 14.46356193146258 45.91126868957887 4.8394874923352456 0 0 0
760 1 15.861502268484083 48.138360667397926 6.398909081911115 0 0 0
252 1 4.637213966708389 49.452289583845904 4.642444926088431 0 0 0
281 1 9.511157375672713 50.70778772603953 2.970826791288722 0 -1 0
508 1 11.16744201086801 49.160731984639014 4.601907054426217 0 0 0
1536 1 15.94683923622857 47.898612855354784 25.090986030745313 0 0 0
764 1 17.35641011308337 49.4454846908612 4.564929783013274 0 0 0
21 1 4.971567298771453 1.1456669670940673 7.95319539946956 0 0 0
277 1 11.007062900712405 1.461235426836896 7.888303802131665 0 0 0
533 1 17.118493788573257 1.3210772898408973 8.070970785965804 0 0 0
2431 1 18.918430762844853 19.16322285906682 25.181477605411303 0 0 0
24 1 3.1702180586104793 2.4853036501984542 6.455860786395343 0 0 0
22 1 1.4262787488656496 4.550782907819475 7.775890155476272 0 0 0
274 1 6.466635514078277 2.939146715828145 9.141425571186824 0 0 0
278 1 8.125680430721575 4.812239292113998 7.656246039791468 0 0 0
305 1 9.784387104672742 6.332016586736065 9.086412599469265 0 0 0
534 1 14.277620503206974 4.88635951142575 7.730089096662159 0 0 0
561 1 15.735714751038016 6.57545924761951 9.451100433884925 0 0 0
178 1 0.07529953840891324 35.20244022942221 9.477644928111221 0 0 0
49 1 3.2005309394887984 6.348679559525919 9.087875616026702 0 0 0
53 1 5.2630118110155895 7.835141764605026 7.877176798300314 0 0 0
309 1 11.420819480850133 8.086299686250305 7.631290591748922 0 0 0
565 1 17.559872028284712 7.9760822169818475 8.029527672196117 0 0 0
54 1 1.915060488558287 11.407689827768522 7.762936222682867 0 0 0
310 1 7.935614965838814 11.146935717445643 7.720759325864695 0 0 0
599 1 13.087368165419806 12.392301602840321 6.292360551720207 0 0 0
566 1 14.64607966331496 11.540889178564688 8.402161176016584 0 0 0
593 1 16.174364233189166 13.299217396357438 9.80654544093532 0 0 0
55 1 0.3208753479400812 6.43514227965596 5.931145577262727 0 0 0
85 1 4.781193355163027 14.09726952466221 7.3758514312253025 0 0 0
343 1 6.471906401088363 12.5504141166055 6.034591752393007 0 0 0
344 1 9.49326005651196 15.632024532465556 6.5917433545968525 0 0 0
341 1 11.608305941918463 14.39203299742127 7.695095980049554 0 0 0
337 1 9.782083765769402 12.656384690084336 9.268201377601805 0 0 0
597 1 17.723850109446616 14.357382563376774 7.941973222524387 0 0 0
1770 1 18.787487916747082 47.78886142316422 15.820075985314414 0 0 0
86 1 1.6665465735124991 17.56241015590446 8.00641011626268 0 0 0
375 1 6.224626313538875 19.136989496174493 6.331364424999454 0 0 0
342 1 7.638465167267167 17.423031541331618 8.03625599896957 0 0 0
369 1 9.366804894579273 18.87578767508136 9.297047187575041 0 0 0
600 1 16.122260171882722 15.717258461242748 6.098985690732589 0 0 0
598 1 14.557446660456112 17.551756568254767 7.560032579873093 0 0 0
631 1 12.872705287650962 19.018688288051194 6.202975581818346 0 0 0
113 1 3.4270058878296497 19.123259271496593 9.296555510659894 0 0 0
117 1 4.501298121109424 20.932125962447504 7.44221005238445 0 0 0
373 1 11.022030522024 20.538013308750063 7.820286289694993 0 0 0
629 1 17.238198604209906 20.888425803085756 7.970826757564678 0 0 0
1538 1 18.975623524498406 3.07039167824083 22.14599513334737 0 0 0
118 1 1.7928968632931834 24.167305654417913 8.34506644840889 0 0 0
376 1 9.199968804343145 22.130600178437746 6.422976812849208 0 0 0
370 1 6.549271686088077 22.160193200576973 9.512823727651275 0 0 0
374 1 7.74667812831051 23.728964210346092 7.892204036443158 0 0 0
626 1 12.56372505451259 22.165935779058398 9.45128529568289 0 0 0
630 1 13.90457185358208 24.055130830254726 7.617560038959413 0 0 0
632 1 15.941365050693955 22.449624584915796 6.237175914219299 0 0 0
145 1 3.418242817201436 25.632989024420233 9.776953718587173 0 0 0
149 1 4.812699352453293 27.2684964767005 8.098958855001973 0 0 0
405 1 10.78015305211009 27.12547146012579 8.162415899496333 0 0 0
663 1 12.524024845505615 25.766869565091756 6.364925555322662 0 0 0
661 1 17.599671710074407 26.82892091386525 7.884300245743611 0 0 0
98 1 0.33771033037895154 22.2400862230417 22.111611769219483 0 0 0
150 1 1.6324639767441556 30.528507804836334 7.822822803075179 0 0 0
402 1 6.353112456966165 28.76392987939631 9.641704425258988 0 0 0
406 1 7.929727189656049 30.66789744005705 7.8549524128376955 0 0 0
662 1 14.617197968209766 30.16624169922221 7.918278507783608 0 0 0
664 1 16.004028544911613 28.42300239566476 6.430902070209058 0 0 0
181 1 4.7845083317786266 33.40510304236 7.862666289969337 0 0 0
437 1 11.357862589017754 33.79610495997928 7.698610728761809 0 0 0
440 1 9.487726275906962 35.58786670632366 5.934863662758858 0 0 0
695 1 12.581506868816348 31.816126693315923 6.39921013770247 0 0 0
693 1 17.46040137228317 33.52626226427652 7.822514455350385 0 0 0
182 1 1.6739710524493163 36.72453726854091 7.77844563075649 0 0 0
184 1 3.1831766899437004 35.00419258767768 6.382302864243281 0 0 0
438 1 7.918044624076297 36.810028564889244 8.030387632357536 0 0 0
694 1 14.405945423005756 36.580921803931204 7.778273129378761 0 0 0
216 1 3.5007809322588552 41.1131364098781 6.161259570847921 0 0 0
213 1 4.9412350447455715 39.645210901586985 8.018478513056259 0 0 0
466 1 6.361892092209632 41.47491124423319 9.696911660906125 0 0 0
469 1 11.055120900883532 39.83222886454236 8.24145624180644 0 0 0
725 1 17.420578278126204 39.60352041351047 7.949506155443046 0 0 0
214 1 1.8496409464631138 42.809607744025875 7.610282597162821 0 0 0
1280 1 9.638774446303934 48.22438993127885 25.248847716659867 0 0 0
472 1 9.23249298221018 41.20949142730593 6.66201612767569 0 0 0
470 1 7.814389255501792 43.27163755084099 8.082387451526824 0 0 0
497 1 9.461500369838515 44.857607954821134 9.572693096724226 0 0 0
726 1 14.284109434362318 43.21283324992491 7.624647789269389 0 0 0
248 1 3.08979715181676 47.81978617992865 6.023755444822686 0 0 0
503 1 6.607374036652719 44.72220241631845 6.287653578997182 0 0 0
245 1 4.972809845452771 46.38498135050761 7.720220784968179 0 0 0
504 1 9.857663387201274 47.697934573703094 6.375049522138336 0 0 0
501 1 11.132351919103401 45.946526057520806 7.691286824051119 0 0 0
754 1 12.710691964568246 47.38190657237934 9.436452205250676 0 0 0
753 1 15.844678331228701 44.5903508814717 9.074516131767554 0 0 0
757 1 17.477353716112372 46.317339662615474 7.659198203403595 0 0 0
246 1 1.4740619168670552 49.45605821011434 7.688778669681879 0 0 0
279 1 6.335309856959295 50.63030459082404 6.267028311309035 0 -1 0
17 1 3.3762179640003085 50.7824063511336 9.647011726957214 0 -1 0
502 1 7.978330025678908 49.01839216881884 8.103745462353938 0 0 0
273 1 9.542451273971741 50.629143342880155 9.512552544579416 0 -1 0
535 1 12.388500555577968 50.80723990636944 6.31732518634547 0 -1 0
758 1 14.057845540587653 49.13828848290544 8.006492785606323 0 0 0
19 1 1.5719772589254435 1.1871391908309585 11.295031872829318 0 0 0
275 1 8.049920930508202 1.6431743678585429 10.944634974644616 0 0 0
272 1 9.645481662520904 3.4590101162581632 12.364335492555595 0 0 0
527 1 12.780530474458036 50.70343638318495 12.551305355559101 0 -1 0
531 1 14.28719794150768 1.6283245786238265 10.971004536036835 0 0 0
528 1 15.87084023125745 3.3741976559487497 12.341571921020757 0 0 0
242 1 0.38562377415565785 47.40577225266078 9.151280285936366 0 0 0
20 1 4.730161849841481 4.600431155111347 10.740264377465362 0 0 0
530 1 12.934933518368128 3.158996182155979 9.193650968355465 0 0 0
276 1 11.136536742296613 4.6379694316562965 10.674370990256268 0 0 0
559 1 12.77660552494107 6.298344532519999 12.472220514530862 0 0 0
532 1 17.47475632830981 5.012713812271317 10.680651041805193 0 0 0
47 1 0.10853336131874847 6.099855060210212 12.574110676406509 0 0 0
51 1 1.5485549711339595 8.014874314100673 10.848699830868817 0 0 0
48 1 3.2777041090925363 9.529341667127044 12.469067616304924 0 0 0
307 1 8.238377761313032 7.7042921564040645 11.060972592208104 0 0 0
562 1 12.9204686516146 9.810912013422925 9.555718211782764 0 0 0
563 1 14.358258642284692 8.082702667064428 11.023314142367099 0 0 0
186 1 0.14155745309583112 34.91452416151386 3.160126098070143 0 0 0
52 1 4.551249775687192 11.203596006329631 10.721904385315353 0 0 0
306 1 6.955077582238789 9.611031368886797 9.542502290854209 0 0 0
304 1 9.693304876839427 9.244282926649433 12.41246344791154 0 0 0
308 1 11.164866127595264 11.301195764941125 10.981594797579154 0 0 0
560 1 15.892135395030033 9.669564133037564 12.224243001043654 0 0 0
71 1 0.10830261196168353 12.576062203485613 19.046709522172005 0 0 0
564 1 17.682760611798386 11.435912493392225 11.404978509631798 0 0 0
83 1 1.3404793258947738 14.417250011174653 11.22148974192024 0 0 0
81 1 3.0745751408125033 13.057689672591703 9.41867063746553 0 0 0
338 1 6.11233802019205 15.469307794818748 9.605558335205039 0 0 0
339 1 7.918143903440552 14.177255143943471 10.946915263845062 0 0 0
335 1 6.277033198892171 12.733346780598923 12.178291245178158 0 0 0
594 1 12.903599930792463 15.889796018464756 9.549391265891327 0 0 0
595 1 14.364823108118264 14.607609013924126 11.344858126719569 0 0 0
80 1 3.236700906378019 16.042154284454423 12.91413952257675 0 0 0
84 1 4.867600501741151 17.4978795695088 10.932171494179144 0 0 0
340 1 11.07359936092809 17.37596438192203 11.158714889732801 0 0 0
623 1 12.616779640662884 19.062421169848296 12.708181780879084 0 0 0
596 1 17.04135209170987 17.519330501893897 11.387114702763945 0 0 0
202 1 0.017092912175656907 41.73505644277331 16.159964785466354 0 0 0
228 1 4.713910385397398 49.39818925983271 23.852772479368582 0 0 0
115 1 1.4888315652300415 20.352179941693418 11.12547227934886 0 0 0
371 1 8.288192814171763 20.69401898962042 11.21525494248907 0 0 0
627 1 14.303609356202353 20.60874622492257 11.124643079112808 0 0 0
625 1 15.788595645052013 19.136370955257124 9.400592714948564 0 0 0
1440 1 16.015419657616448 28.27168096383833 25.38380097620879 0 0 0
116 1 5.034741792994101 23.780357300708886 11.34815813015239 0 0 0
112 1 3.2920654998738534 22.15969720631428 12.657337297223457 0 0 0
401 1 9.565392231892064 25.033833282285492 9.489471275354765 0 0 0
372 1 11.416162806663909 24.04875908304157 11.201178350557539 0 0 0
655 1 13.162642117179676 25.761784761184863 12.963243350679514 0 0 0
628 1 17.547136669561134 23.23836713848775 10.761197142661505 0 0 0
147 1 1.9685598793428474 27.629159802911012 11.069532497968986 0 0 0
403 1 8.343330360194924 27.048498655514106 10.918534774747883 0 0 0
658 1 12.888841939317341 28.536588187201243 9.246969440684541 0 0 0
659 1 14.472471701784494 27.198682831056274 10.97100004686076 0 0 0
657 1 16.02489902854613 25.11563292334274 9.225276815496777 0 0 0
148 1 4.530322358458906 30.546551750171453 10.892649102640393 0 0 0
404 1 11.31469373392047 30.515496032953365 10.851976411072732 0 0 0
687 1 12.861390452419895 31.834309508681862 12.656465320251838 0 0 0
660 1 17.433994341809413 30.164758748122523 11.095453164251218 0 0 0
739 1 13.883013913850249 46.189998564292885 23.88253631878507 0 0 0
18 1 0.08460261067224059 2.7165635871045035 9.92420257415083 0 0 0
179 1 1.3293278658539796 33.312008597271095 11.192055964932273 0 0 0
177 1 3.2232233529639593 32.0216151251656 9.35430649259923 0 0 0
433 1 9.834306325813433 32.01302348630411 9.257284299651127 0 0 0
435 1 7.992538145753221 33.45345922098112 10.72907829529701 0 0 0
691 1 14.261982081644579 33.37202838575228 10.970773443280294 0 0 0
689 1 16.073006486975693 32.004344549575585 9.528255042189937 0 0 0
162 1 -0.04323757221612823 35.09415097175165 22.266997120359026 0 0 0
209 1 2.947971759517462 38.60404933434848 9.65331617602513 0 0 0
180 1 4.417543888498786 36.80446708070163 11.09898605895643 0 0 0
434 1 6.014576142584958 35.15362453705807 9.53413575539097 0 0 0
465 1 9.384245555521563 38.423094871600064 9.575157503833418 0 0 0
436 1 10.806108928644013 36.753204840856945 11.002371095876372 0 0 0
690 1 12.984902437518604 35.14271868469034 9.408323941337214 0 0 0
692 1 17.512355687660317 36.76293869808833 10.859305847479657 0 0 0
721 1 15.745676027078698 38.077619233029196 9.448252469418197 0 0 0
211 1 1.2319898758332621 40.05381785970911 11.070421183874162 0 0 0
208 1 3.220019223172438 41.0896020156962 12.796871733679636 0 0 0
467 1 7.681632518830874 39.97519124446127 11.415700464207248 0 0 0
722 1 12.395905455742353 41.852022082985535 9.435641768955968 0 0 0
723 1 13.834411614549994 39.85091477455441 10.93507025681334 0 0 0
79 1 0.12723762443000688 12.526011681044263 12.650896163108294 0 0 0
212 1 4.714589013005277 43.07130318106534 11.18277741683729 0 0 0
495 1 6.236704719150785 44.91111829272729 12.771282916896984 0 0 0
468 1 11.123726416508976 43.22318056199347 11.370443292997182 0 0 0
751 1 12.851272184046431 44.39582054093463 12.985584544779119 0 0 0
720 1 15.738404076577636 41.08444775742292 12.22216653972679 0 0 0
724 1 17.219404602351847 42.93584149143047 10.65395725025666 0 0 0
243 1 1.6723999613202936 45.876033952731156 11.121649498913362 0 0 0
241 1 3.2212472954938014 44.33966392372743 9.248419507853802 0 0 0
498 1 6.356232842111343 47.747401049427275 9.700037006893638 0 0 0
499 1 7.929861404651411 46.433865556655505 11.576723239967244 0 0 0
755 1 14.424883772902591 46.043432041270314 11.221253673587592 0 0 0
752 1 15.780874023812634 47.72861268319754 12.706616777355391 0 0 0
482 1 6.41924302656209 48.01110907373659 22.340941309896895 0 0 0
244 1 5.02357324449265 49.335513320870255 11.586261008293318 0 0 0
500 1 11.340506250452727 48.94153706098012 11.022424733151945 0 0 0
529 1 15.561394582963159 50.734917597542015 9.357053089939152 0 -1 0
756 1 17.002458658343578 49.38312738267708 11.221779524122464 0 0 0
13 1 4.7258097782226 1.87393693174848 14.31958439539933 0 0 0
269 1 11.152703933778124 1.4266382996500862 13.962809596180572 0 0 0
522 1 12.614870013134164 2.924313741240418 15.6431128708503 0 0 0
525 1 17.414027854267292 1.9968875890944604 14.097973746852315 0 0 0
2 1 -0.049710608694192575 3.4010347616772107 22.112924207216928 0 0 0
14 1 1.9001318540236427 4.653264928824628 14.268051163919669 0 0 0
303 1 6.289697186564631 6.118830129930508 12.379360588784383 0 0 0
16 1 3.3223216922659877 3.0460826090734137 12.453272111877272 0 0 0
270 1 7.856002995303553 4.841495528576451 14.126348752230278 0 0 0
526 1 14.054880069972787 4.737701616215961 13.895281160702392 0 0 0
553 1 15.843469808573564 6.356904511107047 15.407885217292375 0 0 0
45 1 5.0365515886574075 7.872502419380166 14.043894029960347 0 0 0
301 1 11.145674453486643 7.831228085506783 14.306412535270878 0 0 0
483 1 7.979438276375898 46.42057170532904 23.919980683159622 0 0 0
557 1 17.521588755625633 8.094437929033381 13.90430785649595 0 0 0
46 1 1.713341783380273 10.96891624770203 14.218044365501374 0 0 0
302 1 7.821957857252434 11.15469931653119 13.645340876714435 0 0 0
591 1 12.758007958212396 12.733939855607645 12.592361595678225 0 0 0
558 1 14.259630438011518 11.167350398683313 14.08293030320275 0 0 0
106 1 0.21008095823639683 22.435330476303772 15.714279643228744 0 0 0
77 1 4.940013752231945 14.162078363925886 13.985098738287116 0 0 0
73 1 3.202465137660828 12.665561141372974 15.809772896330161 0 0 0
333 1 11.215923120261817 14.064587742844662 14.127600384596901 0 0 0
329 1 9.386388467952692 12.45689355469658 15.499785660031206 0 0 0
592 1 15.774301247810225 16.343945236912944 13.238389755099083 0 0 0
589 1 17.50201465080593 14.711482718315146 14.825711850843366 0 0 0
135 1 0.07837156510671806 25.523966452166604 19.133312399996427 0 0 0
78 1 1.805941502066549 17.58931258445239 14.383813368699549 0 0 0
105 1 3.1148483276741183 19.666569785759894 15.786674396060976 0 0 0
334 1 8.00645094511328 17.628127260968082 14.33502550471297 0 0 0
336 1 9.453742138511092 15.852747414358273 12.748460924480069 0 0 0
586 1 12.908260360755579 15.703311512297818 16.0979351467546 0 0 0
590 1 13.996618965480076 17.802986464917968 14.928896597399362 0 0 0
864 1 3.0504521928777617 15.377564136728878 25.29663823584293 0 0 0
109 1 5.101204039089137 21.128290710701183 14.21286085526781 0 0 0
367 1 6.590781782282054 19.435256128907433 12.774754277391454 0 0 0
368 1 9.796143623553395 22.580744113804577 12.505093707881235 0 0 0
365 1 11.040478172923741 20.806272381504247 14.442800780077308 0 0 0
618 1 12.869996853793973 22.338704746369388 15.737937809002005 0 0 0
624 1 16.19692166164102 21.979117905002287 12.776144998022321 0 0 0
617 1 16.155250097230326 19.85733535974283 15.91424666071333 0 0 0
227 1 1.6066007426696831 46.463977872099406 23.861662318331682 0 0 0
621 1 18.09723588832356 20.830233118943017 14.24592181053236 0 0 0
110 1 2.002159939643825 24.005812608019742 14.18767354100439 0 0 0
362 1 6.616967201813417 22.76242713692343 15.850398623428386 0 0 0
366 1 8.334830168297882 24.05490875809322 14.428317543091241 0 0 0
393 1 9.64271652229959 25.94285952618717 16.068456195479804 0 0 0
622 1 14.68464420344309 23.740725288366793 14.164343859408833 0 0 0
649 1 16.007942836946782 25.447997325114194 15.856236996793736 0 0 0
450 1 6.320904542962921 41.34548551348472 22.50132839754072 0 0 0
141 1 4.779616967442825 26.954579233075528 14.174655560064226 0 0 0
399 1 6.749192436775109 25.680338107589115 12.76978611391714 0 0 0
397 1 11.315468134636578 27.509210631561977 14.165647704615287 0 0 0
400 1 9.479790006995847 29.00848727458457 12.303216679332635 0 0 0
653 1 17.25807823700909 26.8958827120366 14.013601626101984 0 0 0
143 1 0.3632014301741636 25.573395085226974 12.716993605684198 0 0 0
142 1 1.7230759721559965 30.527866964819452 14.529040246154732 0 0 0
144 1 3.317602734201262 29.110646626403906 12.676656298772732 0 0 0
398 1 7.796237803937529 30.343284640536666 13.94867543272018 0 0 0