
# Create simulation box of size 50 x 50 x 50 Angstrom
#
lattice	            sc 1
Lattice spacing in x,y,z = 1.0000000 1.0000000 1.0000000
region 	            all block 0 ${X} ${YZ_LO} ${YZ_HI} ${YZ_LO} ${YZ_HI} units box
region 	            all block 0 53.4 ${YZ_LO} ${YZ_HI} ${YZ_LO} ${YZ_HI} units box
region 	            all block 0 53.4 -0.04436039885329279.0 ${YZ_HI} ${YZ_LO} ${YZ_HI} units box
region 	            all block 0 53.4 -0.04436039885329279.0 50.95148039885213.0 ${YZ_LO} ${YZ_HI} units box
region 	            all block 0 53.4 -0.04436039885329279.0 50.95148039885213.0 -0.04436039885329279.0 ${YZ_HI} units box
region 	            all block 0 53.4 -0.04436039885329279.0 50.95148039885213.0 -0.04436039885329279.0 50.95148039885213.0 units box
create_box          1 all
Created orthogonal box = (0.0000000 -0.044360399 -0.044360399) to (53.400000 50.951480 50.951480)
  3 by 1 by 2 MPI processor grid

# fill box with 4175 randomly distributed atoms
#
create_atoms        1 random 4608 63782 all
Created 4608 atoms
  create_atoms CPU = 0.001 seconds
mass                1 18.015

# Define potential
#
pair_style          sw
pair_coeff          * * /data/emrosky-sim/Freezing_Simulations/Melting/MLmW_fancy/ML_mW.sw mW
Reading sw potential file /data/emrosky-sim/Freezing_Simulations/Melting/MLmW_fancy/ML_mW.sw with DATE: 2019-02-27

# Run minimization
#
minimize            1.0e-8 1.0e-8 10000 1000
WARNING: Using 'neigh_modify every 1 delay 0 check yes' setting during minimization (../min.cpp:187)
Neighbor list info ...
  update every 1 steps, delay 0 steps, check yes
  max neighbors/atom: 2000, page size: 100000
  master list distance cutoff = 6.0032907
  ghost atom cutoff = 6.0032907
  binsize = 3.0016454, bins = 18 17 17
  1 neighbor lists, perpetual/occasional/extra = 1 0 0
  (1) pair sw, perpetual
      attributes: full, newton on
      pair build: full/bin/atomonly
      stencil: full/bin/3d
      bin: standard
Per MPI rank memory allocation (min/avg/max) = 4.234 | 4.248 | 4.253 Mbytes
Step Temp E_pair E_mol TotEng Press 
       0            0      7230928            0      7230928    4949030.6 
     644            0   -49840.205            0   -49840.205   -452.40942 
Loop time of 1.20878 on 6 procs for 644 steps with 4608 atoms

99.2% CPU use with 6 MPI tasks x no OpenMP threads

Minimization stats:
  Stopping criterion = max force evaluations
  Energy initial, next-to-last, final = 
      7230928.04067903  -49840.0962283527  -49840.2051304405
  Force two-norm initial, final = 1.6615063e+08 2.4744404
  Force max component initial, final = 88391846.0 0.48117683
  Final line search alpha, max atom move = 0.064830182 0.031194782
  Iterations, force evaluations = 644 1001

MPI task timing breakdown:
Section |  min time  |  avg time  |  max time  |%varavg| %total
---------------------------------------------------------------
Pair    | 0.99814    | 1.051      | 1.1238     |   4.9 | 86.95
Neigh   | 0.025103   | 0.025858   | 0.026483   |   0.3 |  2.14
Comm    | 0.037712   | 0.111      | 0.16362    |  15.1 |  9.18
Output  | 0          | 0          | 0          |   0.0 |  0.00
Modify  | 0          | 0          | 0          |   0.0 |  0.00
Other   |            | 0.02093    |            |       |  1.73

Nlocal:        768.000 ave         788 max         753 min
Histogram: 2 1 0 0 0 1 0 0 1 1
Nghost:        1573.00 ave        1596 max        1552 min
Histogram: 1 0 1 1 0 1 0 1 0 1
Neighs:        0.00000 ave           0 max           0 min
Histogram: 6 0 0 0 0 0 0 0 0 0
FullNghs:      21910.3 ave       22734 max       21239 min
Histogram: 2 1 0 0 0 1 0 0 0 2

Total # of neighbors = 131462
Ave neighs/atom = 28.529080
Neighbor list builds = 25
Dangerous builds = 0

# Add velocity/set timestep
#
velocity            all create ${TEMP} 120598 rot yes dist gaussian
velocity            all create 294 120598 rot yes dist gaussian
timestep            5.0

# Define output
#
compute	            1 all msd
thermo	            100
thermo_style        custom step temp press vol etotal ke pe c_1[4] density

# Neighbor lists
#
neigh_modify        delay 0 every 1 check yes

# Set fixes
#
fix                 1 all momentum 10 linear 1 1 1 rescale
fix                 2 all nve
fix                 3 all temp/csvr ${TEMP} ${TEMP} 500.0 928347
fix                 3 all temp/csvr 294 ${TEMP} 500.0 928347
fix                 3 all temp/csvr 294 294 500.0 928347
fix                 4 all press/berendsen iso ${PRES} ${PRES} 1000.0 modulus 20000
fix                 4 all press/berendsen iso -500 ${PRES} 1000.0 modulus 20000
fix                 4 all press/berendsen iso -500 -500 1000.0 modulus 20000

# Run 0.5 ns equilibration
#
dump                1 all custom 1000 eq.${NAME}.dump id type x y z vx vy vz
dump                1 all custom 1000 eq.liq_294K_-500atm_ML.dump id type x y z vx vy vz
run                 100000
Per MPI rank memory allocation (min/avg/max) = 3.484 | 3.499 | 3.503 Mbytes
Step Temp Press Volume TotEng KinEng PotEng c_1[4] Density 
     644          294    876.58123    138870.75   -45802.823     4037.382   -49840.205 4.9491159e-33   0.99262458 
     700    176.31247   -417.60447    139787.16   -44762.804    2421.2272   -47184.031   0.31168169   0.98611715 
     800     217.8073   -292.76221    140342.08   -43492.001    2991.0587    -46483.06   0.80971288   0.98221797 
     900      244.627   -496.40821    140465.12   -42745.811    3359.3627   -46105.174    1.4848258   0.98135764 
    1000    262.19879   -611.95167    140457.04    -42200.35     3600.669   -45801.019    2.3688959   0.98141409 
    1100    273.66761   -513.54126    140343.88   -41795.161    3758.1656   -45553.327    3.3429475   0.98220541 
    1200    281.92258   -460.40915    140721.42   -41508.212    3871.5278    -45379.74    4.2820249   0.97957023 
    1300    288.69266    -361.4617    140534.05   -41333.013    3964.4985   -45297.512    5.3293242   0.98087625 
    1400    290.89667   -461.28958    140749.63    -41196.17    3994.7652   -45190.935    6.3540801   0.97937394 
    1500    288.59971   -595.75518    140350.65    -41142.87     3963.222   -45106.092    7.4467097   0.98215802 
    1600     289.3253   -164.05963    140653.02   -41114.654    3973.1863   -45087.841     8.533445    0.9800466 
    1700    293.75507   -531.72351    140661.99   -41083.403    4034.0185   -45117.421    9.5445634   0.97998415 
    1800    291.44476   -412.32147    140527.93   -41094.077    4002.2919   -45096.369    10.708488     0.980919 
    1900    295.46321   -398.55405    140741.69   -40953.307    4057.4756   -45010.783    11.762754   0.97942917 
    2000    297.21276    -541.9722     140756.7   -40962.228    4081.5015   -45043.729     12.82803    0.9793247 
    2100    291.65454   -556.73667    140700.95   -41067.113    4005.1728   -45072.286    13.999526   0.97971278 
    2200    288.10801   -455.26424    140449.22   -40979.918    3956.4697   -44936.387    15.375547   0.98146873 
    2300     291.9649    -371.7052    140589.25   -40958.721    4009.4348   -44968.156    16.406047   0.98049114 
    2400    296.97122   -760.69828    140616.76   -40983.092    4078.1846   -45061.277    17.627433   0.98029935 
    2500    294.62736    -627.3795    140231.27   -40936.679    4045.9974   -44982.676    18.820745   0.98299412 
    2600    301.51358   -387.13612    140237.31   -40863.521     4140.563   -45004.084    20.191791   0.98295178 
    2700    295.13429   -457.24584    140474.04   -40959.433    4052.9588   -45012.392    21.440744   0.98129534 
    2800    294.57747   -613.28461    140217.59   -40961.172    4045.3122   -45006.484    22.314154   0.98309005 
    2900    295.28521   -686.74197    140100.63   -40898.256    4055.0313   -44953.287    23.372585   0.98391074 
    3000    297.86911   -679.55093    140324.33   -40884.367    4090.5149   -44974.882    24.783383   0.98234225 
    3100    297.35189   -545.74719    140366.34   -40844.391    4083.4122   -44927.803    26.042971   0.98204821 
    3200    298.53048   -514.69219    140240.16   -40845.451    4099.5973   -44945.048    27.292764   0.98293179 
    3300    295.37293    -265.3019    140476.69   -40868.385    4056.2359   -44924.621    28.707969   0.98127679 
    3400    294.85258   -663.78119     140449.2    -40872.49    4049.0901    -44921.58    30.258824   0.98146888 
    3500    299.63948   -463.16591    140250.18   -40753.652    4114.8267   -44868.478    31.466007    0.9828616 
    3600    295.05552   -430.10126    140118.49   -40845.116     4051.877   -44896.993    32.715209   0.98378533 
    3700    296.00288   -321.34239    140584.32   -40870.195    4064.8868   -44935.082    34.162806   0.98052556 
    3800    289.88894   -497.87109    140418.08   -40881.222    3980.9265   -44862.149    35.648855   0.98168637 
    3900    289.23532   -260.99139     140135.4   -41020.965    3971.9507   -44992.916    36.702111   0.98366662 
    4000    299.78261   -787.01373    140245.85   -41014.369    4116.7922   -45131.161    37.803267   0.98289192 
    4100    295.37401   -707.48075    139929.86       -40966    4056.2507    -45022.25    39.211482   0.98511152 
    4200    295.30185   -685.07995    139700.46   -40973.778    4055.2598   -45029.038    40.283103   0.98672916 
    4300    290.89913   -399.23397    139708.43   -40980.942    3994.7991   -44975.741    41.234291   0.98667288 
    4400    294.69544    -502.5847    139739.63   -40916.144    4046.9322   -44963.076    42.129312   0.98645255 
    4500    301.51285   -545.58224    139708.93   -40853.284    4140.5529   -44993.836    43.423323    0.9866693 
    4600    295.49922   -459.46263    139522.38   -40933.164    4057.9701   -44991.134    44.806367   0.98798854 
    4700    294.92098   -529.77335     139709.4   -40987.508    4050.0295   -45037.538     45.98812   0.98666604 
    4800      296.641   -307.29919    140024.27   -40934.229    4073.6498   -45007.879    47.327927   0.98444729 
    4900    289.51166   -755.04723    140071.53   -41017.341    3975.7455   -44993.086    48.600284   0.98411515 
    5000    300.42697   -493.16985    140198.42   -40922.075    4125.6409   -45047.716    49.691091   0.98322446 
    5100    294.45265   -551.75795    139827.97   -40994.135    4043.5981   -45037.733    50.587241   0.98582933 
    5200    288.59022   -273.88046    139730.43    -41078.14    3963.0918   -45041.231    52.057811   0.98651748 
    5300    292.47716   -249.27256    139807.03   -41006.565    4016.4694   -45023.034    53.388142   0.98597699 
    5400    296.55741   -514.82437     139887.5   -40912.699    4072.5019   -44985.201    54.674425    0.9854098 
    5500    297.28006    -414.3031    140165.56   -40902.486    4082.4257   -44984.911    56.017903     0.983455 
    5600     292.1706   -468.46293    139978.07   -40840.054    4012.2596   -44852.313    57.438629   0.98477221 
    5700    296.46855   -646.20464    140044.63   -40823.914    4071.2817   -44895.195    58.454902   0.98430417 
    5800    293.42765    -385.9522    140269.87   -40743.549    4029.5222   -44773.071    59.941761   0.98272361 
    5900    298.73166   -577.42943    140394.37   -40938.278    4102.3599   -45040.638    61.083471   0.98185214 
    6000    295.87628   -745.48183    140601.97   -41024.409    4063.1482   -45087.557     62.53845   0.98040242 
    6100    293.59116   -466.83595    140687.29   -40967.081    4031.7676   -44998.849    63.090238   0.97980792 
    6200    289.86077   -566.43252    141037.51    -41046.04    3980.5396    -45026.58    63.804375   0.97737486 
    6300    290.99273   -663.94717    140835.96    -40996.42    3996.0845   -44992.505    64.386831   0.97877358 
    6400    294.93863   -541.69213     140682.3   -40973.783    4050.2718   -45024.055    65.484848   0.97984267 
    6500     295.2768   -443.89763     140417.9   -41010.184    4054.9157     -45065.1    66.226282   0.98168765 
    6600    289.76625   -425.80678     140630.9   -41073.019    3979.2417   -45052.261    67.595659   0.98020079 
    6700    286.86097   -688.66429    140701.08   -41122.525    3939.3447    -45061.87    68.954012   0.97971185 
    6800    287.32907   -504.78653    140379.47   -41064.334    3945.7729   -45010.107    69.789618   0.98195637 
    6900    291.34111   -583.36236    140525.38   -40949.306    4000.8686   -44950.174    70.797924   0.98093681 
    7000    294.78382   -448.72907    140867.85   -40910.652    4048.1459   -44958.798    71.837578   0.97855202 
    7100    288.17946   -582.72884    140795.68   -41006.643    3957.4509   -44964.094    72.689762   0.97905356 
    7200    289.69923   -417.67553    140996.26    -41055.19    3978.3214   -45033.511    73.824489   0.97766083 
    7300    290.84683    -771.3139    140932.11   -41023.276    3994.0808   -45017.357    74.572085   0.97810584 
    7400    284.32045    -372.5524    140575.53   -41059.293    3904.4567    -44963.75     75.47718   0.98058685 
    7500     291.7491   -505.01371     140858.2   -40984.942    4006.4713   -44991.413    77.168792   0.97861902 
    7600    292.47987   -411.62094    140646.51   -40993.647    4016.5067   -45010.154    78.352631   0.98009199 
    7700    290.03661   -377.19129    140831.94   -41004.497    3982.9544   -44987.451    79.831668   0.97880153 
    7800     293.0216   -526.75176    140759.96    -41028.53    4023.9461   -45052.476    80.997446   0.97930207 
    7900    288.45387   -750.83152    140502.49   -41151.159    3961.2192   -45112.378    82.152805   0.98109661 
    8000    294.42096    -492.7837    140315.01   -41061.494    4043.1629   -45104.656    83.610306   0.98240748 
    8100    291.17739   -205.44885    140375.72   -40978.316    3998.6203   -44976.936     85.20568   0.98198258 
    8200    291.51523   -451.64604    140666.15   -40989.756    4003.2597   -44993.016    86.861686   0.97995515 
    8300    289.92572   -542.96938    140691.07   -40912.511    3981.4316   -44893.943    88.408734   0.97978157 
    8400    292.75619    -300.9135    140546.04   -40974.002    4020.3012   -44994.304    89.684244   0.98079261 
    8500    294.34365    -547.8625    140411.52   -41003.912    4042.1012   -45046.013    90.781745   0.98173224 
    8600    294.58266   -588.80765    140470.29    -40923.56    4045.3834   -44968.944    92.129385   0.98132152 
    8700    297.45583   -574.89774    140443.46    -40910.87    4084.8395    -44995.71    93.203667     0.981509 
    8800    295.63845   -461.23563    140492.02   -40897.156    4059.8822   -44957.038     94.56724   0.98116971 
    8900    296.64583   -507.73011    140494.61   -40870.933    4073.7161   -44944.649    95.590178   0.98115162 
    9000    296.51859   -589.02576    140491.17   -40774.678    4071.9687   -44846.647    97.398829    0.9811757 
    9100    294.37354   -495.02657    140571.16   -40837.658    4042.5116    -44880.17    99.036776   0.98061736 
    9200    293.66552   -457.17239    140315.56   -40889.136    4032.7887   -44921.925    99.840381   0.98240362 
    9300    292.07955   -650.61747    140203.62   -40840.288    4011.0092   -44851.297    100.89121   0.98318803 
    9400    296.11623   -441.24815    140072.62   -40872.074    4066.4434   -44938.518    101.85409   0.98410748 
    9500    295.32153   -575.49962     140250.5   -40937.289      4055.53   -44992.819    103.59177   0.98285934 
    9600    289.53477   -405.89768    140177.65   -40946.218    3976.0628   -44922.281    104.78533   0.98337013 
    9700    296.01933   -590.72239    140099.26   -40946.503    4065.1126   -45011.615    105.98408   0.98392038 
    9800     294.9897   -588.01687    140236.39   -40889.864    4050.9732   -44940.838    107.13214   0.98295822 
    9900    296.56821   -526.84559    140074.05   -40962.421    4072.6502   -45035.071    108.22308   0.98409749 
   10000    291.75736   -569.44165    139768.09   -41031.025    4006.5847    -45037.61    109.66561   0.98625171 
   10100    291.77886   -601.74944    140084.27   -41023.001    4006.8801   -45029.881    110.95527   0.98402563 
   10200    290.36312   -659.54778    140219.97   -41076.853    3987.4382   -45064.291     111.7848   0.98307336 
   10300    294.42671   -536.89742    139957.81   -40970.084    4043.2418   -45013.326    112.73062   0.98491477 
   10400    293.98977   -487.86269    139880.91   -40870.955    4037.2415   -44908.196    113.67658   0.98545624 
   10500    290.84003   -562.67309     139915.7   -40896.023    3993.9874    -44890.01    114.90676   0.98521119 
   10600    292.27446   -497.32816    140075.54   -40883.465    4013.6858    -44897.15    116.29795   0.98408701 
   10700     295.3059   -433.30745    140229.11   -40887.941    4055.3154   -44943.256    117.38811   0.98300928 
   10800    303.22078   -299.49258    140260.18   -40798.385    4164.0072   -44962.392    118.63767   0.98279151 
   10900    298.20138   -618.88081     140251.8   -40799.533    4095.0779   -44894.611    119.82622   0.98285026 
   11000    301.11864   -565.36342    140282.33   -40764.282    4135.1394   -44899.421    121.03679   0.98263632 
   11100    290.47822   -761.52617    140261.36   -40880.249    3989.0189   -44869.268     121.8659   0.98278326 
   11200    297.79085   -645.64357    140224.01   -40893.054    4089.4402   -44982.494    122.89166   0.98304504 
   11300    292.71447   -631.94409     140253.9   -40923.175    4019.7283   -44942.903    123.82761   0.98283557 
   11400    287.05541   -487.42523    140151.67   -41017.836    3942.0148   -44959.851    124.75782    0.9835524 
   11500    290.07969   -577.93352    140228.05   -41088.699    3983.5459   -45072.245     125.6917   0.98301673 
   11600    289.34378   -529.83493    140236.72   -41108.912      3973.44   -45082.352    126.80925   0.98295597 
   11700    288.57088   -532.50999    140346.02   -41018.876    3962.8261   -44981.702    127.90952   0.98219041 
   11800    291.99474   -486.87715    140213.24   -40992.489    4009.8447   -45002.334    128.48839   0.98312053 
   11900     293.3439   -527.78173    139825.33   -41049.199     4028.372   -45077.571    129.25757   0.98584795 
   12000    288.45566   -389.24903    139808.72   -41036.465    3961.2439   -44997.708    130.59203   0.98596511 
   12100      296.938   -312.32395    140165.75   -40944.283    4077.7284   -45022.012    131.66668   0.98345367 
   12200    296.46601   -423.52746    140585.68   -40853.261    4071.2468   -44924.508    133.04209   0.98051606 
   12300    302.13229   -399.00188    140601.29   -40786.091    4149.0594    -44935.15    134.08336   0.98040719 
   12400    300.00187   -559.45315     140585.9   -40800.957    4119.8033    -44920.76    135.38628   0.98051455 
   12500    299.28354   -761.47205    140549.95   -40882.496    4109.9387   -44992.435    136.50006   0.98076531 
   12600    297.17067   -163.26913    140270.56   -40887.306    4080.9235   -44968.229    137.11334   0.98271877 
   12700    293.00785   -433.56956    140326.85   -40917.039    4023.7572   -44940.796      138.209   0.98232459 
   12800    299.11809   -475.11657    140345.45   -40944.986    4107.6667   -45052.652    139.51728   0.98219444 
   12900    288.58159   -479.36167    140133.26    -41013.03    3962.9732   -44976.004     140.6411   0.98368166 
   13000    287.09092   -428.09712    140099.35   -41017.691    3942.5025   -44960.193    141.76372   0.98391975 
   13100    295.51527   -748.31777    139969.08   -40952.763    4058.1906   -45010.953    143.72726   0.98483548 
   13200    295.85962   -261.28448    140084.64   -40863.281    4062.9194     -44926.2    145.02883   0.98402304 
   13300    297.23663   -733.12037     139906.5   -40894.751    4081.8293    -44976.58    146.01298   0.98527602 
   13400    298.54367   -342.72323    140137.71   -40929.341    4099.7784   -45029.119    147.38979   0.98365044 
   13500    289.48055   -760.26356    140321.42   -40933.705    3975.3182   -44909.024    148.76128   0.98236259 
   13600    292.47504   -722.57205    140169.15   -40975.037    4016.4404   -44991.477    149.25597   0.98342978 
   13700    291.27129   -567.74876    140201.13   -40994.035    3999.9097   -44993.944    150.32454   0.98320548 
   13800    286.37523   -470.35846    140101.08   -41022.235    3932.6742   -44954.909    151.62039   0.98390763 
   13900    291.49155    -325.3858    140350.43   -41019.402    4002.9344   -45022.336    153.16392   0.98215955 
   14000    285.96097   -516.25048    140537.56   -41108.426    3926.9853   -45035.412    154.25469   0.98085176 
   14100    291.09814   -552.09393    140510.15   -41008.188    3997.5319    -45005.72    154.82421   0.98104315 
   14200    296.86153   -581.86617    140686.19    -41019.18    4076.6782   -45095.858    156.20504   0.97981553 
   14300    291.22943    -754.4888    140840.32     -41077.5     3999.335   -45076.835    157.97698    0.9787433 
   14400    293.65438   -509.99061    140600.15   -40972.379    4032.6358   -45005.015    159.08669   0.98041515 
   14500    292.51651   -472.73783    140432.26   -41044.705    4017.0099   -45061.715      160.622   0.98158723 
   14600    294.40955   -540.02481    140220.21   -40904.262    4043.0061   -44947.268    161.77298   0.98307164 
   14700    295.45247    -534.3204    140237.45   -40963.442    4057.3282   -45020.771    163.25922   0.98295083 
   14800    290.59245   -494.14096    140224.21   -40934.261    3990.5876   -44924.848     163.8311   0.98304362 
   14900    292.94571   -315.18962    139997.71   -40896.303    4022.9039   -44919.207      164.533   0.98463405 
   15000    290.37355   -458.90632    140091.15   -40996.339    3987.5815   -44983.921    165.52491   0.98397731 
   15100    294.20283   -535.36429     139703.8   -40991.221    4040.1674   -45031.388    166.15486   0.98670556 
   15200    296.26262   -335.61867    139805.45   -41067.192    4068.4536   -45135.645    167.23668   0.98598813 
   15300    294.81331   -734.04611    140175.51   -41013.739    4048.5508    -45062.29    168.90122    0.9833852 
   15400    298.60464   -204.30227    140242.01    -40918.81    4100.6156   -45019.426    170.10656   0.98291886 
   15500    292.04389   -691.61359    139987.09   -40965.867    4010.5196   -44976.386    171.21051   0.98470878 
   15600    289.82409   -501.44301    139947.26   -41029.467    3980.0359   -45009.503    172.06245   0.98498901 
   15700    291.01621   -571.62188    139805.67   -41004.957    3996.4069   -45001.364    172.71389    0.9859866 
   15800    290.06844   -458.96764    139871.05   -40947.061    3983.3914   -44930.452    174.62749   0.98552569 
   15900    293.45039   -549.71465    139950.06   -40946.879    4029.8344   -44976.713    175.78414   0.98496933 
   16000    291.37466   -432.20347    139819.69   -40969.883    4001.3293   -44971.213     177.6523   0.98588775 
   16100    295.88549   -479.72581    140392.83   -40963.062    4063.2747   -45026.337    179.16601   0.98186297 
   16200    301.26032   -492.63342    140476.43   -40818.937     4137.085   -44956.022    180.30535   0.98127861 
   16300      301.474   -749.25402    140487.58   -40778.429    4140.0193   -44918.448     181.8877   0.98120071 
   16400    296.95633   -368.45707    140395.51   -40777.206    4077.9801   -44855.186    183.27704   0.98184417 
   16500    297.56764    -585.9611    140573.29   -40803.755     4086.375    -44890.13    184.05784   0.98060247 
   16600    299.55458   -532.67591    140652.92    -40827.72    4113.6608   -44941.381    185.44165   0.98004734 
   16700    288.44216   -583.12153     140532.2   -40905.596    3961.0585   -44866.654    186.28806   0.98088923 
   16800    293.07983   -644.06057    139986.78   -40836.869    4024.7457   -44861.615    187.12399   0.98471093 
   16900    292.13526   -533.10889    139919.35    -40892.63    4011.7743   -44904.405    188.73401   0.98518555 
   17000    295.15882   -834.38746    139960.71   -40870.911    4053.2956   -44924.206    190.59299   0.98489435 
   17100    294.27916   -549.15098    139659.18   -40850.439    4041.2157   -44891.654    191.51254    0.9870208 
   17200    300.52551   -654.63622    139831.19   -40819.317    4126.9942   -44946.312      193.077   0.98580666 
   17300    292.55179   -707.69677    139675.25   -40853.754    4017.4944   -44871.249    194.35801   0.98690726 
   17400    298.11372   -517.28329    139517.46   -40863.998    4093.8741   -44957.872    195.24246   0.98802343 
   17500    291.61825   -593.41183    139845.01   -40873.534    4004.6744   -44878.208    196.84359   0.98570924 
   17600    289.60964   -386.13413    140086.94   -40885.474     3977.091   -44862.565    198.54335    0.9840069 
   17700      295.994   -517.49904    140183.34   -40855.925    4064.7648    -44920.69    199.91284   0.98333022 
   17800    292.97866   -571.08866    140089.42   -40935.832    4023.3564   -44959.189    201.21473   0.98398952 
   17900    292.76497   -358.73637    140171.95   -40977.592    4020.4218   -44998.014    203.21428   0.98341011 
   18000    295.74221    -744.2924    140087.91   -41091.339    4061.3071   -45152.646     204.0911   0.98400009 
   18100    291.26003    -524.8921    139772.45   -41082.197    3999.7551   -45081.952    205.47647   0.98622095 
   18200    287.22619   -322.93879    139897.23    -41000.59      3944.36    -44944.95    207.05046   0.98534126 
   18300    291.80598   -593.80975       139973   -41016.184    4007.2525   -45023.436    208.47291   0.98480789 
   18400     293.1142   -519.56688    140028.61   -41004.143    4025.2177   -45029.361    209.87114    0.9844168 
   18500    287.30763   -442.62689    140349.05   -40949.658    3945.4784   -44895.136    211.02755   0.98216924 
   18600    295.87209   -695.68708    140304.84   -40934.982    4063.0907   -44998.073    212.29621    0.9824787 
   18700     299.9591   -592.82042    140205.18   -40857.691     4119.216   -44976.907    212.81517   0.98317709 
   18800    291.42239   -277.54457    140376.06    -40926.84    4001.9847   -44928.825    214.32118   0.98198023 
   18900    284.79351   -558.63483       140122   -40908.241     3910.953   -44819.194    215.20389   0.98376069 
   19000    290.00198   -598.08243    140081.32   -40912.603    3982.4788   -44895.082    215.86624   0.98404642 
   19100    296.21427   -526.56998    140330.98   -40936.152    4067.7896   -45003.941    216.99305   0.98229571 
   19200     294.0485   -687.31547     140170.7   -40926.624    4038.0481   -44964.672    217.85061   0.98341893 
   19300    295.75229   -548.08729    140007.41   -40878.346    4061.4454   -44939.792    219.10219   0.98456586 
   19400    292.56773   -440.00109    140037.51   -40985.365    4017.7133   -45003.078    220.18586   0.98435422 
   19500    294.72179    -373.6505       139964     -40929.5    4047.2941   -44976.794    221.76611   0.98487121 
   19600    289.56503    -392.7206    140428.14   -40888.947    3976.4784   -44865.425    223.71789   0.98161604 
   19700    294.33534   -351.47835    140170.75   -40879.008    4041.9871   -44920.995    224.26405   0.98341854 
   19800    292.46172   -660.50662    140191.24   -40901.349    4016.2574   -44917.606    225.92355   0.98327484 
   19900    296.50201   -510.58998    140134.47   -40845.329    4071.7411   -44917.071    226.97912   0.98367316 
   20000    296.36774   -606.18052    140201.97   -40834.053    4069.8972    -44903.95    228.14511   0.98319959 
   20100    297.60951   -419.72684    140223.99   -40828.739      4086.95   -44915.689    229.25699    0.9830452 
   20200    302.38244   -519.10296    139879.73   -40822.266    4152.4947   -44974.761    230.39447   0.98546456 
   20300    300.68812   -539.96934    139816.79   -40819.033    4129.2273   -44948.261    231.47938   0.98590819 
   20400    296.90076   -545.58633    140018.48   -40862.843     4077.217    -44940.06    232.84957   0.98448805 
   20500    299.79786   -554.33891     140028.8   -40841.578    4117.0017    -44958.58    233.57829   0.98441547 
   20600    297.56798   -401.08536    140095.75   -40910.938    4086.3797   -44997.318    235.82062   0.98394504 
   20700    296.56705   -353.13756    140453.41   -41000.976    4072.6343    -45073.61    237.43787   0.98143942 
   20800    290.85911   -567.41561    140494.82    -41025.09    3994.2495   -45019.339    238.85986   0.98115018 
   20900    293.51486   -615.41429     140413.2   -40928.235    4030.7198   -44958.955    239.99994   0.98172051 
   21000    299.17782   -190.67109    140746.57   -40883.502    4108.4869   -44991.989    241.56479    0.9793952 
   21100    288.37755   -392.82427    140729.58   -40970.167    3960.1712   -44930.338     242.3807   0.97951344 
   21200    292.55353   -341.11746    141129.22   -41031.489    4017.5182   -45049.007    243.55549   0.97673976 
   21300    291.26851   -384.91922    140711.56   -41043.926    3999.8716   -45043.798    244.41805   0.97963886 
   21400    294.23429   -690.62989    140707.08   -40947.363    4040.5994   -44987.963    245.07848   0.97967007 
   21500    296.60795   -309.35418    140610.26   -40913.659     4073.196   -44986.855    246.33564   0.98034466 
   21600    292.59461   -688.41454    140691.45   -40945.779    4018.0824   -44963.861    248.09979   0.97977892 
   21700    291.32269   -620.41793    140430.03   -40909.058    4000.6156   -44909.674    248.63449   0.98160285 
   21800    298.03851   -529.46125    140508.76   -40827.212    4092.8413   -44920.054    250.42613   0.98105284 
   21900     291.8365   -609.05637    140411.61   -40817.434    4007.6716   -44825.105    251.95965   0.98173161 
   22000    295.36331   -496.72882    140525.41   -40841.512    4056.1038   -44897.616    253.63974   0.98093662 
   22100    296.08926    -521.8094    140409.97    -40832.85     4066.073   -44898.923    254.46398   0.98174305 
   22200     302.7433   -328.10541    140529.24   -40807.866    4157.4502   -44965.316    255.78427   0.98090984 
   22300    295.40677   -643.07165    140542.67   -40868.965    4056.7007   -44925.666    257.61185   0.98081614 
   22400    293.21415   -342.06352    140324.45   -40927.289    4026.5902   -44953.879    257.79564    0.9823414 
   22500    290.03029   -816.15727     140535.6   -40947.231    3982.8676   -44930.098    259.68562   0.98086543 
   22600    288.01802   -496.78352    140404.79   -40971.807    3955.2339   -44927.041    260.75067   0.98177928 
   22700    296.06599   -698.89342    140258.71   -40899.819    4065.7534   -44965.572    261.74379    0.9828018 
   22800    290.14605   -479.22307    140241.12    -41068.99    3984.4573   -45053.447    262.65487   0.98292509 
   22900    294.00898   -363.58686    140232.69   -41035.712    4037.5054   -45073.217    263.18188   0.98298421 
   23000    293.01303   -565.71844    140059.55    -40914.04    4023.8284   -44937.869      264.075   0.98419931 
   23100     295.4743   -313.79515    140273.84    -40919.71     4057.628   -44977.338    265.99181   0.98269585 
   23200    297.25479   -691.98674     140171.4   -40954.396    4082.0787   -45036.475     266.8411   0.98341398 
   23300    290.85646   -420.84053    140188.32   -41041.997    3994.2131    -45036.21    268.44887   0.98329531 
   23400    295.23417   -273.78249    140269.36   -40949.508    4054.3303   -45003.838     269.9387    0.9827272 
   23500    294.81665   -440.70776    140332.66   -41000.709    4048.5968   -45049.306    271.28561   0.98228392 
   23600    289.83872   -669.14682    140495.55   -41055.205    3980.2368   -45035.441    272.82684   0.98114504 
   23700    289.04955   -408.27076    140366.37    -41050.19    3969.3996   -45019.589    273.73012   0.98204806 
   23800    291.71133    -593.2611    140429.27   -40920.685    4005.9526   -44926.638    274.54813   0.98160812 
   23900     296.6294   -286.30177    140065.08    -40924.04    4073.4905    -44997.53    274.94266   0.98416051 
   24000    295.78062   -378.47191    140118.72   -40864.486    4061.8346    -44926.32    276.41637   0.98378374 
   24100     300.0625   -489.90161    140133.69    -40847.96    4120.6358   -44968.596      277.181    0.9836786 
   24200    300.84413   -741.07275    140025.73   -40770.727    4131.3696   -44902.097    278.98327   0.98443704 
   24300    295.52087   -530.72604    139647.06   -40854.422    4058.2675   -44912.689    280.09404   0.98710644 
   24400    294.88331   -631.50615    139595.04   -40854.699    4049.5121   -44904.211     281.4597   0.98747434 
   24500      300.386   -489.77955    139417.13   -40916.898    4125.0783   -45041.976      282.882   0.98873441 
   24600       292.67   -390.89651    139670.41   -40882.494    4019.1177   -44901.612    284.64461   0.98694147 
   24700     301.6027   -438.19755    140069.88   -40881.233    4141.7869    -45023.02    285.97113   0.98412674 
   24800    296.54494      -412.25    139992.72   -40874.503    4072.3307   -44946.833    286.17838   0.98466916 
   24900    298.00047    -595.4612    140161.73     -40933.9    4092.3189   -45026.219    287.73865   0.98348184 
   25000    292.92884   -534.40699    140012.79    -40967.75    4022.6722   -44990.422    288.91066   0.98452803 
   25100    292.52334   -665.80627    140118.38   -40966.857    4017.1037   -44983.961    289.71421   0.98378613 
   25200    294.30204   -370.80424    140010.38   -40994.044    4041.5298   -45035.574    291.05418   0.98454497 
   25300    291.51467   -571.40003    140041.17   -41044.693     4003.252   -45047.945    292.90629   0.98432849 
   25400    297.71728   -367.43187    140113.19   -40970.704      4088.43   -45059.134    294.74344   0.98382255 
   25500    292.17193   -577.47816    140157.27   -41037.419    4012.2779   -45049.697    296.19525   0.98351317 
   25600    288.28086   -334.80902    140191.84   -41030.704    3958.8434   -44989.547    297.38513   0.98327061 
   25700    288.91406    -594.5741    140025.01   -41035.687    3967.5389   -45003.226    298.49565   0.98444213 
   25800    285.92982   -502.28434    140139.03   -41136.153    3926.5575    -45062.71    299.41444   0.98364114 
   25900    290.84699   -304.19378    139565.68   -41171.182     3994.083   -45165.265    299.57907   0.98768203 
   26000    292.97864   -375.01624    139652.07   -41031.444     4023.356     -45054.8    301.46198   0.98707105 
   26100    294.89672    -464.1416    140022.84   -41019.117    4049.6963   -45068.813    303.53928   0.98445739 
   26200    296.01748   -447.88816    140047.41   -40872.377    4065.0873   -44937.465    305.62186   0.98428467 
   26300    295.68054   -415.48189    140448.94   -40944.418    4060.4601   -45004.878    307.11678   0.98147066 
   26400    296.47469   -427.56687    140410.31   -40900.761    4071.3659   -44972.127    308.56236   0.98174069 
   26500    296.69892   -377.48103    140317.15   -40815.111    4074.4451   -44889.556    309.40983   0.98239251 
   26600    292.50896   -468.38843    140354.96   -40933.373    4016.9062   -44950.279    310.02983   0.98212788 
   26700    294.70924   -499.72394    140034.73   -40854.138    4047.1217   -44901.259    310.99631   0.98437377 
   26800    293.92564   -340.75758    140127.91   -40873.646    4036.3609   -44910.007    312.03281   0.98371919 
   26900    289.07472   -484.48287    140086.61   -40988.578    3969.7452   -44958.323    313.42381   0.98400922 
   27000    292.33173   -353.37353    139991.73   -41014.212    4014.4724   -45028.685    314.82125   0.98467611 
   27100    295.22568   -470.59589    140282.82   -40913.551    4054.2137   -44967.764    316.57534   0.98263291 
   27200    295.64682   -450.69957    140367.12   -40882.002    4059.9971   -44941.999    318.04174   0.98204281 
   27300    293.37937   -481.67542    140401.37   -40800.437    4028.8592   -44829.296    319.76653   0.98180321 
   27400    296.96723   -359.82534    140264.55    -40845.42    4078.1298    -44923.55    320.77583    0.9827609 
   27500    293.34902   -248.30254    140532.49   -40863.086    4028.4424   -44891.529    322.66409   0.98088714 
   27600    297.42622   -661.07941    140352.05   -40814.453    4084.4329   -44898.886    323.76602   0.98214824 
   27700    299.48951   -559.79698     140336.4    -40839.77    4112.7673   -44952.537    325.80335   0.98225772 
   27800    295.69303   -786.73602    140217.56   -40888.473    4060.6317   -44949.104    327.78674   0.98309028 
   27900     299.7231   -457.24343    140189.92   -40791.266     4115.975   -44907.241    328.69018    0.9832841 
   28000    300.81448    -347.6476    140540.89   -40750.216    4130.9625   -44881.179    330.74345   0.98082858 
   28100    298.13304   -406.38209    140547.26   -40888.883    4094.1394   -44983.023    332.00316   0.98078407 
   28200    291.92565   -544.45099    140417.18    -41020.44    4008.8958   -45029.335    332.30631   0.98169267 
   28300    290.92596   -383.66747     140585.2   -40954.977    3995.1674   -44950.144    333.98936   0.98051942 
   28400    295.98666   -495.15701    140373.14   -40859.314     4064.664   -44923.978    334.16348   0.98200069 
   28500     286.8442   -661.44844    140242.07   -40960.485    3939.1143   -44899.599    335.00824   0.98291844 
   28600    293.79024   -344.55301    140082.76   -40992.946    4034.5015   -45027.448    335.81908   0.98403628 
   28700    295.90815   -533.40101    140147.46     -41013.5    4063.5858   -45077.086    336.93739   0.98358198 
   28800    291.83019   -587.60787    140373.46   -40975.888    4007.5849   -44983.473    338.74666   0.98199841 
   28900    293.48259   -433.85119     140270.9   -40971.472    4030.2767   -45001.749    339.52674   0.98271641 
   29000    296.91555   -797.25069    139740.28   -40970.474    4077.4201   -45047.894    340.17206   0.98644796 
   29100     296.7215   -348.31888    139887.58   -40919.361    4074.7553   -44994.116    341.70546   0.98540927 
   29200       288.97   -353.75045    139695.83   -40991.703     3968.307    -44960.01    342.80272   0.98676186 
   29300    292.39006   -560.85127    140326.55   -40915.487    4015.2733    -44930.76    344.75117   0.98232668 
   29400    289.34476   -754.85365    140181.86   -41011.919    3973.4535   -44985.373    346.10781   0.98334064 
   29500    292.76811   -634.33096    139909.88   -40942.101     4020.465   -44962.566    347.23261   0.98525222 
   29600    287.96623    -382.9162    140249.33   -40965.059    3954.5227   -44919.582    349.54187   0.98286757 
   29700    293.32001    -447.7067     140195.2   -40889.814     4028.044   -44917.858    350.69682   0.98324707 
   29800    296.95837   -435.33641    140426.85   -40850.597     4078.008   -44928.605    352.63586   0.98162508 
   29900    300.16866   -353.06897    140781.31    -40852.19    4122.0936   -44974.283    354.60608    0.9791535 
   30000    294.33508   -566.79373    140539.41   -40859.821    4041.9836   -44901.805    356.38602    0.9808389 
   30100    291.71328   -575.24168    140470.95   -40871.675    4005.9794   -44877.654    357.57648   0.98131688 
   30200    299.45347   -660.03356    140381.45   -40861.156    4112.2724   -44973.428    359.11072   0.98194256 
   30300     294.5618   -465.86344    140207.78   -40945.467     4045.097   -44990.564    360.05481   0.98315885 
   30400    291.60843   -389.34775    140245.23   -41058.238    4004.5395   -45062.778    360.36103   0.98289627 
   30500    291.76937   -226.17375    140371.71   -41061.192    4006.7498   -45067.942    361.61115    0.9820107 
   30600    290.05825   -518.05216    140311.79   -41130.231    3983.2516   -45113.483    363.13611   0.98243001 
   30700    290.89183   -579.91304    140072.38   -41023.704    3994.6988   -45018.402    363.44213   0.98410917 
   30800    292.94357    -399.9272       140004   -40987.603    4022.8745   -45010.478    363.96925   0.98458983 
   30900    288.86484   -710.44026    140190.92   -41033.482     3966.863   -45000.346    365.35587   0.98327704 
   31000    290.33518    -494.8072    139959.08   -41022.151    3987.0546   -45009.206    366.00844   0.98490582 
   31100    290.80719   -410.80124    140044.28   -41118.664    3993.5365   -45112.201    367.27666   0.98430663 
   31200    287.78803    -353.5726    140178.45   -41070.153    3952.0755   -45022.228    368.32379   0.98336454 
   31300    288.73556   -487.48278    140247.83   -41034.821    3965.0876   -44999.909    369.15898    0.9828781 
   31400    291.59215   -247.59262    140323.13   -41012.098    4004.3161   -45016.414    369.91966   0.98235063 
   31500    298.75224   -537.87039    140436.12   -40887.944    4102.6426   -44990.587    370.94242   0.98156027 
   31600    294.20253    -469.8607    140232.05   -40952.474    4040.1632   -44992.638      371.682   0.98298867 
   31700    289.87695   -431.28315    140311.82   -40953.155    3980.7618   -44933.917    373.40487   0.98242984 
   31800    289.90189   -503.24991    140279.22   -40967.969    3981.1044   -44949.073    374.48586   0.98265811 
   31900    303.56641   -383.16271    140402.42   -40837.103    4168.7536   -45005.856    377.72281   0.98179587 
   32000    289.45676   -630.43087    140062.66   -40892.125    3974.9916   -44867.117    378.01298    0.9841775 
   32100    289.48738   -461.63413    140297.31   -40913.959     3975.412   -44889.371    379.77415   0.98253142 
   32200    293.59452    -289.1268    140405.77   -40911.056    4031.8137    -44942.87    380.42868   0.98177245 
   32300    295.68782   -525.20602    140278.98   -40892.686    4060.5602   -44953.246     382.1304   0.98265984 
   32400    302.49433    -92.34915    140595.87   -40806.503    4154.0312   -44960.534    384.08088     0.980445 
   32500    294.48867   -377.41138    140941.29    -40921.68    4044.0927   -44965.773    385.14406   0.97804212 
   32600    291.15933   -837.09699    140611.41   -40979.319    3998.3723   -44977.692    385.60047   0.98033663 
   32700    291.00581   -408.59101    140286.89   -40905.874    3996.2641   -44902.138    386.71072    0.9826044 
   32800    294.41816   -428.39558    140410.47   -40988.237    4043.1244   -45031.362      388.319    0.9817396 
   32900     290.2636   -556.54965    140407.47   -41067.618    3986.0716    -45053.69    389.49692   0.98176054 
   33000    287.50325   -406.00809    140072.04   -40998.509    3948.1648   -44946.674    390.59765   0.98411158 
   33100    294.21651   -860.61193     139869.1    -40953.15    4040.3553   -44993.505    392.59491   0.98553942 
   33200    293.39374   -299.63343    139855.19   -40893.607    4029.0565   -44922.663    394.34691   0.98563751 
   33300    295.06202   -367.20161     140163.2     -40940.8    4051.9663   -44992.766    396.92846   0.98347152 
   33400    294.10887   -579.51459    140003.46   -40921.583    4038.8771    -44960.46    397.37784   0.98459363 
   33500    296.17383   -221.76001    140011.42   -40864.639    4067.2343   -44931.873    399.04832   0.98453769 
   33600    294.31715   -350.00494    140198.08    -40896.81    4041.7373   -44938.548    400.68093   0.98322683 
   33700    297.86448     -322.336    140159.84   -40908.341    4090.4513   -44998.792    402.27535   0.98349511 
   33800     297.3975   -453.20491    140619.48   -40885.339    4084.0385   -44969.377    404.72523    0.9802804 
   33900    289.78966   -376.35985    140896.51   -40873.963    3979.5632   -44853.526     406.1588   0.97835294 
   34000    294.41141   -543.18309    140765.26   -40974.371    4043.0317   -45017.403    406.47707   0.97926514 
   34100    296.27277   -572.25175    140705.88   -41054.085     4068.593   -45122.678    406.38434   0.97967841 
   34200    293.78527   -414.24719    140628.28     -41003.9    4034.4333   -45038.334    407.25247   0.98021906 
   34300    288.51149   -654.73436    140568.52   -40992.722    3962.0105   -44954.732     408.3205   0.98063576 
   34400    297.35518   -368.50693     140528.3   -40868.215    4083.4573   -44951.672    409.70752   0.98091641 
   34500    296.11329   -774.49741    140236.86   -40846.607    4066.4029    -44913.01    410.02843   0.98295493 
   34600    289.92549   -398.96991     139997.4   -40986.445    3981.4285   -44967.874    410.87033   0.98463627 
   34700    292.20499    -428.0341    140128.84    -41006.33    4012.7318   -45019.062    411.78463   0.98371265 
   34800    293.43051   -527.22321    140162.79   -41010.333    4029.5615   -45039.894    413.41632   0.98347439 
   34900    290.06709   -298.91456     140311.3   -40960.077     3983.373    -44943.45     414.9889   0.98243344 
   35000    294.25358   -550.10152    140111.59   -41009.015    4040.8643    -45049.88    416.99643   0.98383376 
   35100    296.97298   -275.66836    140132.47   -40933.098    4078.2087   -45011.307    419.08557   0.98368719 
   35200    296.29174   -165.17394    140784.89   -40796.434    4068.8536   -44865.288    421.87363   0.97912866 
   35300    295.99048   -498.83081    140744.98    -40897.92    4064.7165   -44962.637    422.96465   0.97940626 
   35400    290.29225   -435.61713    140593.86   -40999.052     3986.465   -44985.517    423.80796   0.98045898 
   35500    292.04735   -470.36247    140557.07   -40984.311    4010.5671   -44994.879    424.45672   0.98071562 
   35600    292.83746    -361.4478    140271.67     -40992.3    4021.4173   -45013.718    425.00762   0.98271103 
   35700    293.19669   -388.10707    140235.26   -40929.619    4026.3504   -44955.969    426.17869   0.98296618 
   35800    295.82287   -197.04192     140498.7   -40892.046    4062.4148    -44954.46    428.31874    0.9811231 
   35900    296.06853   -686.96261    140327.13     -40836.3    4065.7883   -44902.088    429.32067   0.98232263 
   36000    295.07058   -659.16494    140078.79   -40858.587    4052.0838    -44910.67    430.39358   0.98406413 
   36100     293.4031   -570.17144    140093.03   -40955.915     4029.185     -44985.1    432.22632   0.98396411 
   36200    300.96939   -518.28931    140115.09   -40905.277    4133.0898   -45038.367    433.64567   0.98380919 
   36300    297.07607   -663.33441    140328.08   -40912.618    4079.6244   -44992.243    435.43568   0.98231596 
   36400    298.21345   -781.63415    140098.73   -40803.129    4095.2435   -44898.372    436.41688   0.98392408 
   36500    299.63904   -425.62833    140125.23   -40829.602    4114.8207   -44944.422    437.79467   0.98373805 
   36600    295.00663   -675.68897    139936.44   -40933.786    4051.2057   -44984.991    438.59977   0.98506522 
   36700    301.42134   -361.22624    140010.87   -40959.391    4139.2962   -45098.688    440.50356   0.98454151 
   36800    292.94083   -467.89171    139813.56   -41065.796    4022.8369   -45088.633    441.25921   0.98593097 
   36900     290.3276   -420.05597    139862.74   -41081.376    3986.9504   -45068.326    443.39553    0.9855843 
   37000    292.16759   -526.10164    139660.71   -41052.584    4012.2183   -45064.803    443.98702   0.98701001 
   37100    291.84462   -476.61179    139872.09    -41062.82    4007.7831   -45070.604    444.53752   0.98551842 
   37200    289.56116    -472.6386    140309.25   -41010.407    3976.4253   -44986.833    446.91496   0.98244784 
   37300    294.33046   -467.23182    140222.48   -41014.604    4041.9201   -45056.524    447.74417   0.98305577 
   37400    293.12619   -571.44917    139918.98   -41059.643    4025.3824   -45085.025    448.09287   0.98518811 
   37500    291.19976   -411.80786     139762.8   -41086.552    3998.9274    -45085.48    449.11182   0.98628903 
   37600    289.23009   -468.78487    140119.24   -41061.986    3971.8788   -45033.865    450.20521    0.9837801 
   37700    287.56796   -431.84011    140167.19   -41068.729    3949.0534   -45017.782    450.68203   0.98344356 
   37800    292.71041   -418.65862    140179.63   -41025.296    4019.6726   -45044.969    451.86541   0.98335627 
   37900    293.74055   -550.65162    140235.58    -41012.57    4033.8191   -45046.389    452.06276   0.98296392 
   38000    292.31261   -406.84321    139927.32   -41041.776    4014.2098   -45055.985    452.24843   0.98512942 
   38100    291.70673   -475.10348    140279.52    -41012.44    4005.8895   -45018.329      454.499   0.98265605 
   38200    289.26389   -490.89122    140132.26   -41062.598    3972.3429   -45034.941    455.40752    0.9836887 
   38300    291.36317   -511.43081    139943.61   -41114.808    4001.1715   -45115.979    456.84536   0.98501474 
   38400    289.05001    -464.8898    140267.84   -41148.002    3969.4058   -45117.408    459.47945   0.98273786 
   38500     287.3213   -253.10329    140092.25   -41121.491    3945.6662   -45067.157    459.74286   0.98396961 
   38600    296.22478    -786.0348     140167.2   -41020.464     4067.934   -45088.398    460.95927    0.9834435 
   38700    289.47098   -518.84278    140237.27   -41002.362    3975.1868   -44977.549    462.52112    0.9829521 
   38800    294.54266   -357.04628     140148.3   -40993.076    4044.8342   -45037.911    463.15568    0.9835761 
   38900    296.25866    -677.7419    140487.72   -40931.424    4068.3992   -44999.823    464.15757   0.98119977 
   39000    296.24792   -412.48743    140668.18   -40883.769    4068.2518   -44952.021    465.43734   0.97994098 
   39100    293.77482   -538.93515    140474.58    -40959.81    4034.2897     -44994.1    465.52557   0.98129152 
   39200    297.11518   -518.42353    140540.42   -40942.926    4080.1615   -45023.088    466.13765   0.98083184 
   39300    294.28028   -314.18793    140374.95    -40914.14     4041.231   -44955.371    467.13736   0.98198802 
   39400    298.61377    -594.3287    140497.77    -40952.05     4100.741   -45052.791    469.25313   0.98112954 
   39500    297.17582   -301.23052    140653.42   -40883.085    4080.9943   -44964.079    470.55737   0.98004382 
   39600    300.84983   -714.80118    140413.42   -40888.885     4131.448   -45020.333    472.47189   0.98171894 
   39700    287.37142   -551.85739    140114.79   -40942.987    3946.3545   -44889.342    473.82671   0.98381131 
   39800    291.23086   -729.64485    140044.14   -40979.529    3999.3545   -44978.884    474.10938   0.98430761 
   39900     288.4955     -347.923    139921.57   -41118.058    3961.7909   -45079.849    475.55617   0.98516991 
   40000     288.8474   -598.84096    140254.45   -41013.853    3966.6235   -44980.477    477.85167   0.98283168 
   40100    296.53728   -513.29256    140271.92   -40959.938    4072.2255   -45032.163     479.2357   0.98270927 
   40200    293.03147   -564.33919    139901.43   -40938.662    4024.0816   -44962.744    479.26968   0.98531168 
   40300    298.23584   -409.67078    139822.54   -40955.627     4095.551   -45051.178    479.83528    0.9858676 
   40400    294.11993   -393.76694    140402.13   -40964.399    4039.0289   -45003.427    482.32008   0.98179792 
   40500    295.71342   -710.99123     140497.8    -40928.85    4060.9116   -44989.762    483.48124   0.98112935 
   40600    296.18572    -638.9311    140466.47   -40916.044    4067.3977   -44983.441    485.23941    0.9813482 
   40700    291.14308   -677.32062    139902.04   -40934.225    3998.1491   -44932.375    485.27347   0.98530738 
   40800    293.34109   -646.41228    139818.79   -40944.772    4028.3335   -44973.106    486.62746   0.98589409 
   40900    295.15103   -544.13973     139600.1   -40958.192    4053.1887    -45011.38    487.44363   0.98743856 
   41000    294.62135   -538.06954    139758.81   -40986.181    4045.9148   -45032.096    489.06583    0.9863172 
   41100    295.67217   -424.12561    139966.73   -40934.456    4060.3452   -44994.802    490.29565   0.98485201 
   41200    294.26822   -424.56208    140427.21   -40844.744    4041.0653    -44885.81    492.10916   0.98162256 
   41300    290.09711   -416.24143    140302.28   -40979.414    3983.7852     -44963.2    492.66194    0.9824966 
   41400    294.69286   -445.36858    140402.82   -40939.144    4046.8968    -44986.04    493.29166   0.98179305 
   41500    293.48335   -584.32959    140237.05   -40942.004    4030.2871   -44972.291    493.39918   0.98295363 
   41600    294.06536   -436.45612    140207.86   -40931.837    4038.2796   -44970.117    494.11598    0.9831583 
   41700    292.91745   -166.49733    140201.48   -41004.212    4022.5158   -45026.727    494.73265   0.98320299 
   41800    295.48275   -613.42241    140235.11   -40873.781    4057.7441   -44931.525     495.8632   0.98296721 
   41900    292.65753   -457.43341    140205.62   -40904.523    4018.9465    -44923.47    497.23218   0.98317396 
   42000    295.29901    -544.0878    140025.31   -40918.864    4055.2209   -44974.084    497.28547      0.98444 
   42100     293.4941    -458.4283    140375.01   -40907.606    4030.4347    -44938.04    499.53747   0.98198755 
   42200    299.75436   -361.77765     140218.8   -40911.383    4116.4044   -45027.787    500.42599   0.98308157 
   42300    292.15089   -513.72119    140144.23    -41016.27     4011.989   -45028.259    501.38393   0.98360468 
   42400    293.86399   -681.40958    140272.21   -40932.472    4035.5143   -44967.986     502.9186   0.98270721 
   42500    294.08966   -644.53774    140133.63    -40984.99    4038.6133   -45023.604    503.48646   0.98367906 
   42600    294.85451   -626.12358    139981.58   -40989.539    4049.1166   -45038.655    505.02802   0.98474756 
   42700    289.98136   -357.57224    139652.54   -41070.121    3982.1957   -45052.317    505.73758   0.98706777 
   42800    291.65173   -585.23863    139928.19    -41025.28    4005.1342   -45030.414    507.44973   0.98512324 
   42900     298.2517   -469.07773    140220.09   -40966.339    4095.7689   -45062.108    508.84547    0.9830725 
   43000    292.15899   -398.19728    140468.66   -40959.884    4012.1002   -44971.985    510.52844    0.9813329 
   43100     293.6476   -602.25105    140619.11   -41005.513    4032.5426   -45038.056    511.03131   0.98028299 
   43200     292.8352   -705.08585     140505.4   -41018.509    4021.3863   -45039.895    512.54552   0.98107628 
   43300    293.32093   -750.62346    140414.99   -41032.608    4028.0566   -45060.665      512.903     0.981708 
   43400    294.69693   -366.85578    140423.14   -40994.301    4046.9527   -45041.253    514.68642   0.98165104 
   43500    291.06687   -540.57544    140415.28   -40988.127    3997.1025   -44985.229     516.4824   0.98170594 
   43600     288.2878   -447.82196    140501.01   -40977.506    3958.9387   -44936.444     518.6482   0.98110693 
   43700    298.90502   -591.08625    140410.27   -40959.154    4104.7407   -45063.895    519.22743   0.98174096 
   43800     295.1114   -679.56045    140489.66   -40933.007    4052.6444   -44985.651    520.30908   0.98118619 
   43900     292.8581   -698.82452    140199.85   -41026.472    4021.7008   -45048.173    520.53557   0.98321442 
   44000    292.39469   -551.07508    139974.04   -40964.138    4015.3369   -44979.475    521.15448   0.98480062 
   44100    300.84671   -558.41359    139725.31   -40854.776    4131.4051   -44986.181    521.02772   0.98655364 
   44200    292.86428   -530.11928    139847.34   -40972.101    4021.7856   -44993.887    521.80839   0.98569278 
   44300    294.14406   -562.22956    139922.57   -41059.958    4039.3603   -45099.318    522.88259   0.98516284 
   44400     292.8321   -258.46569    139991.43   -41052.465    4021.3437   -45073.808    524.42252   0.98467825 
   44500    295.89381   -526.04211    140285.98   -41038.758     4063.389   -45102.147    525.91566   0.98261079 
   44600      288.444   -405.27568    140558.76   -41105.902    3961.0837   -45066.986    527.89261   0.98070382 
   44700    290.14493   -473.20823    140594.53   -41088.485     3984.442   -45072.927      529.156   0.98045432 
   44800      288.564   -359.81742    140434.95   -41031.792    3962.7317   -44994.523    530.36129   0.98156848 
   44900    294.35904   -502.89826    140581.42   -41073.831    4042.3126   -45116.144    533.71092   0.98054575 
   45000    288.23897    -609.9502    140599.65   -41048.913    3958.2681   -45007.181    535.16768   0.98041865 
   45100    298.30701   -707.26908    140645.64   -41002.112    4096.5284   -45098.641    536.49551   0.98009807 
   45200     291.6606   -413.78313    140391.76   -41059.814     4005.256    -45065.07    536.38897    0.9818704 
   45300    291.01507   -416.22699    140477.79   -41055.147    3996.3912   -45051.538    537.07952    0.9812691 
   45400    286.31076   -398.71214    140362.21    -41039.16    3931.7888   -44970.948    537.39382   0.98207713 
   45500    294.57931   -258.48255    140620.65   -40936.788    4045.3375   -44982.126    539.31489   0.98027221 
   45600    295.03644   -270.19511    140424.99   -40967.005     4051.615    -45018.62    539.93689   0.98163807 
   45700    294.00569   -526.48357    140724.93   -40909.746    4037.4602   -44947.206    542.30923   0.97954581 
   45800    297.75079     -613.703    140423.98   -40908.429    4088.8901   -44997.319     543.0829   0.98164517 
   45900    293.88448    -590.7657    140306.67   -40930.779    4035.7957   -44966.575    544.05527   0.98246587 
   46000    293.45273   -594.22797    140249.99   -40945.586    4029.8666   -44975.452    545.43747    0.9828629 
   46100    296.81439   -370.94582    139726.81   -40929.728    4076.0309   -45005.759    545.17794   0.98654311 
   46200    295.13118   -473.62556    139415.05    -40914.69     4052.916   -44967.606    545.96365   0.98874915 
   46300    290.37712   -545.38873    139806.69   -40983.187    3987.6305   -44970.818    548.74819   0.98597943 
   46400    290.51872   -377.47773    140224.83   -40938.904     3989.575   -44928.479    551.22897   0.98303931 
   46500    290.49638    -514.6967    140734.04   -40912.524    3989.2683   -44901.792    553.55436   0.97948242 
   46600    296.84931   -524.05661    140642.18   -40842.057    4076.5105   -44918.568    554.47175   0.98012214 
   46700    301.10422   -624.66035    140578.52   -40830.433    4134.9413   -44965.375    556.04665   0.98056599 
   46800    299.58763    -756.8726    140336.09    -40797.21    4114.1147   -44911.325    557.04011   0.98225991 
   46900    297.25981   -348.23128    139912.19   -40843.302    4082.1476    -44925.45    556.47913   0.98523596 
   47000    292.54613   -450.07313    139952.89   -40938.681    4017.4166   -44956.098    557.60652   0.98494941 
   47100    292.99809   -462.03802    140196.14   -40924.081    4023.6231   -44947.704    558.35382   0.98324049 
   47200      294.184   -883.26534    139885.92   -40909.847    4039.9088   -44949.756    559.57752   0.98542093 
   47300    296.99078    -333.9385    139895.45   -40866.375    4078.4531   -44944.828    560.44715   0.98535384 
   47400    291.42748   -454.56469    139993.97   -40897.703    4002.0547   -44899.758     561.5637    0.9846604 
   47500    292.41227   -314.42491    139944.45    -40900.57    4015.5784   -44916.148    562.27044    0.9850088 
   47600    300.62068   -494.35389    140254.26   -40870.629    4128.3011    -44998.93     563.6142     0.982833 
   47700    293.02952   -598.91834    140098.14   -40960.559    4024.0548   -44984.614    564.20456   0.98392824 
   47800    289.86625   -633.39004    139974.38   -41021.407    3980.6149   -45002.022    565.65256    0.9847982 
   47900    298.76088    -312.0286     140281.5    -40978.04    4102.7612   -45080.801    567.22338   0.98264219 
   48000    295.99925   -504.61687    140173.36    -40984.47    4064.8369   -45049.307    566.87494   0.98340023 
   48100    292.65176   -591.09465    140285.42   -40982.692    4018.8672   -45001.559     568.8443   0.98261469 
   48200    298.23123   -684.16854    140114.78   -40965.439    4095.4878   -45060.927    569.84721   0.98381142 
   48300    290.92318    -560.7875    140132.54   -40935.334    3995.1293   -44930.463    571.14009   0.98368667 
   48400    295.43855   -224.85173    140406.64   -40908.673     4057.137    -44965.81    573.55534    0.9817664 
   48500    288.21055   -638.30731    140569.44   -40946.835    3957.8779   -44904.713    575.22482   0.98062937 
   48600    296.57579   -523.06261    140352.68   -40935.922    4072.7544   -45008.677    574.40531    0.9821438 
   48700     288.5962   -420.30511    140278.27   -41040.917    3963.1738   -45004.091     575.2398   0.98266477 
   48800    294.82071   -573.22623    140188.86   -40992.744    4048.6526   -45041.396    576.31385   0.98329153 
   48900    293.52383   -274.60996     140074.7   -40986.764    4030.8429   -45017.607     577.7279   0.98409291 
   49000    292.73748   -485.42708    139993.91   -40963.179    4020.0444   -44983.223    578.19526   0.98466084 
   49100    291.61286   -607.12989    139935.89   -41053.966    4004.6004   -45058.567    579.37227   0.98506908 
   49200    289.94743   -165.58376    139998.39   -41081.951    3981.7298   -45063.681     580.1688   0.98462932 
   49300    291.55132   -529.15473    140029.75   -41018.187    4003.7553   -45021.943    581.20655   0.98440876 
   49400    288.61039   -328.14058    140288.92   -41016.748    3963.3687   -44980.117    583.64318    0.9825902 
   49500     292.4492   -530.36272    140079.92    -40993.83    4016.0855   -45009.915    584.11088   0.98405622 
   49600    289.27755   -329.97524    140029.02   -41000.938    3972.5305   -44973.469    585.11837   0.98441389 
   49700    295.97271   -636.13854    140273.32   -40970.157    4064.4724   -45034.629    588.22987   0.98269947 
   49800    293.11537   -726.36013    140030.73   -40957.247    4025.2337   -44982.481    588.74944   0.98440188 
   49900    297.57189   -540.77725    139846.43   -40964.877    4086.4333   -45051.311    589.98658   0.98569923 
   50000     294.2918   -349.38617    139730.21   -41049.551    4041.3892    -45090.94    590.89274   0.98651906 
   50100    290.30227   -381.19377    139515.81   -41046.137    3986.6027   -45032.739    591.42639   0.98803511 
   50200     293.1372    -433.2292    139858.68   -41026.619    4025.5335   -45052.152    593.34317   0.98561286 
   50300    297.18133    -383.8553    140083.59   -40966.385    4081.0699   -45047.455    593.73583   0.98403042 
   50400    296.45815   -403.65187    140190.96   -41005.692    4071.1388    -45076.83    595.77345   0.98327678 
   50500    293.54654   -277.83566    140529.11   -40999.965    4031.1549    -45031.12    598.04137   0.98091074 
   50600    291.69298   -524.52912    140750.14   -41020.678    4005.7006   -45026.378    600.29108   0.97937038 
   50700    296.57964   -428.63444    140733.74   -40904.356    4072.8071   -44977.163    601.67144   0.97948451 
   50800    295.03458   -594.00481    140616.01   -40909.957    4051.5894   -44961.547    602.50782   0.98030458 
   50900    296.43955   -471.66366    140491.17   -40930.758    4070.8834   -45001.641    602.32691   0.98117565 
   51000    294.49598   -636.21364    140520.71   -40970.702    4044.1931   -45014.895    605.00155   0.98096938 
   51100    292.77518   -405.37897    140572.95   -40923.464    4020.5621   -44944.027    606.88345   0.98060485 
   51200    296.47933   -393.67073    140579.29   -40811.921    4071.4296   -44883.351     607.6777   0.98056064 
   51300    295.22111   -439.57893    140728.45   -40861.019    4054.1511    -44915.17    609.23199   0.97952132 
   51400    288.11327   -644.25164    140139.05   -41033.716     3956.542   -44990.258    608.70714   0.98364103 
   51500    294.23014   -467.40145    139878.65   -41020.643    4040.5424   -45061.185    609.03442   0.98547214 
   51600    293.21405   -494.16943    140100.56   -41011.673    4026.5888   -45038.262    610.46349   0.98391122 
   51700    285.81301   -368.66043    140061.41   -41025.736    3924.9534   -44950.689    611.46817   0.98418628 
   51800    293.10427   -422.72911    139971.43   -41032.461    4025.0813   -45057.542    613.37621   0.98481894 
   51900    297.50585   -540.78131    139695.88   -41096.731    4085.5264   -45182.258    612.96027   0.98676151 
   52000    292.23174   -569.74009     139698.5   -41052.908    4013.0992   -45066.008    615.03791     0.986743 
   52100    294.26884   -534.42206    139885.33   -41051.951    4041.0738   -45093.025    616.62224   0.98542514 
   52200    294.13858   -636.83082    139921.35   -41067.189     4039.285   -45106.474    617.60049   0.98517142 
   52300    293.85684   -428.01088     139730.3   -41074.943    4035.4161   -45110.359    618.21792   0.98651844 
   52400    292.81431   -465.34719    140039.31   -41006.087    4021.0994   -45027.186     621.3182   0.98434162 
   52500    291.00056   -314.16531    140148.66    -40981.31     3996.192   -44977.502     622.3756   0.98357358 
   52600    289.67209   -521.74831    140395.03   -41037.739    3977.9486   -45015.688    623.30496   0.98184759 
   52700    291.16488   -581.08457    140109.56   -41039.736    3998.4485   -45038.184    623.13983   0.98384807 
   52800    294.45963   -464.04414    139905.86   -41131.386    4043.6939   -45175.079    623.84075   0.98528054 
   52900    287.68353   -440.77673    140083.81   -41166.873    3950.6406   -45117.513    625.74882    0.9840289 
   53000    286.76265    -477.6649    140075.99   -41204.024    3937.9944   -45142.018    626.93453   0.98408384 
   53100     285.0504   -574.40031    140080.31    -41162.17    3914.4808    -45076.65    626.95989   0.98405345 
   53200    295.32216    -523.9072    140228.36   -40970.384    4055.5386   -45025.923    629.00169   0.98301456 
   53300    290.85328   -537.68298    139997.27   -41001.716    3994.1694   -44995.885    629.49704   0.98463715 
   53400     301.4246   -330.94956    140008.79   -40865.435     4139.341   -45004.776    631.21354   0.98455616 
   53500    296.12345   -581.56629    139977.32   -40906.003    4066.5425   -44972.546    633.02982   0.98477752 
   53600    297.40634   -662.59069    139899.64   -40897.447    4084.1599   -44981.607     632.9368   0.98532429 
   53700    293.10322   -313.78741    139826.31   -40993.033    4025.0669   -45018.099    633.31627   0.98584103 
   53800      293.416   -513.88285     139581.2   -41038.984    4029.3621   -45068.346     634.0712   0.98757223 
   53900    292.30164   -263.69278    139802.08   -41026.099    4014.0592   -45040.158    635.60663   0.98601191 
   54000    294.41931   -395.38426    139840.83       -40950    4043.1403   -44993.141    636.23257    0.9857387 
   54100    295.15466   -440.26595    139770.66   -40933.691    4053.2385    -44986.93    636.74173   0.98623359 
   54200    294.17889   -604.95887    139306.03   -41022.321    4039.8387    -45062.16    635.84986   0.98952297 
   54300     294.5441   -646.37162    139434.36   -40916.035    4044.8539   -44960.889     637.9007   0.98861226 
   54400    296.23401   -451.38923    139664.66   -41046.745    4068.0607   -45114.806    639.56149   0.98698209 
   54500    295.05479   -444.76287    139989.64   -40978.306    4051.8671   -45030.173    641.36263   0.98469085 
   54600    294.05488   -464.84976    139946.62   -40975.583    4038.1357   -45013.719    642.01549   0.98499357 
   54700     295.1531    -436.9955    140187.39   -40976.238    4053.2171   -45029.455    644.25292   0.98330186 
   54800    294.22736   -669.28781    140303.18   -40971.821    4040.5043   -45012.325    646.30287    0.9824903 
   54900    290.55842   -550.24909    140614.83   -40912.666    3990.1202   -44902.787    647.93091   0.98031276 
   55000    299.89345   -552.45828    140329.66   -40867.116    4118.3143    -44985.43     648.4992   0.98230492 
   55100    298.10293   -583.47798    140573.71   -40854.622    4093.7258   -44948.348    650.29083   0.98059953 
   55200    297.38463   -361.59578    140436.28   -40842.622    4083.8617   -44926.484    650.39596   0.98155915 
   55300     292.0428   -710.95943    140558.79   -40880.605    4010.5045    -44891.11    652.43647   0.98070361 
   55400    292.80073   -393.10061     140388.1   -40881.849    4020.9129   -44902.762    652.84289   0.98189603 
   55500    296.17586   -629.39881    140191.94   -40878.493    4067.2622   -44945.755    653.73149   0.98326989 
   55600    297.47473   -415.02697    140531.51    -40812.19    4085.0991   -44897.289    655.84041   0.98089402 
   55700    291.47795   -589.87938    140480.47   -40908.907    4002.7477   -44911.655    656.31847    0.9812504 
   55800    294.13125     -395.231    140150.87   -41033.504    4039.1844   -45072.689     656.8634   0.98355808 
   55900    292.58383   -249.55159    140254.96   -41094.333    4017.9343   -45112.267    658.71799   0.98282811 
   56000     293.4413   -654.86989     140409.6   -41104.257    4029.7096   -45133.967    660.94665   0.98174565 
   56100     293.2383   -484.85667    140530.32   -41122.151    4026.9219   -45149.073    661.88884   0.98090229 
   56200    289.99952   -349.62212     140698.4   -41026.835    3982.4451    -45009.28    663.14569   0.97973052 
   56300    298.48402   -665.74244    140851.88   -40965.328    4098.9593   -45064.288    664.73025   0.97866297 
   56400    298.93828   -532.62927    140839.77   -40874.998    4105.1974   -44980.195    666.18642   0.97874707 
   56500    293.47628   -682.05366    140488.16   -40975.989      4030.19   -45006.179     666.3745   0.98119666 
   56600    292.51127   -471.56501    140570.47     -40925.9    4016.9379   -44942.838     669.2667   0.98062214 
   56700    292.55495   -555.78021    140249.72   -40932.932    4017.5377   -44950.469     669.2866   0.98286483 
   56800    293.81353   -516.77674    140100.16   -40885.909    4034.8214   -44920.731    670.15325   0.98391409 
   56900    291.25386   -558.75494    140167.39   -40941.053    3999.6704   -44940.723    671.83468   0.98344213 
   57000     292.5509   -591.35928       140265   -41011.223    4017.4821   -45028.705    672.71414   0.98275776 
   57100    286.37724   -364.37576    140319.38    -41169.87    3932.7017   -45102.572    674.00959   0.98237687 
   57200    286.12458   -501.49331    139926.47   -41197.383    3929.2321   -45126.615    674.70327   0.98513537 
   57300    288.62628    -322.6216    139890.28   -41136.704    3963.5869   -45100.291    675.77499   0.98539025 
   57400    291.96212    -414.4048    140072.93   -41065.126    4009.3966   -45074.522    677.66781    0.9841053 
   57500    290.32106   -365.17726    140235.86   -41053.274    3986.8606   -45040.134    679.07053   0.98296198 
   57600    287.20354   -318.18287    140100.44   -41129.722     3944.049   -45073.771    678.76701   0.98391209 
   57700    295.87822   -285.00922    140588.01   -40999.944    4063.1749   -45063.119    681.42754    0.9804998 
   57800    290.37133   -460.60732    140229.42   -40960.664     3987.551   -44948.215    681.68771    0.9830071 
   57900    290.88994   -671.77648    140290.25    -41072.24    3994.6728   -45066.913    682.35092   0.98258088 
   58000     290.5297   -306.37533    140421.73   -41050.538    3989.7258   -45040.264    684.59953   0.98166086 
   58100    292.81125   -659.12945    140783.52   -40945.942    4021.0574   -44966.999    687.34258   0.97913815 
   58200    289.33691   -787.34339    140458.09   -41069.816    3973.3457   -45043.162    688.01481   0.98140676 
   58300    286.49943   -407.01538    140261.98   -41031.079    3934.3798   -44965.459    689.00804   0.98277888 
   58400    295.43747   -441.65819    140206.54   -40958.634    4057.1222   -45015.756    690.71143   0.98316754 
   58500    290.34022   -343.92711     140150.6   -40904.264    3987.1238   -44891.388    691.11858   0.98355996 
   58600    297.38015   -548.82302    140267.96   -40910.421    4083.8003   -44994.222    692.85198   0.98273705 
   58700    295.30202   -548.46021    140290.45    -40960.61    4055.2621   -45015.872    693.49758   0.98257947 
   58800    292.45353   -542.59261    139900.37   -40870.405    4016.1449    -44886.55    693.85497    0.9853192 
   58900    294.51821   -505.12887    140201.55    -40871.68    4044.4984   -44916.179    696.78234   0.98320249 
   59000    295.04424   -485.15403    140263.68   -40925.106    4051.7221   -44976.828    698.52533   0.98276704 
   59100    290.17307   -584.55159    140289.51   -40938.665    3984.8283   -44923.493    700.22181   0.98258609 
   59200    288.95828   -468.81924    140340.13   -40993.893    3968.1462   -44962.039    701.28225   0.98223162 
   59300    298.44126   -580.35221    140485.47   -40952.843    4098.3721   -45051.215      703.325   0.98121544 
   59400      289.511    -543.9478    140589.58   -40960.617    3975.7364   -44936.353    704.36457   0.98048885 
   59500    293.47137   -311.88564    140520.78   -40928.394    4030.1226   -44958.517      705.709   0.98096891 
   59600    300.20436   -301.87481    140760.64   -40849.151     4122.584   -44971.735    707.91745   0.97929728 
   59700    304.46317   -358.67363    140555.66   -40824.766    4181.0685   -45005.834    708.41768   0.98072546 
   59800    290.92112   -533.86478    140619.97   -40908.661     3995.101   -44903.762     710.8185   0.98027697 
   59900    298.02907   -610.94518    140398.45   -40916.865    4092.7116   -45009.576    710.98228   0.98182364 
   60000    293.60409   -725.52337    139979.15   -41001.853    4031.9451   -45033.798    710.56491   0.98476465 
   60100    289.39947   -546.10484    140154.45   -41040.788    3974.2049   -45014.993    712.89808    0.9835329 
   60200    289.62608   -506.94273    139885.79   -41019.211    3977.3168   -44996.527    713.42774   0.98542189 
   60300    298.09758   -467.01401    140124.41   -40957.816    4093.6524   -45051.469    715.98723   0.98374381 
   60400    290.97854   -463.90933    140242.17   -41047.761    3995.8896   -45043.651    717.84644   0.98291774 
   60500    290.44514   -493.54791    140202.92   -41119.771    3988.5646   -45108.336     719.6979   0.98319291 
   60600    289.49308   -316.39057    140219.13   -41008.531    3975.4903   -44984.021    722.02236   0.98307928 
   60700    298.64347   -501.52578    140315.77   -40997.155     4101.149   -45098.304     723.7052   0.98240217 
   60800    294.92981   -319.96439    140689.88   -40995.288    4050.1507   -45045.438    726.19092   0.97978984 
   60900    293.53036    -468.7206    140560.46   -40935.905    4030.9327   -44966.838    725.93719   0.98069198 
   61000    293.27672   -538.88614    140417.85   -40888.248    4027.4495   -44915.697    726.51898   0.98168797 
   61100    297.85143   -746.30228    140261.48   -40890.132    4090.2721   -44980.404    727.30737    0.9827824 
   61200    294.00848   -414.25178    140217.29   -40926.496    4037.4984   -44963.995    728.90628   0.98309215 
   61300      298.644   -469.98853    140638.52   -40856.199    4101.1562   -44957.355      732.358   0.98014764 
   61400    294.19396   -423.89951    140654.25   -40767.851    4040.0456   -44807.896    733.67202   0.98003806 
   61500     295.8206   -438.98018    140720.42   -40782.547    4062.3835   -44844.931    735.40477   0.97957722 
   61600    294.47601   -508.82438    140652.82   -40886.515    4043.9189   -44930.434    735.46057   0.98004803 
   61700     293.4553   -316.17541    140326.15    -40872.68    4029.9019   -44902.582    735.83128   0.98232949 
   61800    296.75608   -563.39995    140294.29   -40840.871    4075.2302   -44916.101    736.65307    0.9825526 
   61900    295.23021   -575.23715    140270.64   -40891.445    4054.2759   -44945.721    737.18121   0.98271822 
   62000     293.7188   -791.55035    140234.88   -40865.331    4033.5204   -44898.852    738.59783   0.98296882 
   62100    298.04706   -330.02969    140299.48    -40934.45    4092.9587   -45027.409    740.25055   0.98251621 
   62200    295.28692    -518.5696    140656.37   -40930.029    4055.0548   -44985.084     743.3297   0.98002325 
   62300    287.41671    -493.3771    140412.38   -40978.699    3946.9764   -44925.675     743.3394   0.98172622 
   62400    289.41831   -456.95124    140115.98   -41030.144    3974.4635   -45004.608     742.2074   0.98380296 
   62500    292.13013   -349.03915    140211.41   -40984.192    4011.7039   -44995.896    743.56666   0.98313335 
   62600     291.3006   -705.91594    140152.63   -40936.582    4000.3123   -44936.895    744.70531   0.98354569 
   62700    286.30197   -444.57895    140068.01   -41007.364    3931.6681   -44939.032    745.31889   0.98413989 
   62800    294.48046   -254.80403    140316.76   -40959.748      4043.98   -45003.728    746.50527   0.98239524 
   62900    291.26437   -492.45236    140387.78   -41000.819    3999.8147   -45000.633    748.33172   0.98189826 
   63000    294.86372   -369.87782    140216.73   -40963.043    4049.2431   -45012.286    748.95689    0.9830961 
   63100    294.33435   -346.63506    140547.35   -40953.089    4041.9735   -44995.062    751.65165   0.98078347 
   63200    294.10448   -559.75659    140281.37   -40970.512    4038.8168   -45009.329    751.70441   0.98264307 
   63300    288.29678   -579.37442    140095.42   -41013.446     3959.062   -44972.508    752.63702   0.98394735 
   63400    292.70928   -506.12273    139816.87   -41073.022    4019.6571   -45092.679    752.84073   0.98590759 
   63500    287.31027    -297.6558    139988.68   -40930.746    3945.5147   -44876.261    754.33191   0.98469758 
   63600    293.54876   -139.90968    140417.31   -40902.523    4031.1853   -44933.708    756.87443   0.98169175 
   63700    288.86743   -428.46915    140437.78   -40982.008    3966.8986   -44948.907    757.21004   0.98154866 
   63800    294.41719    -587.0114    140250.63   -40962.978    4043.1111   -45006.089    757.64128   0.98285844 
   63900    294.69619   -487.70006    140440.17   -40969.051    4046.9425   -45015.993    758.98049   0.98153198 
   64000     291.1486    -717.7244    140483.04   -41042.849     3998.225   -45041.074    759.93212   0.98123246 
   64100    293.46125   -733.47067    140054.86   -41015.057    4029.9835    -45045.04    758.94089   0.98423229 
   64200    291.83601   -514.91303    139885.43   -41107.429    4007.6649   -45115.094    760.33287    0.9854244 
   64300    288.15313    -418.7592    139931.07   -41137.532    3957.0893   -45094.621    761.97174   0.98510303 
   64400     288.1553   -469.32008    139960.04    -41162.53    3957.1192   -45119.649    763.24249   0.98489908 
   64500    287.26084   -502.55597    139857.19   -41137.568    3944.8359   -45082.403    763.74542    0.9856234 
   64600    292.16507   -277.48693    139615.07   -41083.782    4012.1837   -45095.966    762.83138   0.98733268 
   64700    295.74885   -681.28979    139591.83   -41033.476    4061.3983   -45094.874    763.83676   0.98749706 
   64800    295.52271   -496.48028    139539.42   -40968.797    4058.2928    -45027.09    764.91887   0.98786792 
   64900    292.85308    -363.8069    139707.79   -40983.317    4021.6319   -45004.949    766.96897   0.98667739 
   65000    292.34068   -496.66063    139967.45   -41006.179    4014.5953   -45020.774    769.41324   0.98484696 
   65100    292.42699   -680.53995    139812.73   -41046.863    4015.7805   -45062.643    770.10525   0.98593678 
   65200    286.13854   -455.31462    139695.17    -41030.62    3929.4239   -44960.044    771.57394   0.98676652 
   65300    291.57109   -281.48686    139716.12   -41034.673    4004.0268     -45038.7    772.26177   0.98661859 
   65400    290.99288   -468.17417    140129.39   -41082.529    3996.0864   -45078.615    774.37077   0.98370884 
   65500    292.52666   -283.13769    140060.23   -40987.483    4017.1493   -45004.632    775.44502   0.98419456 
   65600    294.80988    -338.0347    140511.18    -40895.99    4048.5037   -44944.494    778.84538    0.9810359 
   65700    294.75943   -413.65872    140802.99    -40903.36    4047.8109   -44951.171     780.8856   0.97900275 
   65800    294.35955   -474.95787     140736.2   -40958.975    4042.3196   -45001.295    781.42303   0.97946735 
   65900    292.93169   -523.57154    140572.26   -40914.474    4022.7113   -44937.185    781.76284   0.98060966 
   66000    292.67527   -743.46746    140502.64   -40997.888      4019.19   -45017.078    782.37276   0.98109557 
   66100    296.55561   -275.23767    140357.74   -40938.504    4072.4772   -45010.981    783.78339   0.98210842 
   66200    294.87886   -518.17154    140853.22   -40884.871    4049.4511   -44934.322    787.27697   0.97865361 
[...]
   84600    294.22168    -428.2312    140427.86   -41090.623    4040.4262    -45131.05    1013.4799   0.98161802 
   84700    286.80475    -575.1499     140218.5   -41074.126    3938.5726   -45012.698     1013.639   0.98308367 
   84800    294.49362   -445.63634    140174.34   -40987.653    4044.1607   -45031.814    1014.0151   0.98339338 
   84900    293.09077   -583.80131    140176.84   -40994.925     4024.896   -45019.821    1014.7176    0.9833758 
   85000    288.19844   -342.17509    140132.59   -41001.261    3957.7116   -44958.972    1015.6344   0.98368639 
   85100    289.01377   -657.73751    140190.47   -40989.923    3968.9081   -44958.831    1017.9747   0.98328019 
   85200    294.66708   -670.02962    140163.64   -40896.609    4046.5427   -44943.152    1018.3686   0.98346842 
   85300    293.22538    -465.2125    140120.94   -40895.563    4026.7444   -44922.307    1019.4655   0.98376818 
   85400    299.62894   -542.75295     140398.2   -40924.689    4114.6819   -45039.371    1021.8815   0.98182535 
   85500    296.31139   -357.35552    140393.06   -40940.901    4069.1234   -45010.025    1022.4223   0.98186135 
   85600    295.49179   -589.89586    140446.45   -40917.785    4057.8682   -44975.653    1023.4756   0.98148811 
   85700    290.64035   -730.85281    140367.67   -40953.272    3991.2453   -44944.517    1023.6928    0.9820389 
   85800    287.38068   -615.93856    140156.62   -40939.135    3946.4816   -44885.617    1023.5358   0.98351767 
   85900    294.03782   -346.72175    140168.36   -40948.923    4037.9014   -44986.824    1024.2652   0.98343531 
   86000    293.21989   -315.65358    140287.61   -41030.284    4026.6691   -45056.953    1026.2298   0.98259935 
   86100    297.55681   -470.47661     140461.7   -40984.552    4086.2263   -45070.778    1027.4623   0.98138149 
   86200    296.94009   -692.29215    140246.15   -41021.298    4077.7571   -45099.055    1028.7659   0.98288982 
   86300    292.63986   -425.37884    140538.26   -41043.468    4018.7038   -45062.172     1031.184   0.98084689 
   86400    292.43761   -810.03002    140331.49   -41046.274    4015.9263   -45062.201    1032.0266   0.98229209 
   86500    293.14484   -582.44981    139971.21   -41017.238    4025.6384   -45042.876    1031.1635   0.98482051 
   86600    295.02579   -326.39062    140134.67   -41018.227    4051.4688   -45069.696    1033.0487   0.98367179 
   86700    291.19581   -499.86699    140026.59    -40976.64    3998.8733   -44975.513    1033.5109   0.98443103 
   86800    293.19852   -270.38317    140036.09   -40932.699    4026.3756   -44959.075    1034.8051    0.9843642 
   86900    296.42597   -357.56023    140153.76   -40944.416    4070.6968   -45015.113    1035.7361   0.98353775 
   87000    290.55444   -414.90941    140315.44   -41030.452    3990.0656   -45020.517    1037.9377   0.98240448 
   87100     289.9006   -298.54044     140456.6   -40952.828    3981.0866   -44933.914    1040.1255   0.98141718 
   87200    296.54472   -508.95565    140338.15   -40935.184    4072.3276   -45007.511    1039.9853   0.98224547 
   87300    295.91532   -550.78289    140232.15   -40886.133    4063.6843   -44949.817    1041.8743   0.98298795 
   87400    293.99836   -464.32154    140129.48   -40955.374    4037.3594   -44992.734    1041.9379   0.98370818 
   87500    295.72344   -307.27564    140262.34   -40956.697    4061.0493   -45017.747    1043.5777    0.9827764 
   87600      294.755   -546.10626    140147.09    -40953.48    4047.7502    -45001.23     1045.572    0.9835846 
   87700    294.31523   -517.86754    140207.89   -40991.112     4041.711   -45032.823    1046.9124   0.98315809 
   87800    291.10624   -414.26946    140467.34   -40911.125    3997.6431   -44908.768    1049.8572   0.98134211 
   87900    299.10495   -610.13557    140493.86   -40853.535    4107.4863   -44961.022    1051.3541   0.98115687 
   88000    290.87947   -566.06566    139978.48   -40978.042    3994.5291   -44972.571    1047.9896   0.98476933 
   88100    294.52093   -710.45427    140103.71   -40938.002    4044.5357   -44982.537    1050.8856   0.98388911 
   88200    296.96219    -359.8673    140500.61   -40904.615    4078.0606   -44982.676    1052.7046   0.98110976 
   88300    294.20401   -519.37816    140777.66   -40883.433    4040.1836   -44923.617    1055.3994    0.9791789 
   88400    293.36779   -394.62073    140716.68   -40963.719    4028.7001   -44992.419    1056.5077   0.97960322 
   88500    293.95566   -433.79879    140305.06   -41025.851    4036.7731   -45062.624    1055.7132   0.98247716 
   88600    298.95807   -598.14787    140214.36   -41019.556    4105.4692   -45125.025    1056.5586   0.98311269 
   88700    295.95848   -838.18945    140417.53   -41001.562     4064.277   -45065.839    1058.5753   0.98169022 
   88800    294.44333    -356.3896    140651.25   -41019.497    4043.4701   -45062.967     1062.567   0.98005895 
   88900    287.02325   -820.90743    140583.77   -41093.229    3941.5731   -45034.802    1062.5545    0.9805294 
   89000    297.55234   -741.99183    140036.13   -40929.302    4086.1649   -45015.467    1060.2172   0.98436393 
   89100    291.56294    -405.8234    140287.49   -40928.869    4003.9148   -44932.784    1063.3023   0.98260018 
   89200    294.29481   -519.46351    140267.62   -41014.117    4041.4306   -45055.547    1063.5218   0.98273943 
   89300    290.15676   -65.034736    140353.66   -40958.726    3984.6044    -44943.33    1064.3159   0.98213694 
   89400    293.86349   -618.75066    140614.83   -40981.664    4035.5073   -45017.171    1067.9342   0.98031276 
   89500    294.44264   -492.48985    140617.69   -41023.424    4043.4606   -45066.885    1068.8238   0.98029287 
   89600    294.61723   -392.36037    140339.96   -40940.251    4045.8582    -44986.11    1069.4271   0.98223283 
   89700    289.89087   -506.12696    140352.84   -40996.856     3980.953   -44977.809    1071.4847   0.98214271 
   89800     290.8467   -690.75136    140414.71   -40958.579    3994.0791   -44952.658    1071.9864   0.98170994 
   89900    293.93667   -430.31914    140487.82   -41024.437    4036.5124   -45060.949    1072.9147   0.98119909 
   90000    300.18876   -424.33767    141020.28   -40970.948    4122.3697   -45093.318    1075.8075   0.97749425 
   90100    290.28034   -446.30309    140944.69   -40951.373    3986.3015   -44937.675    1076.3343   0.97801849 
   90200    289.22879   -557.10094    140461.53   -41106.654    3971.8609   -45078.515    1075.3382   0.98138268 
   90300    290.90255   -297.17627    140233.06   -41100.084     3994.846    -45094.93    1073.7035   0.98298159 
   90400    292.69367   -582.21113    140257.69   -40995.835    4019.4427   -45015.278    1074.5421   0.98280896 
   90500    293.45693   -417.64043    140481.01   -40967.089    4029.9242   -44997.013    1075.7995   0.98124663 
   90600    291.99256   -572.84894    140407.97    -40912.72    4009.8146   -44922.534    1076.2861   0.98175709 
   90700    293.29272   -597.06852    140440.03   -40898.714    4027.6692   -44926.384    1078.3878   0.98153295 
   90800    289.51825   -381.58173    140646.63   -40987.634     3975.836    -44963.47    1080.4608   0.98009116 
   90900    290.79395   -461.47398    140578.69   -41035.986    3993.3547    -45029.34    1081.1262   0.98056482 
   91000    296.72043   -600.94063    140486.52   -41004.707    4074.7405   -45079.448    1082.0732   0.98120814 
   91100    295.76052   -705.54027     140408.1   -40984.115    4061.5585   -45045.673    1083.6109   0.98175614 
   91200    293.36785   -366.23813    140492.11   -40985.696     4028.701   -45014.397     1085.936   0.98116908 
   91300    292.60716   -568.21008    140350.83   -41059.133    4018.2547   -45077.387    1085.5104   0.98215674 
   91400    291.75805   -488.80368    140149.87   -41038.807    4006.5942   -45045.401    1085.7881   0.98356508 
   91500    297.45398   -345.85936    140276.59   -41025.674    4084.8141   -45110.488    1087.0755   0.98267657 
   91600    291.94758   -558.66588    140383.94   -41068.166    4009.1969   -45077.363    1088.6622   0.98192509 
   91700    289.01038   -603.57139    140393.96   -41159.173    3968.8616   -45128.035     1089.832   0.98185501 
   91800    289.44151   -596.22978    140130.99   -41159.737    3974.7821   -45134.519    1090.4119   0.98369761 
   91900    296.78173   -135.21428     139952.2   -41117.644    4075.5824   -45193.227    1090.2804   0.98495424 
   92000    293.60256   -430.69726    140085.41   -41121.467    4031.9241   -45153.392    1093.1545   0.98401763 
   92100    294.18984   -520.77421    140377.41   -41034.875    4039.9891   -45074.864    1095.7207    0.9819708 
   92200     300.5314   -406.60478    140420.34   -40944.066    4127.0751   -45071.141    1096.5183    0.9816706 
   92300    296.02045   -480.01277    140467.09   -41022.335    4065.1281   -45087.463     1098.906   0.98134383 
   92400    296.21785    -442.7445    140545.87   -40980.073    4067.8389   -45047.912    1100.1729   0.98079378 
   92500    289.30206   -677.59393    140097.38   -40991.945    3972.8671   -44964.812    1099.0244   0.98393356 
   92600    295.88867   -395.17125    140236.42    -40960.71    4063.3184   -45024.029    1100.2361   0.98295807 
   92700    292.45337   -691.39808    139814.09   -41065.823    4016.1428   -45081.966    1098.3973   0.98592724 
   92800    294.57751   -439.27391    139639.07   -41009.174    4045.3128   -45054.486    1098.5804   0.98716294 
   92900    295.83761   -524.26535    139663.42   -40941.067    4062.6172   -45003.684    1099.8764   0.98699085 
   93000    293.10324    -588.3342    139994.61   -40964.777    4025.0672   -44989.844    1102.9743   0.98465589 
   93100    296.29738   -396.98656    140022.93   -40929.348     4068.931   -44998.279     1103.853   0.98445676 
   93200    295.68413   -337.15444    140149.39   -40892.828    4060.5095   -44953.337    1106.0039   0.98356846 
   93300     295.6288   -578.34308     140125.4   -40893.704    4059.7496   -44953.454    1106.8001   0.98373683 
   93400    296.25778    -460.8259    139946.08   -40953.608    4068.3872   -45021.995    1107.4328   0.98499736 
   93500     297.2939   -446.80572    139898.56   -40944.129    4082.6157   -45026.745     1109.435   0.98533192 
   93600    293.40296   -509.47562    139976.28   -40991.501    4029.1831   -45020.684    1110.2109   0.98478485 
   93700    291.29891   -484.63342    140144.36   -41002.932     4000.289   -45003.221    1112.2102   0.98360375 
   93800    288.24074   -423.26903    140116.31   -40954.275    3958.2925   -44912.567    1113.5385   0.98380062 
   93900     286.6785   -414.30229    139919.52   -40981.136    3936.8388   -44917.975    1114.9923   0.98518433 
   94000    291.39608   -621.83695    140157.17   -41020.269    4001.6234   -45021.892    1118.4864   0.98351383 
   94100    292.35874    -393.1444    140156.72   -41072.626    4014.8433   -45087.469    1120.6618   0.98351701 
   94200     289.8777   -570.41047    140439.94    -41069.21    3980.7722   -45049.982    1122.6614   0.98153354 
   94300    293.75031   -339.58471    140268.22    -40995.43    4033.9532   -45029.383    1122.7829   0.98273519 
   94400    292.88132   -448.61158    140605.56   -41070.607    4022.0197   -45092.627    1125.5245    0.9803774 
   94500    285.55605   -226.18508    140471.27   -41108.533    3921.4248   -45029.957    1125.8538   0.98131469 
   94600    291.62537   -451.52867    140315.05   -41119.345    4004.7722   -45124.117    1125.9599    0.9824072 
   94700     289.6365   -527.08195    140032.64    -41001.35    3977.4599    -44978.81    1126.0378   0.98438845 
   94800     290.6645    -266.4161    140287.09    -40940.58    3991.5769   -44932.157    1130.0617   0.98260304 
   94900    291.69615   -451.88122    139999.06    -40976.52    4005.7442   -44982.265    1129.3422   0.98462462 
   95000    291.93764   -560.67442    140229.69   -40968.641    4009.0605   -44977.701    1131.6573   0.98300519 
   95100    291.55126   -462.23837    140150.87    -40860.02    4003.7545   -44863.774    1132.3654   0.98355805 
   95200    292.27314   -290.66968    140223.95   -40955.383    4013.6678    -44969.05    1133.7051   0.98304547 
   95300    291.74067   -389.19863    140390.62   -40934.336    4006.3555   -44940.691    1136.8726   0.98187843 
   95400    292.87296   -380.93189    140257.38   -40942.859    4021.9048   -44964.764    1138.2169   0.98281116 
   95500    286.61547    -602.9001    140124.86   -40997.482    3935.9733   -44933.456    1138.3919   0.98374062 
   95600    290.00777   -721.03851    140116.59    -41002.84    3982.5584   -44985.398    1139.3237   0.98379866 
   95700    294.03412   -355.24992    140113.23   -40998.049    4037.8506     -45035.9    1141.9449   0.98382229 
   95800    294.00906   -361.73688    140267.32   -41006.696    4037.5064   -45044.203    1144.1336   0.98274148 
   95900    291.45814    -493.8221    139950.43   -40978.363    4002.4757   -44980.839    1142.8908   0.98496675 
   96000    297.94025   -338.51131    140008.61   -40908.271    4091.4919   -44999.763    1145.0906   0.98455745 
   96100    295.36911   -438.81228    140364.32   -40932.514    4056.1834   -44988.697    1148.6368   0.98206239 
   96200    293.70541   -501.51669     140400.4   -40925.357    4033.3365   -44958.693    1149.7481      0.98181 
   96300    294.48632    -480.6886    140058.84   -40926.767    4044.0605   -44970.827    1150.0502   0.98420436 
   96400    290.77709   -269.31685    139854.42   -40945.025    3993.1231   -44938.148    1150.7574   0.98564288 
   96500    296.85001   -589.71943    139967.88   -40928.807    4076.5201   -45005.327     1151.999    0.9848439 
   96600    295.98546   -426.43374    140323.88   -40890.014    4064.6475   -44954.662    1155.4498   0.98234542 
   96700    295.85587   -530.20033    140332.65   -40834.394    4062.8679   -44897.262    1156.9756   0.98228398 
   96800    299.56859   -500.60034    140521.44   -40799.156    4113.8531   -44913.009    1159.0775   0.98096432 
   96900    296.58139   -400.98174    140207.33   -40881.308    4072.8312   -44954.139    1159.3355     0.983162 
   97000    291.68635    -466.2238    140413.39   -40920.654    4005.6096   -44926.264    1162.0523   0.98171915 
   97100    290.74161   -645.53902    140489.88   -40943.216    3992.6359   -44935.852     1163.815   0.98118468 
   97200    292.96404   -607.18027    140508.06   -40954.586    4023.1556   -44977.742    1165.7786   0.98105775 
   97300    294.51805   -440.49215    140396.95   -40996.549    4044.4962   -45041.045    1166.9394   0.98183412 
   97400    295.51331   -648.69416    140232.31   -40931.807    4058.1636   -44989.971     1167.261   0.98298682 
   97500    294.43024   -185.84961     140108.3   -40935.163    4043.2904   -44978.453    1167.8931   0.98385686 
   97600    295.26907   -531.04958    139942.96   -40984.221    4054.8096    -45039.03    1168.3979   0.98501928 
   97700    293.70398   -260.34748    140174.58   -40984.362    4033.3169   -45017.678    1170.6842   0.98339168 
   97800     292.9579   -654.89068    140018.78   -41004.797    4023.0713   -45027.869    1170.5024   0.98448589 
   97900    297.26651   -555.91931    140042.67   -40899.856    4082.2397   -44982.096    1171.8454   0.98431797 
   98000    292.57259   -533.66045     139821.4   -40922.393      4017.78   -44940.173    1172.2234   0.98587567 
   98100    300.98095   -612.34232    140128.96   -40865.652    4133.2485   -44998.901    1176.9199    0.9837118 
   98200     294.3818    -462.4283    140177.03   -40822.687    4042.6251   -44865.313     1178.522   0.98337452 
   98300    302.06479   -602.66441    139902.59   -40831.025    4148.1324   -44979.157     1178.716   0.98530351 
   98400    304.11712   -466.64319    140259.49    -40903.71    4176.3163   -45080.026    1180.7332   0.98279635 
   98500    300.36032   -814.09858    140148.58   -40935.975    4124.7256     -45060.7    1181.9489   0.98357416 
   98600    295.84171   -674.77445    140014.87   -41001.405    4062.6735   -45064.079    1182.8498    0.9845134 
   98700    294.40333    -731.5166    139825.47   -40935.545    4042.9207   -44978.465    1182.8817   0.98584698 
   98800    292.89238   -502.46826    139761.42   -40984.664    4022.1715   -45006.835    1184.4814   0.98629879 
   98900     294.9166   -628.15928    139703.14   -40884.193    4049.9693   -44934.163    1185.5658   0.98671025 
   99000    295.19768   -442.26983    139928.71   -40851.741    4053.8293   -44905.571    1186.7985    0.9851196 
   99100    291.88114   -486.59202    140124.36   -40920.488    4008.2846   -44928.772    1189.1478    0.9837441 
   99200    295.65842   -632.81135    139945.09   -40930.632    4060.1564   -44990.788    1190.9348    0.9850043 
   99300    290.74828   -300.00997    139940.14   -40910.628    3992.7274   -44903.356    1191.7552   0.98503917 
   99400    295.59211   -684.33058    140134.19   -40880.029    4059.2458   -44939.275    1193.3466   0.98367513 
   99500    296.77524   -317.86251    140110.93   -40898.738    4075.4932   -44974.231    1195.2131    0.9838384 
   99600    290.53833   -442.15271    139976.21   -40968.306    3989.8442    -44958.15    1196.4313   0.98478532 
   99700    292.41962   -437.07373     140000.8   -40939.889    4015.6792   -44955.569    1197.4299   0.98461236 
   99800    290.84485   -671.88548    140293.24   -40924.919    3994.0537   -44918.972    1200.5188   0.98255997 
   99900    294.18522   -438.62463    140308.47   -40880.118    4039.9256   -44920.043    1202.9802   0.98245328 
  100000    292.95128    -483.8601    140207.49    -40904.31    4022.9803    -44927.29    1203.2592   0.98316088 
  100100    293.46944   -607.62903    140326.02   -40917.236    4030.0961   -44947.332    1204.9639   0.98233038 
  100200    297.59128   -780.99486    140313.41    -40910.04    4086.6996    -44996.74    1206.2916   0.98241867 
  100300     292.9403   -541.25141    140414.58   -40949.242    4022.8296   -44972.072    1208.2323   0.98171086 
  100400    295.22312   -473.75516    140450.01   -40918.898    4054.1787   -44973.077    1209.6263   0.98146322 
  100500    294.57764   -644.98198    140565.26   -40947.181    4045.3145   -44992.496    1212.3012   0.98065846 
  100600    299.77161   -737.59517    140426.79   -40935.086    4116.6412   -45051.727    1212.9379    0.9816255 
  100644    293.30073   -632.10325    140322.47   -40925.745    4027.7793   -44953.524    1213.0304   0.98235528 
Loop time of 117.938 on 6 procs for 100000 steps with 4608 atoms

Performance: 366.294 ns/day, 0.066 hours/ns, 847.903 timesteps/s
99.0% CPU use with 6 MPI tasks x no OpenMP threads

MPI task timing breakdown:
Section |  min time  |  avg time  |  max time  |%varavg| %total
---------------------------------------------------------------
Pair    | 98.58      | 99.314     | 100.61     |   7.7 | 84.21
Neigh   | 7.0582     | 7.152      | 7.3382     |   3.5 |  6.06
Comm    | 7.3701     | 8.6781     | 9.4938     |  28.3 |  7.36
Output  | 0.18062    | 0.18178    | 0.1872     |   0.6 |  0.15
Modify  | 1.8841     | 1.9492     | 1.9836     |   2.4 |  1.65
Other   |            | 0.6634     |            |       |  0.56

Nlocal:        768.000 ave         782 max         760 min
Histogram: 2 1 0 1 0 1 0 0 0 1
Nghost:        1561.50 ave        1593 max        1548 min
Histogram: 1 2 2 0 0 0 0 0 0 1
Neighs:        0.00000 ave           0 max           0 min
Histogram: 6 0 0 0 0 0 0 0 0 0
FullNghs:      21828.0 ave       22011 max       21642 min
Histogram: 1 1 0 1 0 1 0 0 0 2

Total # of neighbors = 130968
Ave neighs/atom = 28.421875
Neighbor list builds = 7099
Dangerous builds = 0

undump              1
unfix               2
unfix               3
unfix               4


################################################
#######         Run Simulation         #########
################################################

reset_timestep      0
log                 log.run_${NAME}
log                 log.run_liq_294K_-500atm_ML
