
# Set production fixes - Nose/Hoover
#
fix                 2 all nph iso ${PRES} ${PRES} ${PCOUPL}
fix                 2 all nph iso -500 ${PRES} ${PCOUPL}
fix                 2 all nph iso -500 -500 ${PCOUPL}
fix                 2 all nph iso -500 -500 10000.0
fix                 3 all temp/csvr ${TEMP} ${TEMP} ${TCOUPL} 837492
fix                 3 all temp/csvr 294 ${TEMP} ${TCOUPL} 837492
fix                 3 all temp/csvr 294 294 ${TCOUPL} 837492
fix                 3 all temp/csvr 294 294 5000.0 837492

# Define Order parameter
#
compute             2 all orientorder/atom nnn NULL cutoff 3.5
thermo              200
thermo_style        custom step temp press vol etotal ke pe c_1[4]

# Run 1ns simulation
dump		    1 all custom 400 prod.${NAME}.dump id type x y z vx vy vz c_2[*]
dump		    1 all custom 400 prod.ice_294K_-500atm_ML.dump id type x y z vx vy vz c_2[*]
run                 200000
Neighbor list info ...
  update every 1 steps, delay 0 steps, check yes
  max neighbors/atom: 2000, page size: 100000
  master list distance cutoff = 6.0032907
  ghost atom cutoff = 6.0032907
  binsize = 3.0016454, bins = 20 17 17
  2 neighbor lists, perpetual/occasional/extra = 1 1 0
  (1) pair sw, perpetual
      attributes: full, newton on
      pair build: full/bin/atomonly
      stencil: full/bin/3d
      bin: standard
  (2) compute orientorder/atom, occasional, copy from (1)
      attributes: full, newton on
      pair build: copy
      stencil: none
      bin: none
Per MPI rank memory allocation (min/avg/max) = 5.819 | 5.819 | 5.820 Mbytes
Step Temp Press Volume TotEng KinEng PotEng c_1[4] 
       0    294.97069   -511.15876    149265.57   -47467.715    4050.7121   -51518.427    0.1501386 
     200    294.14026   -491.52764    149263.16   -47457.883    4039.3081   -51497.191   0.15251005 
     400    296.99121   -488.50357     149243.7   -47451.932    4078.4591   -51530.391   0.15032129 
     600    292.90685   -492.31886    149213.44   -47489.954    4022.3702   -51512.324   0.14648566 
     800    299.01423   -482.86294    149230.55    -47505.95    4106.2404    -51612.19   0.14327338 
    1000    292.67106    -529.7889    149269.53   -47518.123    4019.1323   -51537.255   0.15373896 
    1200    292.20333   -514.65351    149239.25   -47544.279     4012.709   -51556.988   0.15024322 
    1400    289.10692   -460.93646    149208.85   -47534.257    3970.1873   -51504.445    0.1493148 
    1600    293.28982    -467.9187    149224.48   -47537.659    4027.6294   -51565.288   0.14941635 
    1800    284.44583   -535.39167    149262.85   -47542.158    3906.1785   -51448.336   0.15290926 
    2000    293.80442   -493.62452    149237.16   -47497.037    4034.6963   -51531.734   0.14911575 
    2200    292.65752   -465.37843    149198.06   -47465.338    4018.9463   -51484.284   0.14854983 
    2400    296.79517   -461.54035    149286.66   -47484.218    4075.7669   -51559.985   0.14793111 
    2600    294.47579   -592.98514    149352.94   -47528.853    4043.9158   -51572.769   0.14856638 
    2800    293.85664   -430.39506    149212.23   -47546.563    4035.4132   -51581.976   0.13869423 
    3000    292.74374    -443.1178    149169.26   -47559.868    4020.1303   -51579.998   0.14392605 
    3200    287.58184   -616.98931    149342.58   -47503.751    3949.2441   -51452.995   0.15641373 
    3400    291.58507   -597.95713    149411.48   -47542.961    4004.2188    -51547.18   0.14877287 
    3600    291.83495   -454.43173    149177.25   -47574.792    4007.6503   -51582.442   0.14347639 
    3800    294.60904   -371.37877    149079.62   -47501.126    4045.7458   -51546.872   0.14893694 
    4000    294.92232   -638.22223    149407.87    -47492.94    4050.0478   -51542.988   0.14899229 
    4200    291.04305    -632.7303    149457.42   -47508.391    3996.7754   -51505.166   0.14288932 
    4400    296.72088   -360.27132    149062.88    -47497.83    4074.7468   -51572.577   0.14188833 
    4600    294.73868    -332.9297    149060.84   -47477.465     4047.526   -51524.991    0.1481869 
    4800    290.14669   -680.29661    149524.94   -47464.144    3984.4661    -51448.61   0.14806663 
    5000    290.95871   -652.88169    149467.92   -47442.567    3995.6172   -51438.184   0.14814925 
    5200     295.5734   -303.71128    148961.39   -47448.542    4058.9888    -51507.53   0.14499459 
    5400    289.86915   -370.44019    149075.02   -47408.288    3980.6548   -51388.942    0.1535504 
    5600    300.40008   -731.34398    149635.65   -47388.158    4125.2717    -51513.43   0.14788592 
    5800    293.93446   -595.09853       149448   -47377.884     4036.482   -51414.366   0.14827229 
    6000    300.13847   -176.76114    148908.08   -47368.116    4121.6791   -51489.795   0.14680193 
    6200    293.96224   -450.92378    149185.88   -47360.856    4036.8634   -51397.719    0.1502645 
    6400    296.66694   -770.74434    149688.61   -47323.754    4074.0061    -51397.76    0.1483238 
    6600    299.38892    -609.1742    149378.23   -47367.283    4111.3859   -51478.669   0.14831865 
    6800    293.19515   -202.49081    148887.03   -47409.883    4026.3293   -51436.212   0.15172813 
    7000    295.32729   -429.91849    149208.42   -47411.569    4055.6091   -51467.178   0.15066659 
    7200    298.26183    -748.8895    149653.43   -47353.842     4095.908    -51449.75   0.14599294 
    7400    301.25474   -494.76493    149299.51   -47341.706    4137.0084   -51478.714   0.14618316 
    7600    296.54241   -243.98309    148933.68   -47378.578     4072.296   -51450.874   0.14513548 
    7800    292.51293   -535.32409    149306.69   -47405.802    4016.9608   -51422.763   0.15436791 
    8000    294.81702   -742.29878    149579.14   -47368.529    4048.6018   -51417.131     0.151978 
    8200    292.89217   -413.89922    149201.08   -47408.319    4022.1687   -51430.487    0.1467204 
    8400    298.95014   -286.20965    148992.52   -47436.723    4105.3603   -51542.083   0.14369898 
    8600     296.9748   -575.32508    149411.99   -47392.731    4078.2338   -51470.965   0.14372033 
    8800    298.34069   -713.77234    149615.67   -47319.779     4096.991    -51416.77   0.15230566 
    9000    301.74131    -419.9077    149219.82   -47302.741    4143.6902   -51446.432   0.15100623 
    9200    303.07707   -304.11514    149093.92   -47288.932    4162.0338   -51450.966   0.15035195 
    9400     296.9118   -644.54889    149516.65   -47336.305    4077.3685   -51413.674   0.14692055 
    9600    297.16779   -654.62424    149543.24   -47325.474     4080.884   -51406.358   0.15140926 
    9800    296.28829   -355.85034    149128.73   -47345.314    4068.8062   -51414.121   0.15247347 
   10000    295.63934   -344.44661    149155.85    -47342.41    4059.8945   -51402.304   0.14616817 
   10200     295.3734   -731.26557    149587.49   -47332.377    4056.2423    -51388.62   0.15070503 
   10400    293.59911    -639.8231     149495.2   -47317.782    4031.8767   -51349.658    0.1558368 
   10600    298.34479   -297.96369    149079.63   -47303.777    4097.0472   -51400.824   0.15111687 
   10800     297.4085   -396.17653    149216.17   -47335.522    4084.1896   -51419.712   0.14559713 
   11000    299.65183   -657.87001    149567.43   -47375.043    4114.9962   -51490.039   0.15073113 
   11200    296.32691   -601.08922    149388.96   -47393.597    4069.3365   -51462.933   0.15679239 
   11400    296.08007   -312.37687    149071.23   -47422.952    4065.9468   -51488.899   0.14664002 
   11600    298.90649   -480.43633    149312.47   -47394.328    4104.7609   -51499.089   0.14346395 
   11800    290.88561   -719.01235    149598.05   -47465.234    3994.6134   -51459.847    0.1494215 
   12000      294.995   -437.28765    149258.86   -47468.468     4051.046   -51519.514   0.14608538 
   12200    292.01357   -281.76861    149026.25   -47448.152    4010.1032   -51458.255   0.14229467 
   12400    291.70833   -597.95517     149416.9   -47414.896    4005.9114   -51420.808   0.14966723 
   12600    296.03876   -718.63675    149590.23   -47423.998    4065.3794   -51489.377   0.15118139 
   12800    291.53683   -370.72432    149170.18   -47436.023    4003.5563   -51439.579   0.14606426 
   13000    291.63041   -349.20742    149065.97   -47417.063    4004.8414   -51421.905   0.14599005 
   13200    295.64862   -630.58375    149480.22   -47386.229    4060.0219   -51446.251   0.14540024 
   13400    287.22346   -687.55257    149529.89   -47404.034    3944.3225   -51348.357   0.15346034 
   13600    292.70105    -371.8554    149116.94   -47398.683     4019.544   -51418.227   0.15021053 
   13800    298.13069   -333.60906    149152.98   -47393.122    4094.1071   -51487.229   0.14136737 
   14000    296.22477   -675.60115    149541.37   -47410.862    4067.9339   -51478.796   0.14435466 
   14200    292.55047   -599.05775    149410.95   -47439.057    4017.4762   -51456.533   0.15232294 
   14400    292.60765   -306.48148    149013.54   -47466.065    4018.2615   -51484.326   0.14705642 
   14600    287.38746   -439.26415     149180.6   -47460.838    3946.5748   -51407.413   0.14599022 
   14800    292.10753    -683.9627    149545.51   -47440.071    4011.3935   -51451.465   0.14919025 
   15000    290.49067   -576.40745     149351.6   -47494.248    3989.1898   -51483.438   0.14832131 
   15200    288.79026   -334.51247    149013.29   -47551.333    3965.8388   -51517.172   0.14354331 
   15400    292.26662   -457.21967    149232.02   -47567.041    4013.5782   -51580.619   0.14097928 
   15600    285.49621   -687.77257    149488.33   -47601.902     3920.603   -51522.505   0.15069031 
   15800    289.06616   -496.71605    149221.75   -47554.564    3969.6276   -51524.191   0.14645727 
   16000    290.24747   -331.28146    149025.05   -47541.807    3985.8501   -51527.657   0.14069549 
   16200    290.95559    -558.6423    149284.63   -47487.213    3995.5744   -51482.787    0.1455677 
   16400     294.6366   -643.68724    149447.37   -47481.649    4046.1242   -51527.773   0.15142378 
   16600    290.76856   -449.69765    149201.31   -47499.506     3993.006   -51492.512   0.14786903 
   16800     298.6083   -322.26522    149065.87   -47454.658    4100.6659   -51555.323   0.14064138 
   17000    293.36263   -560.64794    149306.62   -47477.507    4028.6293   -51506.137   0.14735353 
   17200    296.25974   -625.50061     149419.5   -47457.548    4068.4141   -51525.962   0.14815361 
   17400    294.50259   -394.61503    149193.35   -47505.879    4044.2839   -51550.163   0.14464297 
   17600    295.77026   -391.93363    149126.05   -47544.828    4061.6923   -51606.521   0.14103231 
   17800     294.3279   -565.40654    149328.03   -47562.919     4041.885   -51604.804   0.14340374 
   18000    285.57599   -616.75684    149363.96   -47595.544    3921.6986   -51517.243   0.14563545 
   18200    288.80881   -420.58888    149177.72   -47623.436    3966.0936   -51589.529   0.13656174 
   18400     288.8408   -427.90404    149143.16   -47645.104    3966.5329   -51611.637   0.13886125 
   18600    288.99068   -565.90966    149284.65   -47599.032     3968.591   -51567.623    0.1481144 
   18800    291.35583   -544.32548    149293.53   -47532.666    4001.0707   -51533.737    0.1464176 
   19000    290.10856   -467.01476    149189.65   -47563.026    3983.9425   -51546.968   0.14558349 
   19200    290.79559   -449.54011    149219.07   -47535.845    3993.3772   -51529.222   0.14322729 
   19400    288.66629   -543.84662    149368.84   -47525.078    3964.1363   -51489.214   0.14379762 
   19600    285.79183   -601.05411    149380.11    -47554.28    3924.6626   -51478.943   0.14471574 
   19800    290.13898   -460.96747    149221.18   -47553.205    3984.3602   -51537.566   0.14255053 
   20000    288.63524    -464.4708    149204.37   -47543.244      3963.71   -51506.954   0.14530954 
   20200    290.06289   -527.32581    149345.99   -47568.446    3983.3152   -51551.761   0.14431809 
   20400    285.37724   -553.87216    149307.67   -47547.377    3918.9692   -51466.346   0.14818457 
   20600    295.38465   -404.59628    149146.16   -47545.336    4056.3969   -51601.733   0.13806649 
   20800    289.63784   -476.16608    149218.43   -47546.264    3977.4783   -51523.743   0.14274569 
   21000    288.31962   -607.23005       149412   -47540.157    3959.3757   -51499.533   0.14728505 
   21200    294.48381   -533.34726    149339.25     -47530.6    4044.0259   -51574.626   0.14254424 
   21400    293.80849    -399.5682    149148.87   -47527.765    4034.7521   -51562.517   0.14116032 
   21600    294.47271   -450.11944    149259.04   -47482.735    4043.8736   -51526.609   0.14233754 
   21800    295.97283    -642.8295     149467.3   -47431.453    4064.4741   -51495.927   0.14496309 
   22000     291.4615   -536.47656    149337.85   -47437.584    4002.5218   -51440.106   0.14707253 
   22200    291.60971   -310.82479    149113.73   -47397.049    4004.5571   -51401.606   0.14697263 
   22400    296.17392    -511.2391    149349.17   -47373.928    4067.2356   -51441.164   0.15219705 
   22600    299.48654   -646.08809    149579.63   -47378.905    4112.7264   -51491.631   0.14650903 
   22800    294.67666   -410.45953    149277.66   -47417.073    4046.6743   -51463.747   0.13915164 
   23000    291.41403    -250.0669    149025.96   -47437.113    4001.8699   -51438.983   0.14598909 
   23200    293.45805   -579.43248    149408.66   -47429.272    4029.9396   -51459.212   0.15164349 
   23400    289.60009   -771.01438    149662.25    -47434.67    3976.9599    -51411.63   0.14943959 
   23600    295.56993   -379.99247    149154.83   -47457.216    4058.9412   -51516.157   0.14441179 
   23800     297.8957    -219.9222    148939.69   -47396.926      4090.88   -51487.806   0.14365363 
   24000    295.57758   -682.12202    149561.48   -47430.752    4059.0463   -51489.798   0.14657489 
   24200    294.24031   -779.16034    149722.21   -47410.801     4040.682   -51451.483   0.14578508 
   24400    292.96601   -274.06272    149021.03   -47421.945    4023.1826   -51445.128   0.14387247 
   24600    295.24858   -188.92965    148903.08     -47423.2    4054.5283   -51477.728   0.14631888 
   24800    300.56975   -746.53072    149667.28   -47341.577    4127.6017   -51469.179    0.1478772 
   25000    303.47054   -780.46131    149696.73   -47338.725    4167.4371   -51506.162    0.1484255 
   25200    301.55129   -206.92418    148907.57   -47369.146    4141.0808   -51510.227   0.14768933 
   25400    294.12026   -279.00235    148959.48   -47432.021    4039.0335   -51471.054   0.14662251 
   25600    294.75679   -808.47392     149724.9   -47448.096    4047.7747    -51495.87   0.14900327 
   25800    297.48754   -723.65089     149573.3   -47426.739    4085.2749   -51512.013   0.14922485 
   26000    292.01892   -160.89077    148864.56   -47409.071    4010.1766   -51419.248   0.14613913 
   26200    292.38292   -377.90778    149123.18   -47455.793    4015.1753   -51470.969   0.14414929 
   26400    294.81096    -813.9748    149712.57   -47473.909    4048.5187   -51522.427   0.14621778 
   26600    287.52163   -573.43584     149372.3   -47484.623    3948.4172    -51433.04   0.14697907 
   26800    290.38555   -197.30122    148879.47   -47493.766    3987.7462   -51481.512   0.14539866 
   27000    291.17552   -513.74132    149265.37   -47492.717    3998.5946   -51491.312   0.14623126 
   27200    295.46422   -745.35486    149641.31   -47482.492    4057.4896   -51539.981   0.14297805 
   27400    295.54481   -477.00768       149266   -47450.439    4058.5963   -51509.035   0.14567732 
   27600    297.89544   -283.81717    148975.27   -47457.674    4090.8765   -51548.551   0.14577662 
   27800    297.27086    -550.4522     149339.1   -47450.884    4082.2994   -51533.184   0.14902474 
   28000     295.2496   -678.78216    149576.68   -47435.269    4054.5423   -51489.811   0.14736526 
   28200    294.34737   -445.48102    149248.56    -47456.59    4042.1522   -51498.742   0.14538545 
   28400    297.16482   -320.85331    149099.77   -47451.996    4080.8433   -51532.839    0.1406196 
   28600    289.79379   -561.94987     149408.9   -47470.392    3979.6198   -51450.011   0.14704062 
   28800    298.77264   -629.78004    149492.78   -47481.487    4102.9227    -51584.41   0.14257303 
   29000    292.55197   -433.06847    149173.34   -47519.249    4017.4969   -51536.746   0.14831471 
   29200    290.19077   -365.00588    149098.56    -47555.86    3985.0714   -51540.932   0.14285917 
   29400    293.18291   -615.03724    149384.05   -47555.646    4026.1612   -51581.807   0.14160763 
   29600    289.07252   -591.11312    149403.99   -47515.078     3969.715   -51484.793   0.14747596 
   29800     296.4921   -395.00474       149158   -47438.671     4071.605   -51510.276   0.14705448 
   30000     296.5404   -414.58504    149171.76   -47429.331    4072.2683   -51501.599   0.14988282 
   30200    299.55418   -590.71733     149420.2   -47438.005    4113.6554    -51551.66   0.14553794 
   30400    293.18452   -557.75471    149390.86   -47490.125    4026.1833   -51516.308   0.14168513 
   30600    297.13121   -402.29955    149146.26   -47439.603    4080.3816   -51519.984   0.14807006 
   30800    299.62608   -415.26918    149229.43   -47405.542    4114.6427   -51520.184   0.14484877 
   31000    292.73906   -643.76335    149466.72   -47390.512     4020.066   -51410.578   0.15260927 
   31200    298.78597   -503.32609    149367.34   -47394.465    4103.1058   -51497.571   0.14635845 
   31400    295.59844   -427.95532    149194.11   -47393.235    4059.3327   -51452.568    0.1432101 
   31600    298.27417   -474.33697    149303.85   -47455.142    4096.0775    -51551.22   0.14100497 
   31800    291.90331    -554.7146    149401.81   -47425.119    4008.5891   -51433.708   0.14550178 
   32000    300.33701   -477.53797    149334.09   -47396.959    4124.4056   -51521.364   0.14370887 
   32200    292.97586   -479.45849    149286.36   -47431.752    4023.3179    -51455.07    0.1436027 
   32400    295.89933   -478.37478    149333.64   -47426.434    4063.4647   -51489.899   0.13930131 
   32600    294.83089   -531.05796    149371.42   -47412.071    4048.7922   -51460.863    0.1430172 
   32800    298.10288   -485.01248    149330.11    -47410.15    4093.7252   -51503.875   0.14522672 
   33000    296.55222   -441.49009    149320.56   -47399.273    4072.4306   -51471.704    0.1373808 
   33200    295.06172   -533.78318    149383.45   -47393.171    4051.9622   -51445.133   0.14678428 
   33400    301.47684   -535.28374    149377.61   -47353.999    4140.0585   -51494.057    0.1435641 
   33600    301.95704   -426.66083    149309.94   -47286.749    4146.6528   -51433.402   0.14559821 
   33800    300.13728   -500.31749    149350.72   -47322.275    4121.6628   -51443.938   0.14564245 
   34000    299.09612      -532.38    149368.16   -47344.393    4107.3649   -51451.758   0.14615454 
   34200     298.0835   -510.57189    149285.34   -47376.546    4093.4591   -51470.005    0.1488829 
   34400     294.0927   -449.15487    149250.65   -47442.992     4038.655   -51481.647   0.14413592 
   34600    297.31219   -515.01266    149333.06   -47416.643     4082.867    -51499.51   0.14374169 
   34800    296.50214   -535.01687       149338   -47457.439    4071.7429   -51529.182   0.14409423 
   35000    292.21996   -456.79307    149239.81   -47482.564    4012.9375   -51495.502   0.14147818 
   35200    295.21691   -426.68008    149231.08    -47470.54    4054.0933   -51524.634   0.14335535 
   35400    296.86681   -540.57618    149314.59   -47430.389    4076.7508   -51507.139   0.14560991 
   35600    293.71584   -532.38426    149295.31   -47424.291    4033.4798    -51457.77   0.14485727 
   35800      290.635   -458.70414    149208.07   -47425.294    3991.1719   -51416.466   0.14373738 
   36000    297.86388   -462.37006    149237.46    -47426.38    4090.4431   -51516.823   0.13862118 
   36200    295.04168   -548.48426    149340.19   -47440.951     4051.687   -51492.638   0.14830758 
   36400    293.86086   -570.59973    149310.99   -47468.299    4035.4713    -51503.77   0.15266107 
   36600    298.82899   -425.80144    149239.13   -47443.692    4103.6966   -51547.389   0.14422316 
   36800    289.01894    -520.7671    149275.25   -47487.747    3968.9792   -51456.726   0.14183404 
   37000    287.74992   -533.31584    149320.84   -47475.479    3951.5522   -51427.031    0.1436055 
   37200    294.00199   -483.43634    149255.04   -47437.435    4037.4093   -51474.844   0.14525295 
   37400    294.36307   -450.34002    149231.39   -47427.918     4042.368   -51470.286   0.14588954 
   37600    291.74698   -522.68672    149303.93   -47454.447    4006.4421   -51460.889   0.14867518 
   37800    291.34791     -542.079    149323.23   -47417.837     4000.962   -51418.799   0.14965214 
   38000    288.79216   -517.31053    149223.01    -47473.21    3965.8649   -51439.075   0.14698447 
   38200     295.4423   -448.83432    149175.32    -47468.85    4057.1886   -51526.038   0.14213737 
   38400    296.19807   -572.07937    149292.58   -47432.592    4067.5671   -51500.159   0.15260431 
   38600    293.49675   -540.37245    149312.69   -47428.058    4030.4711   -51458.529   0.15273005 
   38800     294.0864   -449.54342    149142.62    -47480.31    4038.5686   -51518.879   0.14562782 
   39000    294.65024   -389.94354    149107.26   -47508.235    4046.3115   -51554.546   0.14194751 
   39200    290.15357   -604.03639    149328.96   -47527.015    3984.5606   -51511.575   0.14498333 
   39400    292.34264   -597.97125    149349.28   -47517.864    4014.6222   -51532.486   0.14601195 
   39600    287.88673    -411.8819     149081.4   -47590.767     3953.431   -51544.198   0.14574585 
   39800    291.25218   -392.27742    149057.82    -47579.56    3999.6473   -51579.207   0.14301608 
   40000    288.74056   -606.97278    149335.11   -47589.314    3965.1563    -51554.47    0.1474957 
   40200    291.25763   -554.25255    149319.57   -47563.714    3999.7222   -51563.437   0.14509184 
   40400    288.29277   -399.91934    149081.83   -47559.348     3959.007   -51518.355   0.14365295 
   40600    291.40324     -431.969    149149.47   -47588.881    4001.7217   -51590.603   0.14221198 
   40800    289.94988   -624.52092    149364.53   -47605.886    3981.7633    -51587.65   0.14747831 
   41000    291.02055   -479.94557    149218.24   -47561.549    3996.4665   -51558.016   0.14315512 
   41200    290.20477   -368.50773    149018.26   -47596.436    3985.2637     -51581.7   0.14158236 
   41400    291.19955   -505.34568     149211.4   -47559.178    3998.9245   -51558.103   0.14369263 
   41600    292.87729   -640.78432    149407.88    -47552.62    4021.9643   -51574.584   0.14528169 
   41800    290.30891   -481.73197    149189.55   -47552.751    3986.6937   -51539.444   0.14629047 
   42000    293.23542   -366.74216    149034.31   -47526.698    4026.8824   -51553.581   0.14785638 
   42200    291.77567   -550.33217    149291.22   -47551.764    4006.8362     -51558.6   0.15237693 
   42400    294.84615   -617.35797    149355.66   -47601.986    4049.0018   -51650.987   0.14354905 
   42600    287.36788   -389.33476    149028.64   -47630.369    3946.3058   -51576.674    0.1415607 
   42800    285.91439   -396.18193    149010.95   -47632.026    3926.3456   -51558.372   0.14817777 
   43000    286.46888   -648.42821    149396.36   -47582.172    3933.9602   -51516.132   0.15079401 
   43200    291.73577   -613.22423    149385.23   -47586.573    4006.2882   -51592.861   0.14534437 
   43400     288.1208   -346.96113    148975.46   -47579.867    3956.6454   -51536.512    0.1404895 
   43600    287.61366   -389.15234    149061.98   -47575.075     3949.681   -51524.756   0.14297569 
   43800    289.69136   -743.73394     149525.1   -47544.908    3978.2133   -51523.121   0.15192561 
   44000    289.00486   -656.80013    149429.23   -47563.923    3968.7858   -51532.709   0.14624848 
   44200    294.55697   -288.79581    148948.76   -47612.272    4045.0307   -51657.303   0.13888258 
   44400    291.16219   -369.35934    149072.88   -47585.184    3998.4116   -51583.596   0.14294429 
   44600    292.59654   -717.38573    149563.36   -47516.189    4018.1089   -51534.298   0.14706687 
   44800    293.27015   -590.23031    149393.29   -47481.622    4027.3593   -51508.982   0.14797085 
   45000    288.20399   -243.51421    148902.11   -47519.962    3957.7877   -51477.749   0.14615078 
   45200    296.94526   -440.03263    149140.49   -47542.818    4077.8281   -51620.646   0.14430675 
   45400    286.79848   -844.67147    149639.06   -47587.404    3938.4865   -51525.891   0.14875821 
   45600     289.7768   -538.44553    149315.47   -47577.673    3979.3865    -51557.06   0.14343412 
   45800    290.44922   -173.68951    148822.43   -47554.692    3988.6206   -51543.313   0.14209472 
   46000    293.86866   -529.57688    149279.94   -47550.944    4035.5784   -51586.522   0.14779111 
   46200    290.12996   -877.93298     149735.5   -47579.722    3984.2363   -51563.958   0.14957941 
   46400    294.94444   -416.22136    149177.55   -47567.701    4050.3516   -51618.052   0.13792184 
   46600    291.78182   -137.86578    148776.47    -47567.72    4006.9207   -51574.641   0.14119639 
   46800    290.07005   -575.92659    149415.45   -47529.159    3983.4136   -51512.572   0.14331912 
   47000    287.44242   -876.92857     149759.1     -47502.9    3947.3295   -51450.229   0.15215209 
   47200    291.26389   -388.40912    149082.89   -47478.877    3999.8081   -51478.685   0.14585078 
   47400    297.17803   -137.57081    148854.82   -47410.948    4081.0247   -51491.973   0.14493947 
   47600    295.48084   -690.14143    149523.31   -47381.272    4057.7178    -51438.99   0.15023976 
   47800    295.99968   -761.28504    149643.74   -47347.386    4064.8428   -51412.229    0.1518965 
   48000    290.85591   -289.13737    149027.52   -47354.573    3994.2055   -51348.779   0.14853101 
   48200    291.09147   -317.66541    149006.89   -47355.685    3997.4403   -51353.125   0.15096467 
   48400    304.40879   -664.17824    149511.91   -47333.619    4180.3217   -51513.941   0.14727081 
   48600    290.85562   -705.59132     149490.9   -47397.356    3994.2016   -51391.557   0.15123235 
   48800    299.24878   -341.86684    149109.34   -47341.629    4109.4614    -51451.09   0.14471363 
   49000    299.05429   -404.14984    149210.46   -47319.647    4106.7905   -51426.438   0.14826381 
   49200    300.74481   -573.50482    149507.76   -47351.881    4130.0057   -51481.887   0.14592238 
   49400    296.41151   -545.75838    149349.73   -47363.496    4070.4983   -51433.994   0.14892205 
   49600    297.58062   -362.07165    149086.13    -47383.31    4086.5531   -51469.863   0.15114115 
   49800    298.90554   -454.64603    149225.33   -47362.095    4104.7478   -51466.843   0.15028726 
   50000    296.37724   -597.54846    149426.21   -47360.496    4070.0276   -51430.524   0.14921317 
   50200    299.28678   -536.28491    149296.67   -47399.652    4109.9832   -51509.636   0.14580451 
   50400      295.362   -365.18608    149116.69   -47404.322    4056.0858   -51460.408   0.15034136 
   50600    303.98213   -521.74514    149275.59   -47426.255    4174.4626   -51600.717   0.15261921 
   50800    292.71891    -587.5096    149385.04   -47433.957    4019.7893   -51453.746   0.15287035 
   51000    297.15465    -437.0207    149202.49   -47370.845    4080.7036   -51451.548   0.14802619 
   51200    289.15852   -406.77965    149152.73   -47402.072    3970.8959   -51372.968   0.15155505 
   51400    297.91163   -524.13718       149348   -47363.762    4091.0988   -51454.861   0.15142234 
   51600    295.03298   -594.96326    149389.39     -47363.9    4051.5675   -51415.468   0.15951168 
   51800    299.66518   -445.43665    149214.67    -47361.81    4115.1797   -51476.989   0.15382115 
   52000    298.71394   -377.50008    149168.35   -47322.919    4102.1166   -51425.035   0.14825599 
   52200    293.80336    -548.6786    149336.75   -47291.559    4034.6817   -51326.241   0.15441665 
   52400    297.26378   -558.90216    149352.87   -47271.942    4082.2021   -51354.144   0.15703652 
   52600     300.3259    -431.7178    149190.33   -47311.741    4124.2531   -51435.994   0.16239269 
   52800    301.87553   -411.20777    149202.65   -47330.403    4145.5335   -51475.937   0.15286918 
   53000    291.86235   -583.66451    149382.12   -47333.434    4008.0266    -51341.46   0.15294443 
   53200    293.65335   -547.47098    149339.41   -47340.957    4032.6216   -51373.578   0.15318131 
   53400    299.53767   -397.43092    149143.69   -47372.931    4113.4286    -51486.36   0.14837907 
   53600    294.11041   -458.20856    149238.65   -47399.347    4038.8983   -51438.245   0.15261409 
   53800    294.93097   -627.92891    149473.35    -47374.03    4050.1667   -51424.197   0.15609425 
   54000    297.98713   -525.80934    149343.84    -47366.17    4092.1356   -51458.305   0.15043593 
   54200    294.68985   -335.28313    149095.44   -47376.489    4046.8555   -51423.345   0.14984964 
   54400    297.55179   -491.23956     149269.7   -47404.241    4086.1573   -51490.399   0.15090833 
   54600    296.50745   -669.31248    149522.61   -47396.552    4071.8158   -51468.368   0.15294105 
   54800    298.89386   -535.85647       149291   -47342.177    4104.5874   -51446.764   0.15844073 
   55000    297.89525   -270.45609    149041.93   -47346.784    4090.8739   -51437.658   0.15216214 
   55200    296.61079    -556.1133    149339.08   -47375.732    4073.2349   -51448.967    0.1508411 
   55400    297.22912   -697.89936    149561.39   -47397.125    4081.7262   -51478.852   0.14998391 
   55600    293.07994   -427.74142    149185.72   -47436.622    4024.7472   -51461.369   0.14640835 
   55800    291.70016   -271.23741    148952.67   -47410.959    4005.7993   -51416.758   0.15258675 
   56000    297.14341   -619.46726    149416.01   -47393.781    4080.5491    -51474.33   0.15392449 
   56200    293.14869   -767.21554    149620.88   -47425.774    4025.6913   -51451.465   0.15615807 
   56400     295.5914   -351.24151    149059.36   -47431.973    4059.2361   -51491.209   0.15137573 
   56600    297.05962   -217.79806     148909.5   -47436.818    4079.3985   -51516.217    0.1451559 
   56800    295.43175   -684.22882    149538.17   -47382.324    4057.0436   -51439.368   0.15196798 
   57000    295.93813   -747.99298    149618.72   -47388.515    4063.9975   -51452.513   0.15703621 
   57200    292.57139   -282.96982    148951.75   -47423.215    4017.7635   -51440.978   0.15314184 
   57400    295.48898   -276.37635    148958.57   -47443.695    4057.8296   -51501.524   0.14628092 
   57600    295.28605   -765.42571    149622.22   -47427.559    4055.0428   -51482.602   0.14868293 
   57800    295.52032   -667.25979    149521.05   -47440.993    4058.2599   -51499.253   0.14565172 
   58000     294.3205   -232.06184    148855.18   -47459.779    4041.7834   -51501.562   0.15111712 
   58200    296.43366   -344.31511    149004.27   -47500.221    4070.8024   -51571.023   0.15330964 
   58400     294.0887    -779.9011    149633.04   -47486.901    4038.6001   -51525.501   0.15500002 
   58600    291.67219   -634.25105    149405.62   -47467.294    4005.4152   -51472.709   0.15100862 
   58800     295.9188   -155.29492    148839.01   -47503.892    4063.7321   -51567.624   0.14197004 
   59000    293.58245   -442.08666    149142.16   -47526.916     4031.648   -51558.564    0.1507937 
   59200    293.78815   -792.80761    149604.49   -47522.552    4034.4727   -51557.024   0.16223323 
   59400    294.13817   -481.42101    149245.75   -47466.775    4039.2794   -51506.055   0.15283788 
   59600    290.63037   -249.58019    148896.48   -47464.288    3991.1082   -51455.396   0.14585731 
   59800    292.55479   -534.43226    149298.28   -47447.878    4017.5355   -51465.414   0.14935372 
   60000    295.13199   -751.31384    149599.23   -47432.532    4052.9272   -51485.459    0.1552316 
   60200    292.96572   -444.71432    149181.22   -47407.647    4023.1787   -51430.825   0.16018021 
   60400     297.6525   -232.98739    148984.36   -47377.482    4087.5404   -51465.023   0.15249602 
   60600    291.82437   -674.50001    149472.67   -47415.628     4007.505   -51423.133    0.1573387 
   60800    301.27689   -683.73356    149555.41   -47353.251    4137.3126   -51490.563   0.15049975 
   61000    300.26229   -315.97958    149057.54   -47398.266    4123.3795   -51521.646   0.14353165 
   61200     294.6357   -292.16838     149036.3   -47401.778    4046.1118    -51447.89   0.14895623 
   61400    297.64492   -667.54279    149501.84    -47396.34    4087.4362   -51483.777   0.15612977 
   61600    292.11747    -619.5582    149456.39   -47386.093    4011.5301   -51397.623   0.15237228 
   61800    293.63727   -321.78889    149035.11   -47389.619    4032.4008    -51422.02   0.14908307 
   62000    299.09281   -405.90236    149154.94   -47414.643    4107.3195   -51521.963   0.14784134 
   62200    295.80987    -682.7323    149532.63   -47422.348    4062.2362   -51484.584   0.15208357 
   62400    296.42422   -546.16151    149373.76    -47382.02    4070.6729   -51452.692   0.15252161 
   62600    300.03073   -316.67138    149028.67   -47406.755    4120.1995   -51526.954   0.15032389 
   62800    299.36875    -477.7116    149245.07   -47381.316    4111.1088   -51492.425   0.15058042 
   63000    294.06793   -713.53098    149553.08   -47345.094    4038.3148   -51383.409   0.15568748 
   63200    293.68535   -513.83506    149287.23   -47351.934    4033.0611   -51384.996   0.14795848 
   63400    298.57601   -311.32124    149037.26   -47310.545    4100.2225   -51410.767   0.14797903 
   63600    304.15423   -549.09352     149345.5   -47289.014     4176.826    -51465.84   0.15357344 
   63800    303.23521   -686.73604    149540.81    -47317.12    4164.2053   -51481.326   0.15174282 
   64000    300.27395   -468.49012    149196.58   -47312.598    4123.5397   -51436.138   0.15253467 
   64200    296.46332   -316.74913    149040.16   -47314.303    4071.2098   -51385.513   0.14772126 
   64400    295.88538   -593.50304    149401.39   -47298.084    4063.2732   -51361.357   0.15622772 
   64600    293.14589   -700.35621     149490.4   -47352.565    4025.6529   -51378.218   0.15658649 
   64800    297.23057   -359.03747    149079.76   -47365.879    4081.7461   -51447.625      0.15462 
   65000    302.36463   -320.17113    149102.15   -47356.136    4152.2501   -51508.386   0.14752646 
   65200      293.886   -713.44621    149545.29   -47380.274    4035.8165   -51416.091   0.15058027 
   65400    292.60556   -617.33215    149424.98   -47407.779    4018.2328   -51426.012   0.14778089 
   65600    297.61567   -253.78046    148966.62   -47436.519    4087.0345   -51523.553   0.14658457 
   65800    296.99352   -402.50858     149142.6   -47410.446    4078.4908   -51488.937   0.15212558 
   66000    291.87713   -766.28255     149584.8   -47405.029    4008.2295   -51413.259   0.16096296 
   66200    290.71239   -574.41658    149333.72   -47432.753    3992.2346   -51424.987   0.15153627 
   66400    296.24582   -229.37566    148884.28   -47432.575    4068.2229   -51500.798    0.1455873 
   66600    293.28361   -437.34289    149192.62   -47444.085    4027.5441   -51471.629   0.14821682 
   66800    293.50559   -788.44133    149589.01   -47421.919    4030.5925   -51452.512   0.16225503 
   67000     295.6644   -469.91805    149184.41   -47454.762    4060.2385       -51515   0.15671791 
   67200    293.12504   -241.68327    148842.08   -47477.957    4025.3665   -51503.324   0.15045989 
   67400    294.08918   -525.30671       149280   -47509.541    4038.6067   -51548.147   0.14512448 
   67600    293.51436   -784.55089    149582.71   -47461.538     4030.713   -51492.251   0.15448592 
   67800    293.34273   -469.59813    149128.68   -47411.796     4028.356   -51440.152   0.16002856 
   68000    296.45424   -241.11447    148901.53   -47408.996    4071.0851   -51480.081   0.15339792 
   68200    291.39698   -603.80893    149417.65   -47479.309    4001.6359   -51480.945   0.15209767 
   68400    295.02433   -711.65966    149570.45   -47419.356    4051.4487   -51470.805   0.14968429 
   68600     293.7865   -352.79282    149025.85   -47408.594    4034.4501   -51443.045   0.15043487 
   68800    296.13986   -302.16692       148988   -47377.153    4066.7678   -51443.921   0.15119396 
   69000    292.77434   -696.80405    149534.44   -47418.665    4020.5506   -51439.215   0.15566727 
   69200    298.49537   -670.81252    149488.75   -47424.769     4099.115   -51523.884   0.15150272 
   69400    292.49128   -270.14064    148959.45   -47468.126    4016.6633   -51484.789   0.14939972 
   69600     292.9766   -394.21273    149075.12   -47480.954    4023.3281   -51504.282   0.15117836 
   69800    296.53386   -733.59245    149576.58   -47443.276    4072.1785   -51515.455   0.15153463 
   70000     298.9342    -574.5216    149401.63   -47404.008    4105.1414    -51509.15   0.14852484 
   70200    296.62457   -245.69623    148941.68   -47389.898    4073.4241   -51463.323   0.15226826 
   70400    294.84808   -448.83284    149183.21   -47403.245    4049.0284   -51452.274   0.15321771 
   70600    298.30837   -719.81654    149576.12   -47371.206     4096.547   -51467.753   0.15010036 
   70800    296.18826   -513.00464     149286.4    -47397.74    4067.4325   -51465.173   0.15070418 
   71000    291.93379   -282.46479    148936.22    -47446.25    4009.0077   -51455.258   0.15205673 
   71200    288.86843   -513.19286    149253.57   -47453.201    3966.9123   -51420.113   0.15426441 
   71400    294.63939   -721.60962    149549.22   -47416.524    4046.1625   -51462.686   0.15509669 
   71600    299.40743   -483.14056     149224.3   -47397.498    4111.6401   -51509.138   0.15502839 
   71800    289.94252   -335.54873    148997.16   -47418.931    3981.6623   -51400.594   0.15631701 
   72000    294.26052    -576.1766    149321.41   -47443.497    4040.9596   -51484.456   0.15013052 
   72200    295.05817   -659.69552    149438.37   -47476.915    4051.9134   -51528.828   0.14956951 
   72400    289.70571   -424.35346     149125.6   -47460.191    3978.4103   -51438.601   0.14888545 
   72600    294.17053   -346.99824    149092.77    -47426.83    4039.7238   -51466.554   0.14862158 
   72800     290.8141   -601.50323    149394.78   -47501.655    3993.6313   -51495.286   0.14988282 
   73000    291.61337   -594.83262     149379.9   -47500.315    4004.6074   -51504.922   0.14987529 
   73200    290.14985   -418.60463    149087.21   -47515.346    3984.5095   -51499.856   0.14593325 
   73400    289.20528   -397.27033    149093.96   -47510.409    3971.5381   -51481.947    0.1516637 
   73600    289.40257   -634.27677    149359.01   -47490.874    3974.2474   -51465.122   0.15650336 
   73800    287.32653   -601.11269     149297.9   -47485.009    3945.7379   -51430.747   0.15631535 
   74000    287.93242    -394.3602    149071.22   -47534.752    3954.0584    -51488.81   0.14778298 
   74200    295.49869   -484.31609    149192.12   -47532.433    4057.9629   -51590.396   0.14448984 
   74400    293.85225   -668.75651    149423.94   -47492.144     4035.353   -51527.497   0.15206925 
   74600    290.34464   -515.51879    149281.75   -47515.782    3987.1845   -51502.966   0.14772434 
   74800    291.61574   -430.30488    149133.13   -47528.389    4004.6399   -51533.029   0.14857465 
   75000    296.67174   -483.96856    149283.28   -47490.781     4074.072   -51564.853    0.1471038 
   75200    290.64438   -620.79229    149422.07   -47475.893    3991.3007   -51467.194   0.14596136 
   75400    295.43944   -477.05379    149260.96   -47465.549    4057.1493   -51522.698   0.15069601 
   75600    295.82108   -381.12051    149117.98   -47445.342    4062.3902   -51507.732   0.14776603 
   75800    298.60536   -487.44205    149326.64   -47421.477    4100.6255   -51522.103   0.14464556 
   76000    296.98976   -640.46821    149479.36   -47405.306    4078.4391   -51483.745   0.15009393 
   76200    294.10963   -489.57511    149228.47    -47434.26    4038.8876   -51473.147   0.14988426 
   76400    295.80251   -341.41332    149085.49   -47404.654    4062.1352   -51466.789   0.14954456 
   76600    296.49014   -586.96862    149385.18   -47390.407    4071.5781   -51461.986   0.14866305 
   76800    295.27123   -631.94028    149481.54   -47387.301    4054.8394    -51442.14   0.15111469 
   77000    296.52571    -385.1628    149134.21   -47393.111    4072.0665   -51465.177    0.1494897 
   77200    293.29299   -341.48661    149090.65   -47440.442    4027.6729   -51468.115    0.1476085 
   77400    294.01512   -635.21447    149443.64   -47428.282    4037.5897   -51465.872   0.15044288 
   77600     296.6486   -614.71097    149460.95   -47444.192    4073.7542   -51517.946   0.14621983 
   77800    295.94283   -353.26914    149065.49   -47458.941    4064.0621   -51523.003   0.14350604 
   78000     296.7833   -369.77405    149091.77   -47460.095    4075.6039   -51535.699   0.14908639 
   78200    291.09695   -716.10592    149533.13   -47449.902    3997.5157   -51447.418   0.15418156 
   78400    299.03506   -611.76848    149427.14   -47471.245    4106.5264   -51577.772   0.14983148 
   78600    295.09797   -228.12283    148908.71   -47492.827      4052.46   -51545.287   0.14720851 
   78800     288.4532   -407.92734    149112.22   -47477.518    3961.2101   -51438.728   0.15132015 
   79000    292.60869   -837.70925    149684.04   -47455.002    4018.2757   -51473.277   0.15781352 
   79200    291.86543   -581.43037     149359.3   -47467.833    4008.0689   -51475.902   0.15003295 
   79400    301.08531   -96.301555    148808.74    -47424.94    4134.6817   -51559.621   0.14553748 
   79600    297.79846   -475.39359    149297.23   -47413.753    4089.5447   -51503.298   0.14583223 
   79800     292.9871   -896.55696    149842.68   -47434.004    4023.4723   -51457.477   0.15063622 
   80000    297.63964   -440.85534    149203.74   -47411.338    4087.3637   -51498.702   0.14720523 
   80200    298.97273    -94.84038    148751.32   -47379.294    4105.6705   -51484.964   0.14942666 
   80400    298.70527    -654.4564    149555.46   -47345.118    4101.9975   -51447.116   0.15641099 
   80600    296.24584   -930.16439     149895.7   -47361.262    4068.2232   -51429.485   0.15193805 
   80800    302.52268   -303.15938    149035.81   -47311.728    4154.4205   -51466.148   0.15050481 
   81000    299.35682   -123.50101    148801.61   -47366.356    4110.9451   -51477.301   0.14836214 
   81200    296.03475   -755.80701    149615.32   -47341.078    4065.3245   -51406.402    0.1579646 
   81400    298.21216   -790.91803    149707.84   -47314.903    4095.2259   -51410.129   0.15543541 
   81600    298.97812   -210.25505    148969.46   -47341.123    4105.7445   -51446.867   0.14770015 
   81800    303.42262   -290.62826    149002.97   -47346.115     4166.779   -51512.894   0.15239182 
   82000    301.67661   -741.15982    149624.37   -47306.344    4142.8018   -51449.146   0.15330347 
   82200    296.86968   -675.85698    149487.37   -47351.516    4076.7902   -51428.306   0.16195273 
   82400     298.6405   -215.71985    148936.74   -47356.208    4101.1081   -51457.316   0.15231186 
   82600     292.7796   -406.64683    149132.71   -47400.986    4020.6228   -51421.609   0.15394474 
   82800     292.7671   -754.29205    149586.48   -47436.874    4020.4511   -51457.325   0.15740761 
   83000    294.58949   -516.91981    149325.22   -47422.615    4045.4773   -51468.092   0.15350606 
   83200    289.99623   -287.52902    148978.03   -47445.189    3982.3999   -51427.589   0.15411639 
   83400    292.01109    -499.2904    149259.37   -47465.617    4010.0691   -51475.686   0.15074311 
   83600    291.93198   -681.53146    149518.05   -47478.402    4008.9827   -51487.385   0.14981423 
   83800    292.80661   -484.57948    149209.85   -47430.604    4020.9937   -51451.598   0.15727226 
   84000    290.83045   -329.66382    149017.99   -47461.797    3993.8558   -51455.653   0.15137848 
   84200    292.36974   -543.02379     149339.8   -47447.567    4014.9943   -51462.561   0.14658688 
   84400    293.85059   -672.86868    149503.02    -47449.35    4035.3303   -51484.681    0.1546929 
   84600    294.06158   -397.75903    149154.01   -47448.532    4038.2276    -51486.76   0.15342576 
   84800    294.28671   -316.18079     149065.6   -47460.885    4041.3193   -51502.204    0.1500121 
   85000    297.97503   -597.84897    149457.69   -47422.357    4091.9695   -51514.327   0.14993299 
   85200    300.28769     -653.692    149540.46   -47390.511    4123.7283    -51514.24   0.14943979 
   85400    294.12575   -392.04337    149144.85   -47379.015    4039.1089   -51418.124    0.1553136 
   85600    297.73946   -371.81881    149119.51   -47378.351    4088.7345   -51467.085   0.15061933 
   85800    299.41668   -641.42047    149516.16   -47389.315    4111.7671   -51501.082   0.15021869 
   86000    294.59634    -606.7682    149492.94   -47341.814    4045.5713   -51387.385   0.15215485 
   86200    296.88076   -357.53688    149148.15   -47356.179    4076.9423   -51433.122   0.14840879 
   86400    298.01727   -435.37258    149217.59   -47350.571    4092.5496    -51443.12   0.15432581 
   86600    303.40004   -619.26563    149525.65   -47347.087    4166.4689   -51513.556   0.14989236 
   86800    293.48324   -547.50187    149386.51   -47377.144    4030.2855   -51407.429   0.15825506 
   87000    300.53075   -338.94727    149075.84   -47402.185    4127.0661   -51529.251   0.15315653 
   87200    294.65703   -454.72549    149215.43   -47370.325    4046.4048    -51416.73   0.15291535 
   87400    297.12366   -651.81839    149510.38   -47330.396    4080.2779   -51410.674   0.15388964 
   87600    295.41306   -547.70035    149339.14   -47399.939     4056.787   -51456.726   0.15505206 
   87800    294.85313   -317.02368    149061.75   -47408.593    4049.0977   -51457.691   0.15349979 
   88000    293.87049   -512.56818    149294.18   -47358.213    4035.6035   -51393.816   0.15634758 
   88200    291.45809   -756.88366    149565.34   -47366.753     4002.475   -51369.228   0.15874502 
   88400    296.79112   -410.30079    149249.35   -47355.473    4075.7114   -51431.184    0.1492153 
   88600    292.34173   -311.30061    149044.14   -47370.911    4014.6096    -51385.52   0.15097341 
   88800    295.14761   -572.58766     149437.7   -47359.281    4053.1417   -51412.423   0.15334637 
   89000    295.72033   -744.57405    149600.69   -47379.365    4061.0066   -51440.372   0.15890238 
   89200    302.97502   -371.17525    149133.08    -47356.91    4160.6324   -51517.542   0.15281059 
   89400    298.11278   -263.97317    149056.31   -47329.856    4093.8612   -51423.717   0.14824884 
   89600    296.95532   -691.16291    149567.25   -47348.868    4077.9662   -51426.834   0.15573943 
   89800    297.38309   -677.11446    149517.36   -47384.378    4083.8406   -51468.219   0.15845757 
   90000    295.60517   -210.31469     148939.8   -47404.105    4059.4251   -51463.531   0.15090422 
   90200    290.99626   -349.79838    149079.63   -47450.667    3996.1328     -51446.8   0.15356643 
   90400    293.29523   -811.66607    149658.58   -47465.821    4027.7037   -51493.525   0.15540366 
   90600    292.84358   -558.33615    149365.81   -47458.733    4021.5014   -51480.234   0.15061835 
   90800    295.97271   -122.90792    148754.58   -47488.197    4064.4724    -51552.67   0.14772865 
   91000    291.65932   -438.35478    149159.01    -47486.28    4005.2384   -51491.519   0.14761396 
   91200    291.61752   -917.66786    149796.73    -47492.65    4004.6644   -51497.314   0.15858545 
   91400    290.34939   -528.76367    149276.69   -47487.476    3987.2496   -51474.726   0.15414776 
   91600    293.32568   -59.370078    148657.74   -47496.047    4028.1219   -51524.169   0.14774513 
   91800    292.40165   -566.82607     149335.8   -47469.622    4015.4326   -51485.055   0.15136664 
   92000    295.83024   -980.59363    149944.89   -47476.801     4062.516   -51539.317   0.15300801 
   92200    291.21971   -365.13788    149083.55   -47507.403    3999.2014   -51506.605    0.1507164 
   92400     293.5717      30.2502     148533.2   -47489.463    4031.5003   -51520.964   0.14673921 
   92600    286.50571   -753.18671    149519.44   -47541.937     3934.466   -51476.403   0.15206165 
   92800    293.08117   -960.98077    149871.15   -47504.359    4024.7642   -51529.123   0.15020241 
   93000    294.13938   -182.73771    148844.28   -47439.279    4039.2961   -51478.575   0.14514843 
   93200    291.11716   -70.755374    148704.54    -47439.76    3997.7932   -51437.553   0.14942553 
   93400    295.31355   -849.69814    149656.92   -47437.112    4055.4205   -51492.533   0.16323001 
   93600    292.24929   -810.93183    149626.75   -47418.766    4013.3402   -51432.107   0.16070759 
   93800    300.38493   -174.45243    148833.28   -47415.957    4125.0637   -51541.021   0.14771327 
   94000    297.67546   -258.51268    148973.85   -47416.302    4087.8556   -51504.158   0.14719668 
   94200    289.37921   -771.03091    149546.88   -47493.739    3973.9266   -51467.665   0.15704898 
   94400     295.7971   -620.09633    149321.95   -47480.643    4062.0609   -51542.704   0.15609181 
   94600    292.39352   -288.08993    148910.31   -47479.909     4015.321    -51495.23    0.1501011 
   94800    289.90268   -427.96624    149149.58   -47530.456    3981.1152   -51511.571   0.14719367 
   95000    287.57357    -723.3969    149453.89   -47534.189    3949.1304   -51483.319   0.15465452 
   95200    288.67645   -497.18476    149180.77   -47541.311    3964.2758   -51505.587   0.15359314 
   95400    291.90637   -322.78049    148947.05   -47555.527     4008.631   -51564.158   0.15320264 
   95600    292.92752   -505.72289    149201.62   -47515.383    4022.6541   -51538.037   0.15729832 
   95800    295.00077   -686.24769    149385.84   -47476.307    4051.1252   -51527.432   0.15543977 
   96000    294.93921   -462.59383    149132.97   -47469.509    4050.2797   -51519.789   0.14972975 
   96200    292.77567     -367.365    149017.57   -47511.935    4020.5688   -51532.503   0.14588454 
   96400    292.80416   -547.79028    149272.74   -47502.633      4020.96   -51523.593    0.1507595 
   96600    287.88877   -601.80798    149372.08   -47513.347     3953.459   -51466.806   0.15106009 
   96800    295.35885   -457.82867    149136.52   -47569.672    4056.0425   -51625.714   0.14528121 
   97000    295.09817   -339.08686    149032.85   -47554.222    4052.4627   -51606.684   0.14462882 
   97200    294.58891   -573.11835    149284.12   -47539.777    4045.4693   -51585.247   0.14946343 
   97400    289.44281   -602.76256    149361.98   -47491.547    3974.7999   -51466.346    0.1520004 
   97600    293.53027   -433.07956    149142.65   -47465.625    4030.9314   -51496.557   0.15325172 
   97800    293.19049   -410.26004    149099.32    -47460.41    4026.2654   -51486.676   0.15407312 
   98000    293.92799   -575.14997    149304.79   -47430.664    4036.3931   -51467.057   0.15606353 
   98200     298.9228   -555.04021    149292.23   -47441.715    4104.9848     -51546.7   0.14533679 
   98400    295.31736    -383.1428     149086.6   -47370.519    4055.4728   -51425.992   0.15139848 
   98600     295.7475   -442.68395    149124.07   -47418.668    4061.3797   -51480.047   0.15379535 
   98800    292.39064    -543.2358    149320.22   -47378.115    4015.2814   -51393.397   0.15379785 
   99000    297.30293   -557.72047    149258.69     -47382.1    4082.7398    -51464.84    0.1565942 
   99200    292.41875   -397.74059    149058.86   -47448.593    4015.6674   -51464.261   0.15227977 
   99400    288.61847   -454.62109    149156.98   -47542.228    3963.4796   -51505.708   0.14947828 
   99600     289.3172   -649.32457    149359.48   -47564.489    3973.0751   -51537.564   0.14937387 
   99800    291.04224   -503.40978    149260.08   -47536.505    3996.7643   -51533.269   0.15121161 
  100000    290.67869   -356.95101    149053.36   -47539.035    3991.7718   -51530.807   0.15073181 
  100200    290.46525   -493.80336    149238.96    -47494.69    3988.8408    -51483.53   0.15098537 
  100400    294.11633     -636.994    149471.74   -47491.425    4038.9795   -51530.405    0.1454348 
  100600     294.9408   -460.09218    149254.47    -47441.17    4050.3017   -51491.471    0.1448687 
  100800    289.15904   -335.08225    149037.35   -47472.802    3970.9031   -51443.705   0.15051272 
  101000    293.37807   -545.98373    149318.88   -47455.159    4028.8413   -51484.001   0.15538862 
  101200    295.46421   -713.01262    149566.39   -47431.449    4057.4894   -51488.939   0.15137587 
  101400    292.02123   -472.81194    149234.39    -47441.34    4010.2084   -51451.548   0.15016393 
  101600    296.96363   -269.74624    148995.55   -47461.114    4078.0804   -51539.195   0.14697214 
  101800    295.09259   -617.35421    149402.77   -47424.967    4052.3861   -51477.353   0.14922467 
  102000    294.33183   -750.71441    149628.86   -47423.988     4041.939   -51465.927    0.1535902 
  102200    294.32598   -419.60496    149187.91   -47420.123    4041.8586   -51461.981   0.15497843 
  102400    299.71584   -242.66171    149006.45   -47364.375    4115.8753   -51480.251   0.14735524 
  102600    292.73611    -634.2142    149504.31   -47373.375    4020.0255   -51393.401   0.14915822 
  102800    296.81018   -687.99851    149611.02   -47383.804    4075.9731   -51459.778   0.14931465 
  103000    291.66667   -353.38054    149062.63   -47382.168    4005.3393   -51387.507   0.15834824 
  103200    297.05523   -293.38241    149021.87   -47363.677    4079.3383   -51443.015   0.15381172 
  103400    292.53134   -749.31175    149584.92   -47387.274    4017.2135   -51404.487   0.15738968 
  103600    294.49214   -657.67501    149504.17   -47390.972    4044.1404   -51435.113    0.1506565 
  103800    297.94202   -169.56224    148939.74   -47398.572    4091.5162   -51490.088    0.1463763 
  104000    295.80315   -387.90642    149137.58    -47407.17     4062.144   -51469.314   0.15151726 
  104200    301.54121   -833.50603    149701.73   -47417.008    4140.9424    -51557.95   0.15465604 
  104400     294.5216   -580.36686    149394.07   -47435.381     4044.545   -51479.926   0.15455814 
  104600    298.21255   -214.39373    148882.61   -47434.956    4095.2312   -51530.187   0.15056539 
  104800    296.91849   -501.28354    149242.56   -47424.783    4077.4605   -51502.243   0.15129805 
  105000    295.54576   -784.79351    149721.03   -47449.645    4058.6093   -51508.254   0.15080753 
  105200     295.7481   -492.22893    149307.43    -47455.03     4061.388   -51516.418   0.14955303 
  105400    289.84758   -223.40403    148909.34   -47448.384    3980.3585   -51428.742   0.15336315 
  105600    293.14438   -512.26014    149339.72    -47445.73    4025.6322   -51471.362   0.14957808 
  105800    295.47603   -725.93434    149640.14    -47458.68    4057.6518   -51516.332   0.14705454 
  106000     291.2139   -425.90764    149172.29   -47442.774    3999.1216   -51441.896   0.15571787 
  106200    292.87651   -254.14471    148958.85   -47419.996    4021.9536   -51441.949   0.15495546 
  106400    294.82629   -630.01781    149466.08   -47429.969    4048.7291   -51478.698   0.15202856 
  106600    294.95202   -701.98081    149592.77   -47428.966    4050.4557   -51479.422   0.15410215 
  106800    291.89411   -372.30622    149090.27   -47426.351    4008.4628   -51434.813   0.15322103 
  107000    294.87193    -303.2975    149040.36   -47383.331    4049.3559   -51432.687   0.15256946 
  107200     296.6873   -672.19381    149548.87   -47368.116    4074.2856   -51442.402   0.14850187 
  107400     297.2527   -664.64562    149538.93   -47374.782      4082.05   -51456.832   0.15281667 
  107600    296.65676   -352.41924    149074.08   -47356.092    4073.8663   -51429.958   0.15527541 
  107800    297.74845   -366.62059    149152.27   -47377.413     4088.858   -51466.271   0.14727785 
  108000    301.79242   -680.67529    149558.13   -47350.277    4144.3921   -51494.669   0.15457523 
  108200     294.1039   -606.98288    149422.67   -47384.964    4038.8088   -51423.773   0.15317842 
  108400    295.96475   -314.39493    149056.23   -47383.874    4064.3631   -51448.237   0.14962035 
  108600    296.57808   -453.11629    149198.84   -47353.964    4072.7858    -51426.75   0.15443885 
  108800    295.73813   -658.73153    149453.88   -47373.818     4061.251   -51435.069   0.15855869 
  109000    295.08953   -537.41951    149281.24   -47414.223    4052.3441   -51466.568   0.15354218 
  109200    298.60058   -388.81518    149088.57   -47417.851    4100.5599   -51518.411   0.14481687 
  109400    293.13857   -516.20328    149269.49   -47399.672    4025.5524   -51425.225   0.15181189 
  109600     296.5398      -608.31    149409.93   -47359.328    4072.2601   -51431.588   0.16026081 
  109800    290.44851    -478.1456    149256.05   -47411.724    3988.6108   -51400.334   0.15903185 
  110000    296.05991    -432.6256       149153   -47349.657      4065.67   -51415.327   0.15944878 
  110200    294.99308   -529.00547     149311.1   -47333.804    4051.0195   -51384.824   0.15595682 
  110400    297.75357   -556.35591    149373.54   -47386.677    4088.9282   -51475.605   0.14960197 
  110600    292.16267   -501.91188     149228.8   -47461.679    4012.1507    -51473.83   0.15384852 
  110800    294.35764   -434.80152    149150.05   -47457.605    4042.2933   -51499.898   0.15472353 
  111000    295.14945   -512.71879    149290.86   -47458.506    4053.1669   -51511.673   0.14891059 
  111200     289.6043   -571.59648    149345.09   -47445.362    3977.0177    -51422.38   0.14877562 
  111400    294.42033   -449.31826    149225.13    -47501.23    4043.1542   -51544.385   0.14544179 
  111600    286.88554   -470.63372    149207.37   -47555.944    3939.6821   -51495.626   0.14934932 
  111800    291.40953   -547.61602    149297.85   -47588.433    4001.8082   -51590.241   0.15064432 
  112000    289.72338   -549.55933    149276.51   -47580.114     3978.653   -51558.767   0.15024618 
  112200    293.78983   -388.25672     149171.3   -47538.961    4034.4958   -51573.457   0.14644315 
  112400    295.80951   -472.31773    149267.13   -47507.469    4062.2313   -51569.701   0.14744553 
  112600    293.06487   -573.95301     149401.7   -47480.865    4024.5402   -51505.406   0.14837147 
  112800    295.97398   -520.22719     149276.6   -47498.265    4064.4899   -51562.755    0.1532073 
  113000    289.66529   -374.77895    149156.97   -47475.895    3977.8552    -51453.75    0.1489702 
  113200    293.59462   -515.36215    149285.91   -47511.964    4031.8151   -51543.779   0.14432021 
  113400    290.74638   -554.51181    149357.52   -47490.716    3992.7013   -51483.417   0.14668984 
  113600    294.89939   -444.17473    149215.11   -47497.354     4049.733   -51547.087   0.14754089 
  113800    287.94972   -459.07976    149176.12   -47478.424     3954.296    -51432.72   0.15475181 
  114000    289.76334     -541.974    149323.73   -47463.316    3979.2017   -51442.517   0.15473834 
  114200    291.40778   -571.64947     149313.6   -47475.634    4001.7842   -51477.419   0.15392151 
  114400    293.47933   -424.73277    149134.51   -47417.485    4030.2319   -51447.717   0.15491403 
  114600     295.3916   -453.45014    149199.99   -47390.737    4056.4922   -51447.229   0.15324519 
  114800    295.26504   -573.30013    149400.07   -47374.114    4054.7543   -51428.868   0.15593095 
  115000    298.03208   -564.74427     149346.9    -47403.74    4092.7529   -51496.493   0.15309514 
  115200    294.80671   -393.19782    149120.95   -47419.985    4048.4602   -51468.445   0.14803127 
  115400    295.77614   -456.88501    149205.53   -47432.591    4061.7731   -51494.364   0.15158351 
  115600    291.95017   -635.44095    149435.94   -47412.653    4009.2325   -51421.886   0.15505386 
  115800    294.56704   -530.11641     149301.1   -47429.398     4045.169   -51474.567   0.15365211 
  116000    292.83171   -369.31281    149077.23   -47416.532    4021.3384    -51437.87   0.15740964 
  116200    298.62197   -471.29108    149293.88   -47434.772    4100.8537   -51535.626    0.1505379 
  116400     296.7804   -667.38338    149505.42    -47475.33    4075.5642   -51550.894   0.15527352 
  116600    294.43857   -479.37824    149220.45    -47489.24    4043.4048   -51532.645   0.14727431 
  116800    288.92597   -280.61678    149001.36   -47445.123    3967.7024   -51412.826   0.14684068 
  117000    296.91209   -558.30294    149364.16    -47452.29    4077.3725   -51529.663   0.14633839 
  117200    296.09532   -730.04277     149568.5   -47439.605    4066.1562   -51505.761   0.14974004 
  117400     293.0172   -375.71571    149129.83   -47469.304    4023.8856   -51493.189   0.15559229 
  117600    298.96688    -298.9107    148976.67   -47451.361    4105.5902   -51556.951   0.15223576 
  117800    296.72955   -604.26067     149452.9    -47406.83    4074.8659   -51481.696   0.15283601 
  118000    294.09924   -711.61383    149565.78    -47397.47    4038.7449   -51436.215    0.1568557 
  118200    294.58984    -332.7207    149025.05   -47435.852    4045.4821   -51481.334   0.15569817 
  118400    294.21446   -295.86294    148944.13   -47488.237    4040.3271   -51528.565   0.15982278 
  118600    292.27968   -727.88762    149483.06   -47512.377    4013.7575   -51526.134   0.15869735 
  118800    287.99353   -702.17782    149458.46   -47560.763    3954.8976    -51515.66   0.15064194 
  119000    291.96019   -250.80092    148898.66   -47563.571    4009.3702   -51572.942   0.14098142 
  119200    288.01962   -320.21029    148996.03    -47564.56    3955.2559   -51519.816    0.1476126 
  119400    289.51113   -782.89255    149573.38   -47586.254    3975.7382   -51561.992   0.15783261 
  119600    290.07786   -647.74372    149374.44    -47526.09    3983.5209   -51509.611   0.16115491 
  119800    296.60698   -206.02236    148827.17   -47526.272    4073.1826   -51599.454   0.14916522 
  120000    290.02384   -416.72025    149097.38   -47543.388    3982.7791   -51526.167   0.14975587 
  120200     292.0302   -764.48752    149581.19   -47511.719    4010.3316    -51522.05   0.15619877 
  120400     286.2458   -567.14422    149278.74   -47560.082    3930.8968   -51490.979   0.15990317 
  120600      289.235   -284.78057    148874.73   -47556.806    3971.9462   -51528.752   0.15831484 
  120800    291.68244   -486.46357    149211.44   -47546.062     4005.556   -51551.618   0.15185429 
  121000    288.01596   -786.35458    149543.37   -47526.696    3955.2056   -51481.902   0.15606612 
  121200    288.85498   -465.04877    149154.86   -47527.485    3966.7275   -51494.213   0.15118389 
  121400    292.97492   -265.82551    148909.17   -47528.769     4023.305   -51552.074   0.15168953 
  121600    291.42113   -570.15814    149339.86   -47515.177    4001.9675   -51517.144   0.15389637 
  121800    290.29212   -713.66552    149519.95   -47511.297    3986.4633   -51497.761   0.15675178 
  122000    294.31316   -373.94097    149095.57   -47492.464    4041.6825   -51534.146   0.15383607 
  122200    294.58916   -306.61499    149009.78   -47461.036    4045.4728   -51506.509   0.15465965 
  122400    299.05462   -609.55102    149470.02   -47412.489     4106.795   -51519.284   0.15483872 
  122600    301.46914    -660.1421    149528.94   -47332.119    4139.9527   -51472.071   0.16081459 
  122800    298.58282   -356.75219    149132.86   -47335.471     4100.316   -51435.787   0.15739173 
  123000    294.40988   -342.50677    149132.24   -47383.054    4043.0107   -51426.064   0.15626111 
  123200    287.53489   -703.32026    149503.99   -47402.467    3948.5993   -51351.067   0.15769018 
  123400    297.47832   -591.54791     149400.9   -47487.757    4085.1484   -51572.905   0.15085054 
  123600    290.94633   -334.73628    149019.57   -47435.817    3995.4473   -51431.264   0.16131352 
  123800    290.04744   -444.53817     149163.6   -47457.934    3983.1031   -51441.037   0.15849811 
  124000    294.37838   -705.06456    149533.34   -47437.484    4042.5782   -51480.063   0.15920974 
  124200    296.41063   -565.74589    149358.66    -47421.01    4070.4862   -51491.496   0.15951747 
  124400    295.16416   -361.78742    148997.35   -47438.205    4053.3689   -51491.574   0.16913325 
  124600    293.19616   -451.23854    149183.74   -47454.787    4026.3433    -51481.13   0.15647141 
  124800    295.42477   -671.97816    149494.74   -47456.505    4056.9478   -51513.453     0.157269 
  125000    293.13331   -486.31774    149248.12    -47468.12    4025.4801     -51493.6    0.1611972 
  125200    290.77614   -340.38804    148979.64   -47460.678      3993.11   -51453.788   0.16233743 
  125400    291.21764   -557.55809    149246.68    -47527.97     3999.173   -51527.143   0.15877853 
  125600    293.62599   -621.62544    149413.25   -47520.132    4032.2459   -51552.378   0.15044232 
  125800    293.28093   -472.57739    149172.08   -47511.763    4027.5074    -51539.27   0.15667498 
  126000    293.04638   -382.82959    149065.35   -47480.665    4024.2864   -51504.951   0.15665334 
  126200    294.00426   -551.80082    149313.43   -47460.083    4037.4406   -51497.523   0.15935531 
  126400    290.35348   -604.76103    149405.36   -47488.101    3987.3059   -51475.407   0.16214842 
  126600    290.07175    -451.1799    149148.76    -47515.67     3983.437   -51499.107   0.15926459 
  126800    293.22291   -333.82611    149092.21   -47488.062    4026.7106   -51514.773   0.15329265 
  127000    293.75755   -611.58551    149391.71   -47503.962    4034.0526   -51538.015   0.15647499 
  127200    288.07867   -619.22292    149365.98   -47537.823    3956.0668   -51493.889    0.1570008 
  127400     292.0793   -374.19183     149047.4   -47540.209    4011.0059   -51551.215   0.15187083 
  127600    289.50679   -442.12394    149129.27   -47534.575    3975.6786   -51510.253   0.15475968 
  127800    294.70541   -616.02554    149418.99   -47520.522    4047.0692   -51567.591   0.14767879 
  128000     295.0509   -563.73758    149311.67   -47518.703    4051.8137   -51570.517   0.15442429 
  128200     291.9654   -356.37902    149055.02   -47485.196    4009.4417   -51494.638   0.16001306 
  128400    291.13205   -482.58709    149210.13    -47512.59    3997.9976   -51510.587   0.15757155 
  128600    291.85223   -605.70825     149377.7   -47543.393    4007.8875   -51551.281   0.15565915 
  128800    287.47299   -506.15397    149172.98   -47581.394    3947.7493   -51529.144   0.15459811 
  129000     291.0155   -352.27251    149060.56    -47615.21    3996.3971   -51611.608   0.15091098 
  129200    286.70653   -551.02154    149287.88   -47570.443    3937.2238   -51507.667   0.15500331 
  129400    289.90737   -592.81972    149344.92   -47569.287    3981.1796   -51550.466   0.15184678 
  129600     288.3321   -376.90643    149069.63   -47571.032     3959.547   -51530.579   0.14839734 
  129800     291.8481   -428.71758    149076.79   -47585.069    4007.8308     -51592.9   0.14807558 
  130000    288.01035   -653.98412    149392.01   -47591.327    3955.1285   -51546.455   0.15021438 
  130200    288.43509   -578.36822    149332.37   -47610.343    3960.9613   -51571.304   0.15676312 
  130400    289.27348   -308.06979    148998.86   -47596.693    3972.4746   -51569.168   0.15053375 
  130600    292.75315    -429.3367    149155.57   -47552.784    4020.2595   -51573.043   0.14948133 
  130800    291.37943   -760.96746    149546.37   -47571.282    4001.3947   -51572.676   0.15682947 
  131000    289.26158   -545.84933    149263.49   -47593.098    3972.3112   -51565.409   0.15455526 
  131200    290.95959   -222.95502    148874.84   -47568.822    3995.6294   -51564.452   0.14978114 
  131400    291.97777   -545.06166     149301.7   -47567.593    4009.6116   -51577.205   0.14461676 
  131600    287.81061   -816.01003    149661.98   -47556.626    3952.3857   -51509.011   0.15228838 
  131800    289.92384   -396.48609    149101.69   -47532.494    3981.4057     -51513.9   0.15099046 
  132000    290.60256   -154.27673    148776.23   -47478.047    3990.7263   -51468.773   0.14705183 
  132200    287.91283   -662.75803     149441.8   -47481.273    3953.7894   -51435.062   0.15524982 
  132400    295.27108    -834.4793    149685.35   -47482.196    4054.8372   -51537.034   0.15890972 
  132600    290.65095   -310.78131    148957.67   -47463.312    3991.3909   -51454.703    0.1617444 
  132800    289.07725   -208.22383    148831.26   -47433.928    3969.7799   -51403.708   0.15731976 
  133000    292.54756   -805.90289    149618.87   -47423.456    4017.4362   -51440.892   0.16065277 
  133200    298.57508   -768.07183    149610.89   -47369.418    4100.2098   -51469.628   0.15871503 
  133400     301.6429   -168.41088    148832.51   -47361.594    4142.3388   -51503.933   0.15375203 
  133600    299.30661   -315.89576    148979.66   -47374.829    4110.2555   -51485.084    0.1530172 
  133800    298.47039   -827.96506    149691.14   -47388.934    4098.7721   -51487.706    0.1557457 
  134000    299.08575    -620.8716    149448.54    -47339.44    4107.2225   -51446.662   0.15927071 
  134200    300.80821   -184.69233    148859.82   -47357.811    4130.8763   -51488.688   0.15041326 
  134400    293.15093   -384.97282    149152.89   -47355.194    4025.7221   -51380.916   0.16005614 
  134600    297.82845   -761.01476    149654.01   -47367.645    4089.9565   -51457.601   0.16202925 
  134800    297.63975   -535.54626    149326.13   -47412.968    4087.3653   -51500.333   0.15776482 
  135000    289.41414   -237.93858    148926.29   -47470.707    3974.4062   -51445.113   0.15378896 
  135200    294.00541   -492.27807    149258.97   -47480.627    4037.4563   -51518.083   0.15014161 
  135400    289.47564   -722.40503    149547.09   -47499.246    3975.2508   -51474.497   0.15848157 
  135600     296.9709   -457.62225    149207.94   -47465.964    4078.1801   -51544.144   0.15100261 
  135800     292.2562   -335.64597    149001.28   -47539.713    4013.4351   -51553.149   0.14807571 
  136000    290.70809    -553.7466    149300.33    -47570.66    3992.1755   -51562.835   0.14768711 
  136200    291.00936   -629.82965    149426.17   -47579.652    3996.3128   -51575.965   0.14703321 
  136400    292.70019   -471.50108    149144.35   -47534.763    4019.5323   -51554.296   0.15458774 
  136600    286.30633   -421.47922    149094.31   -47477.784     3931.728   -51409.512   0.15833179 
  136800     291.0395   -583.01629    149381.07   -47485.579    3996.7267   -51482.305   0.16020396 
  137000    291.96634   -641.25004    149395.21   -47491.335    4009.4546   -51500.789   0.15483097 
  137200    285.66411   -432.42891    149124.81   -47525.251    3922.9087    -51448.16   0.15409432 
  137400    296.53494   -321.89471     149109.3   -47482.119    4072.1934   -51554.313   0.14308939 
  137600    292.07827   -598.15029     149374.6   -47472.447    4010.9917   -51483.439   0.15729301 
  137800    291.02522   -568.85545    149340.75   -47445.085    3996.5306   -51441.615   0.15270394 
  138000    296.67151   -404.26076    149119.57   -47445.425    4074.0687   -51519.493   0.14685159 
  138200    289.47111   -408.44868    149198.76   -47495.625    3975.1886   -51470.814   0.14766907 
  138400    287.52091   -631.75035    149399.93   -47479.288    3948.4073   -51427.696   0.15693493 
  138600    290.34758   -510.82108    149295.83   -47493.914    3987.2249   -51481.139   0.15544296 
  138800    298.00372   -430.35325    149146.27     -47445.9    4092.3634   -51538.263   0.15369324 
  139000    297.04112   -528.45854    149291.23   -47433.491    4079.1445   -51512.636   0.15631272 
  139200    292.25762   -573.05668    149412.17   -47432.787    4013.4546   -51446.241   0.15362483 
  139400    295.79845   -466.88141    149272.28   -47461.276    4062.0795   -51523.355   0.14815208 
  139600    289.30391   -400.16238    149165.21   -47442.239    3972.8926   -51415.132   0.15375334 
  139800    294.46154   -493.34571    149267.95   -47402.243    4043.7202   -51445.963   0.15492228 
  140000    300.93893   -564.93233    149364.27   -47368.389    4132.6715    -51501.06   0.15192297 
  140200    298.04776    -495.6443    149272.37   -47412.003    4092.9683   -51504.972   0.14873457 
  140400    296.24116   -478.96389    149201.19   -47438.363    4068.1589   -51506.522   0.15217532 
  140600    293.26924   -500.54902    149284.86   -47436.748    4027.3468   -51464.095   0.15234653 
  140800    293.88832   -548.67071       149337   -47429.192    4035.8483    -51465.04   0.15681456 
  141000      296.024   -450.89654    149222.65   -47466.517    4065.1768   -51531.693   0.14788009 
  141200    294.19914   -438.75972    149181.29   -47417.422    4040.1167   -51457.538   0.15281566 
  141400    294.78671   -548.40902    149320.92    -47422.74    4048.1857   -51470.926   0.15577357 
  141600    295.53279   -552.13117    149375.84   -47405.069    4058.4312     -51463.5   0.15366947 
  141800    293.28326   -510.07764    149244.29   -47459.703    4027.5394   -51487.242   0.15083946 
  142000    289.00115   -430.88044     149206.8   -47476.437    3968.7348   -51445.172   0.15040053 
  142200      294.987   -565.98795    149364.02   -47472.084    4050.9361    -51523.02   0.15297826 
  142400    290.58897   -555.27733    149365.91   -47474.668    3990.5397   -51465.208   0.14810044 
  142600     292.4524   -456.44044    149186.27   -47467.354    4016.1295   -51483.484    0.1501853 
  142800    292.76177   -427.34476    149204.79   -47472.307    4020.3778   -51492.685    0.1491081 
  143000    291.64899    -609.7367     149417.3   -47534.715    4005.0966   -51539.812   0.15411593 
  143200    295.13158    -546.2835    149353.51   -47502.448    4052.9215    -51555.37   0.14941987 
  143400    291.35258   -389.32162    149135.87   -47467.861    4001.0261   -51468.887   0.15121021 
  143600    294.38788   -463.03824    149239.26   -47456.615    4042.7086   -51499.323   0.15292321 
  143800    291.36238   -618.78268    149439.94   -47467.658    4001.1606   -51468.818   0.14672278 
  144000    291.73359   -493.47118    149299.91   -47456.239    4006.2584   -51462.497    0.1495937 
  144200    298.74678   -384.39239    149098.14   -47431.467    4102.5676   -51534.035    0.1495557 
  144400    297.70293   -463.04488    149282.77   -47432.045    4088.2329   -51520.278   0.14929096 
  144600    292.92726   -616.70682    149473.87   -47402.901    4022.6505   -51425.552   0.14458549 
  144800    299.74303   -462.37776    149252.86   -47374.709    4116.2487   -51490.958    0.1456616 
  145000    295.67809   -375.48394    149088.99   -47420.861    4060.4265   -51481.287   0.15157992 
  145200    295.80021   -569.41782    149331.19   -47450.034    4062.1036   -51512.137   0.15456324 
  145400    294.97005   -656.06902    149474.81   -47452.936    4050.7033   -51503.639    0.1525171 
  145600    292.64421   -442.07021    149161.01   -47473.537    4018.7635   -51492.301   0.15429165 
  145800     291.8113    -335.0982    148994.82   -47490.918    4007.3255   -51498.244   0.15278106 
  146000    292.13445   -572.70082    149373.31    -47475.43    4011.7632   -51487.193   0.14408757 
  146200    289.23458   -712.64611    149532.33   -47504.273    3971.9404   -51476.214   0.15305536 
  146400    291.33326    -367.7977    149069.07   -47460.098    4000.7608   -51460.858   0.15165643 
  146600    294.65454   -268.10538    148997.19   -47424.512    4046.3705   -51470.882   0.14691048 
  146800    289.32118   -716.21347    149558.22    -47375.98    3973.1296   -51349.109   0.15523655 
  147000    291.39436   -663.52935    149582.64   -47388.012    4001.5999   -51389.612   0.15374799 
  147200     301.0771   -285.28996    148993.05   -47360.383    4134.5689   -51494.952   0.15560301 
  147400    296.78953   -339.89274    149072.71    -47426.75    4075.6895   -51502.439   0.15143548 
  147600    298.38967   -814.91932    149707.06   -47433.229    4097.6636   -51530.893   0.15858349 
  147800    296.26381     -634.855    149481.73   -47477.889      4068.47   -51546.359   0.15594403 
  148000    291.86111   -158.11742    148830.38   -47445.739    4008.0095   -51453.748   0.14825877 
  148200    292.72087   -440.32385     149187.8   -47488.544    4019.8163    -51508.36   0.14537362 
  148400    292.02323   -876.57568    149777.84   -47532.477    4010.2358   -51542.712   0.14987852 
  148600      291.225   -508.48082    149262.55   -47505.086     3999.274    -51504.36   0.15008689 
  148800    291.46289   -116.70069    148767.79   -47512.378    4002.5409   -51514.919   0.14907492 
  149000    296.96439   -544.02946     149365.1   -47516.884    4078.0908   -51594.975   0.14230286 
  149200    294.47564   -796.20899    149729.75   -47517.777    4043.9137    -51561.69   0.14679078 
  149400    289.40299   -370.10535    149098.42   -47546.125    3974.2532   -51520.378   0.14893999 
  149600    292.10895   -186.84749    148897.12   -47547.582     4011.413   -51558.995   0.14476899 
  149800    288.80671   -716.54179    149524.25   -47530.422    3966.0647   -51496.486   0.15553405 
  150000    290.76463   -736.53722    149630.84   -47486.856     3992.952   -51479.808   0.14794819 
  150200    295.63897   -265.51146    149044.19   -47436.664    4059.8894   -51496.554   0.14494212 
  150400    300.20045   -285.68215    149045.66   -47408.377    4122.5303   -51530.908   0.14126816 
  150600    294.50509   -668.02812    149543.09   -47454.984    4044.3183   -51499.302    0.1463906 
  150800    295.29214   -632.00672     149457.6   -47417.481    4055.1264   -51472.607   0.15582916 
  151000    294.06439   -328.27428    149031.56   -47461.242    4038.2663   -51499.508   0.15271752 
  151200      298.079   -414.29968    149155.29   -47448.333    4093.3972   -51541.731   0.14791942 
  151400    296.90286   -665.99199    149505.35   -47357.053    4077.2458   -51434.299   0.15283034 
  151600    303.05399   -583.04159    149373.85   -47345.341    4161.7167   -51507.057   0.15489498 
  151800    293.41276   -372.23158    149087.59   -47357.903    4029.3177    -51387.22   0.15685139 
  152000    298.48953   -445.12459    149217.96   -47359.237    4099.0349   -51458.272   0.15714869 
  152200    298.32635   -600.46948    149397.14   -47377.545    4096.7941   -51474.339   0.15631408 
  152400    294.69927   -508.48561    149223.25   -47427.903    4046.9848   -51474.887   0.15048385 
  152600    297.34645   -380.49753    149083.32   -47396.749    4083.3375   -51480.087   0.14683777 
  152800    300.52084   -528.17063     149272.1   -47327.041    4126.9301   -51453.971   0.15286443 
  153000    294.71143   -645.44702    149369.31   -47395.426    4047.1518   -51442.578    0.1613384 
  153200    293.34527   -449.97892    149203.31   -47336.034    4028.3909   -51364.425   0.15421758 
  153400    299.61218   -403.94599    149162.79   -47391.826    4114.4518   -51506.278   0.15101725 
  153600    293.77728   -533.76194    149283.52   -47417.768    4034.3234   -51452.092   0.15315536 
  153800    291.49554   -497.44004    149264.67    -47446.84    4002.9893    -51449.83   0.15252946 
  154000    290.02929   -451.07518    149179.21     -47462.2    3982.8539   -51445.054   0.15395489 
  154200    295.90668   -491.79606    149219.79   -47408.296    4063.5657   -51471.862   0.15671686 
  154400    296.43071   -552.04652    149294.53   -47401.653    4070.7619   -51472.415   0.15641286 
  154600    293.54627   -532.23602    149288.46   -47422.732    4031.1511   -51453.883   0.14788367 
  154800    295.28188   -453.47273    149188.26   -47439.382    4054.9856   -51494.368   0.14705085 
  155000    293.15692   -472.09128    149190.57   -47427.071    4025.8044   -51452.875   0.15374643 
[...]
  163200    292.56799   -291.94174    148937.38   -47501.447    4017.7168   -51519.164   0.14684452 
  163400    295.50564   -283.92698    148968.75   -47537.589    4058.0583   -51595.647    0.1456556 
  163600    287.97358   -716.69958    149523.74   -47480.604    3954.6237   -51435.227   0.15492581 
  163800    288.77588   -680.00836     149461.9   -47541.773    3965.6413   -51507.414   0.15578777 
  164000    293.31401   -282.40952    148950.43    -47562.44    4027.9616   -51590.402   0.15350896 
  164200    288.75696   -417.21097    149077.06   -47559.713    3965.3815   -51525.094   0.15285208 
  164400    290.06982   -690.94361    149504.79    -47497.75    3983.4105   -51481.161    0.1568878 
  164600    293.61204   -580.83161    149356.41   -47477.473    4032.0544   -51509.528   0.15072928 
  164800    293.50802   -311.76966    149017.65   -47518.689    4030.6259   -51549.315   0.14616325 
  165000    295.03106   -445.63293    149172.38   -47493.171    4051.5411   -51544.713   0.15149022 
  165200    292.08448   -633.56428    149401.04   -47487.078     4011.077   -51498.155    0.1525854 
  165400    296.58904   -532.72934    149251.39   -47517.946    4072.9362   -51590.882   0.14786407 
  165600     289.2271   -360.65282    149074.82   -47455.516    3971.8377   -51427.353   0.14704645 
  165800    292.06927   -498.24241    149237.21   -47479.796     4010.868   -51490.664   0.15239007 
  166000    292.65034   -612.54191    149398.01   -47436.691    4018.8477   -51455.539   0.15726772 
  166200    295.39937   -479.17277    149239.56   -47469.249     4056.599   -51525.848   0.15531749 
  166400    292.76718   -427.52037    149109.03   -47466.263    4020.4522   -51486.716   0.15624939 
  166600    291.12511   -523.78476    149312.33   -47460.443    3997.9023   -51458.345   0.15157066 
  166800    285.61455   -640.58369     149425.3   -47520.533     3922.228   -51442.761   0.15363815 
  167000    289.95117    -470.3507    149202.69   -47522.837    3981.7811   -51504.618   0.14786511 
  167200     290.7994   -375.76167     149137.2   -47470.668    3993.4295   -51464.098   0.15305564 
  167400    291.11688   -575.26818    149342.43   -47515.981    3997.7893    -51513.77   0.15301293 
  167600    292.41931   -622.86321    149361.95   -47497.628     4015.675   -51513.303   0.15102924 
  167800    289.98291   -434.25325     149169.5   -47567.768     3982.217   -51549.984   0.14622787 
  168000    292.47312   -423.43516    149137.52   -47557.206     4016.414    -51573.62   0.14797824 
  168200    290.61841   -588.69023    149302.71   -47551.823     3990.944   -51542.767   0.15529504 
  168400    292.18432   -541.08586    149287.34   -47507.984    4012.4481   -51520.432   0.15688021 
  168600    294.65486     -472.173     149159.2   -47520.852     4046.375   -51567.227   0.14935591 
  168800    289.41866   -441.93376    149191.47   -47560.245    3974.4683   -51534.714   0.14688393 
  169000    289.22228   -565.81726    149311.91   -47544.535    3971.7716   -51516.307   0.14935476 
  169200    288.83835   -544.10067    149251.17   -47513.785    3966.4992   -51480.284   0.15169487 
  169400     291.7163   -446.94289    149118.57   -47541.772    4006.0208   -51547.793    0.1508027 
  169600    295.99977   -474.37751    149161.03   -47551.414    4064.8441   -51616.258   0.14481791 
  169800    291.16841    -574.2762    149281.63    -47556.02     3998.497   -51554.517   0.15080536 
  170000    288.30419   -520.71166    149218.76   -47594.762    3959.1638   -51553.925   0.14452707 
  170200    291.66704   -408.62005    149097.11   -47605.764    4005.3445   -51611.108   0.14224671 
  170400    289.10061   -478.39181    149207.66   -47574.136    3970.1007   -51544.237   0.15141158 
  170600    291.05277   -630.55953    149358.02   -47553.847    3996.9089   -51550.756   0.15269067 
  170800    291.91616    -525.8119    149204.92   -47579.412    4008.7656   -51588.178   0.14926349 
  171000    293.73786   -370.73964    149042.22   -47580.584    4033.7822   -51614.366   0.14543822 
  171200    287.89041   -571.31038    149253.42   -47606.192    3953.4815   -51559.673   0.14936303 
  171400    288.23195   -630.95511    149382.99   -47598.743    3958.1718   -51556.914   0.14457412 
  171600    286.66329   -410.25903    149102.32   -47564.566    3936.6299   -51501.195   0.14565558 
  171800     290.9961   -343.70107    149013.51   -47543.359    3996.1307   -51539.489   0.14541399 
  172000      293.572   -634.76398    149368.63   -47547.523    4031.5044   -51579.028   0.15134804 
  172200    293.19612   -650.71189    149404.98   -47551.466    4026.3426   -51577.809   0.14827257 
  172400    290.24408   -322.47197    148970.92   -47522.189    3985.8035   -51507.992   0.14613995 
  172600    293.56434   -304.57012    149009.46   -47506.758    4031.3993   -51538.157   0.15074846 
  172800    293.30354   -730.94305    149563.15    -47510.51    4027.8178   -51538.328   0.15179715 
  173000    292.72386   -656.19427    149461.17   -47530.066    4019.8573   -51549.924   0.15196279 
  173200    286.69448   -214.98685    148859.26   -47571.014    3937.0583   -51508.073   0.14688919 
  173400    294.60162   -308.60269       149011   -47557.518    4045.6438   -51603.162   0.14160069 
  173600    290.39458   -773.92004    149641.76   -47501.429    3987.8703   -51489.299     0.147122 
  173800    293.60348   -643.36541    149423.63   -47503.971    4031.9367   -51535.907   0.14910067 
  174000    292.63011   -174.09968    148813.99   -47471.728    4018.5699   -51490.298    0.1514665 
  174200    295.23253   -430.58928    149165.92    -47465.64    4054.3078   -51519.948   0.14886587 
  174400    294.98389   -814.12142    149748.09   -47441.908    4050.8934   -51492.801   0.14960256 
  174600    294.88395    -524.5777    149289.31   -47457.995     4049.521   -51507.516   0.14677389 
  174800    292.47999   -164.19108    148805.13   -47424.175    4016.5084   -51440.683   0.15126501 
  175000    292.01493   -565.44919    149326.14    -47470.07    4010.1218   -51480.192    0.1568202 
  175200    297.46516   -815.54114     149719.7   -47463.189    4084.9676   -51548.156   0.15559105 
  175400    292.62319   -440.81146    149182.46    -47477.73    4018.4749   -51496.204   0.14737459 
  175600    293.44858    -232.6852    148863.95   -47491.594    4029.8095   -51521.403   0.14525128 
  175800     294.5876   -626.67142    149407.18   -47471.904    4045.4513   -51517.355   0.14866867 
  176000    297.11467   -752.27666    149641.45   -47456.245    4080.1545   -51536.399   0.15016293 
  176200    295.39676   -402.34967    149134.55   -47409.533    4056.5632   -51466.096   0.14936367 
  176400    295.22325   -296.81184       148983    -47451.57    4054.1804    -51505.75   0.15232874 
  176600    293.90482   -621.53376    149436.16   -47427.497     4036.075   -51463.572    0.1494119 
  176800     293.4684   -687.10463    149527.31    -47433.71    4030.0818   -51463.792   0.14861243 
  177000    294.36376   -393.41314     149133.3   -47453.993    4042.3774    -51496.37   0.14628483 
  177200    295.17638   -395.45847    149114.94   -47469.335    4053.5367   -51522.872     0.150562 
  177400    289.39076   -630.61974    149452.78   -47557.037    3974.0852   -51531.122   0.14756979 
  177600    290.98724   -575.01783     149356.5   -47521.845    3996.0091   -51517.854   0.14448239 
  177800    292.05784   -342.80053    149036.56   -47502.715    4010.7111   -51513.426   0.14438036 
  178000    293.18492   -426.11532    149173.35   -47459.368    4026.1889   -51485.557   0.14173715 
  178200    293.58155   -663.06349    149424.43   -47493.534    4031.6356    -51525.17   0.14832613 
  178400    291.35104   -522.00183    149212.86    -47469.79    4001.0049   -51470.795   0.15247978 
  178600    290.44105   -369.24357    149008.08   -47486.324    3988.5083   -51474.833   0.15620505 
  178800    293.83539    -517.6365    149248.65   -47454.369    4035.1215   -51489.491     0.151034 
  179000    299.15357   -636.86085    149418.04   -47426.907    4108.1539    -51535.06   0.14655842 
  179200    296.35181   -481.54449    149188.73   -47451.798    4069.6785   -51521.476   0.15119474 
  179400       297.01   -361.30679    149051.25    -47425.06    4078.7171   -51503.777   0.15046835 
  179600    290.73107   -574.01362    149258.72   -47430.605    3992.4911   -51423.096   0.15812972 
  179800    291.02283   -652.39761    149356.24   -47458.343    3996.4978    -51454.84    0.1548628 
  180000    302.98421   -434.64523    149175.29   -47425.771    4160.7585   -51586.529   0.14476578 
  180200    295.27717   -380.36777    149103.02   -47386.904    4054.9209   -51441.824    0.1477929 
  180400    297.94494   -531.78924    149303.18   -47341.577    4091.5563   -51433.133   0.15208785 
  180600    293.06973   -613.14137    149349.92   -47430.727    4024.6071   -51455.335   0.15702385 
  180800    296.08019   -442.96798    149162.21   -47396.299    4065.9484   -51462.248   0.15533453 
  181000    289.49065   -467.27361    149143.89   -47437.493    3975.4569    -51412.95   0.15383253 
  181200    293.84544   -518.38115    149299.29   -47419.787    4035.2595   -51455.046   0.14354636 
  181400    298.37162   -505.05148    149303.76   -47460.111    4097.4157   -51557.527   0.14370288 
  181600    295.28824   -441.42353    149194.22   -47480.939    4055.0728   -51536.012   0.14609359 
  181800    292.85573   -478.23601    149213.61   -47451.953    4021.6682   -51473.621   0.15137331 
  182000    299.81738   -493.18326    149326.81   -47461.209    4117.2697   -51578.478   0.14347785 
  182200    289.96868   -549.56122    149322.24   -47476.023    3982.0216   -51458.044   0.14374084 
  182400    292.89846   -453.08547    149207.61   -47478.787     4022.255   -51501.042    0.1465175 
  182600    293.93233   -457.83912     149238.2   -47441.175    4036.4527   -51477.628    0.1487492 
  182800    297.75205   -553.23059    149349.16    -47405.64    4088.9074   -51494.547   0.15459538 
  183000    302.33219   -495.50367    149310.04   -47407.947    4151.8046   -51559.751   0.15014546 
  183200    294.58863   -495.07959    149218.65   -47389.782    4045.4655   -51435.248    0.1504182 
  183400    300.50909    -475.0908    149277.13   -47398.068    4126.7687   -51524.836   0.14446298 
  183600    290.17814   -589.44763     149369.9   -47426.761     3984.898   -51411.659   0.14977211 
  183800    290.68187   -497.45143    149277.52    -47460.22    3991.8154   -51452.036    0.1537192 
  184000    297.67425   -434.10057    149182.04   -47475.386     4087.839   -51563.225   0.14367857 
  184200    294.07296   -492.32601    149278.03   -47517.064    4038.3839   -51555.448   0.14023057 
  184400    296.39399    -570.3617    149327.05   -47526.385    4070.2577   -51596.642   0.14358463 
  184600    290.88547   -449.96974    149189.88   -47534.744    3994.6115   -51529.356   0.14683631 
  184800    291.17247   -462.34673    149142.64   -47523.621    3998.5527   -51522.174   0.15202043 
  185000    287.24967   -549.43746    149260.84   -47511.807    3944.6825   -51456.489   0.15240622 
  185200    287.19597   -552.40014    149295.45   -47569.773    3943.9451   -51513.718    0.1482698 
  185400    290.60768   -431.07182    149152.97   -47547.816    3990.7966   -51538.613   0.14096291 
  185600    293.04562   -444.21029     149157.4   -47551.881     4024.276   -51576.157   0.14227922 
  185800    288.56935    -554.4387    149351.39   -47494.173    3962.8051   -51456.978   0.14944727 
  186000    289.47605   -546.75111    149324.67   -47480.561    3975.2565   -51455.818   0.14941679 
  186200    293.90675   -367.22405    149095.61   -47474.245    4036.1015   -51510.347   0.14488176 
  186400     294.3344   -426.82006    149185.06   -47423.358    4041.9742   -51465.332   0.14567398 
  186600    294.42818   -678.33416    149459.04   -47454.887     4043.262   -51498.149   0.14910221 
  186800    292.58627   -514.48319    149319.44   -47481.916    4017.9679   -51499.884   0.14746182 
  187000    297.66601   -300.71023    149012.84   -47455.705    4087.7258   -51543.431    0.1496751 
  187200    286.44331   -496.57198    149226.46   -47473.376    3933.6091   -51406.985   0.15549239 
  187400    292.12271   -704.48615    149537.82   -47456.518     4011.602    -51468.12   0.15477768 
  187600     292.9469   -504.97638    149252.86   -47500.086    4022.9202   -51523.006   0.14703698 
  187800     289.8757   -276.93936    148929.93   -47490.096    3980.7446    -51470.84   0.14627185 
  188000    293.62759   -528.75376    149256.98   -47462.055    4032.2679   -51494.323   0.15023647 
  188200    291.31387    -703.0353    149557.06    -47448.47    4000.4945   -51448.965    0.1526987 
  188400    291.14577   -450.57399    149195.44   -47439.098     3998.186   -51437.284   0.15239072 
  188600    292.83686   -267.06471    148927.99   -47447.515    4021.4091   -51468.924   0.14690216 
  188800    295.31526   -565.18054    149359.31   -47458.901    4055.4439   -51514.345    0.1463899 
  189000    295.90847   -741.76179    149597.92   -47448.792    4063.5903   -51512.382   0.15017054 
  189200    296.50917   -375.11603    149147.17    -47456.26    4071.8394     -51528.1   0.14887043 
  189400    293.67815   -293.56983    148994.35   -47419.236    4032.9622   -51452.198   0.15300685 
  189600    297.97414   -627.18045    149480.52   -47431.399    4091.9573   -51523.356    0.1496233 
  189800    289.79896   -697.54491     149561.3   -47467.805    3979.6908   -51447.496   0.14989412 
  190000    291.57342   -336.36327    149015.16   -47504.849    4004.0588   -51508.908   0.14096103 
  190200    295.20081   -312.39287    148999.95   -47479.635    4053.8723   -51533.508   0.14479157 
  190400    293.14658   -695.16172    149562.54   -47474.319    4025.6624   -51499.981   0.15437837 
  190600    290.61356   -675.22609    149544.68   -47416.815    3990.8774   -51407.692    0.1550987 
  190800    292.93329   -312.76453    149002.09   -47454.617    4022.7333   -51477.351   0.14726854 
  191000    298.22466   -327.54021    149047.26   -47468.458    4095.3976   -51563.856    0.1440644 
  191200    293.38315   -742.14568    149553.92   -47457.834     4028.911   -51486.746   0.15627484 
  191400    295.50618   -653.48338    149427.57   -47483.809    4058.0657   -51541.874   0.15505163 
  191600    291.74214   -239.72532    148923.09   -47440.521    4006.3757   -51446.897   0.15588048 
  191800    294.66274   -362.84802    149123.14   -47475.949    4046.4832   -51522.432   0.14849304 
  192000    291.45049   -755.62562    149633.62   -47471.241    4002.3707   -51473.612    0.1475717 
  192200    295.20939   -582.31915    149381.21   -47443.305    4053.9901   -51497.295   0.14626402 
  192400    294.72152   -212.39766    148923.59   -47453.843    4047.2904   -51501.133   0.14320051 
  192600    291.90992   -477.93469    149222.25   -47483.338    4008.6798   -51492.017   0.14862472 
  192800    293.38596    -764.6697    149581.91   -47455.447    4028.9497   -51484.396   0.15034271 
  193000     290.5029   -454.22179    149232.53   -47447.667    3989.3578   -51437.025   0.14954204 
  193200    296.95558   -317.14779    148986.25   -47402.637    4077.9698   -51480.607   0.14985108 
  193400    293.30416   -549.34402    149355.79   -47403.561    4027.8263   -51431.387    0.1534898 
  193600    294.49521   -704.35702    149516.49   -47414.075    4044.1826   -51458.258   0.15114229 
  193800    292.82143   -354.61638    149087.48   -47465.858    4021.1973   -51487.055   0.15098792 
  194000    296.54159   -300.81728    148986.73   -47492.822    4072.2847   -51565.106   0.14544236 
  194200    293.73004   -586.87699    149382.35   -47474.868    4033.6748   -51508.543   0.14748172 
  194400    296.40587   -609.79897    149411.36   -47455.332    4070.4208   -51525.752   0.14844843 
  194600    298.41638   -372.62474    149041.28   -47482.938    4098.0303   -51580.968   0.14816327 
  194800    293.18538   -356.14008    149056.03   -47468.254    4026.1952   -51494.449   0.15684913 
  195000    298.55164   -606.65106    149425.34   -47448.331    4099.8878   -51548.219   0.15404274 
  195200    295.77348    -603.1221    149397.46   -47432.761    4061.7365   -51494.498   0.15429927 
  195400    294.00295   -369.18626    149103.01   -47437.102    4037.4225   -51474.524   0.15277713 
  195600    294.37444   -430.60108    149184.09   -47441.743     4042.524   -51484.267   0.14989819 
  195800    291.48281   -609.51114    149407.01   -47485.602    4002.8144   -51488.416   0.15470262 
  196000    294.86488   -523.87114    149276.18   -47457.598     4049.259   -51506.857   0.15512569 
  196200     290.4239   -387.42495    149120.21   -47445.418    3988.2729   -51433.691   0.15149025 
  196400    291.87908   -502.35835    149267.45   -47443.478    4008.2563   -51451.734   0.14749377 
  196600    293.66839    -584.3167       149365   -47508.406    4032.8282   -51541.234   0.14661455 
  196800    295.24007   -447.58536    149176.16   -47499.531    4054.4114   -51553.942   0.15054376 
  197000    296.15375   -381.87205    149116.49   -47509.777    4066.9586   -51576.735   0.14899549 
  197200    294.77113   -556.95788    149314.62   -47564.478    4047.9717   -51612.449   0.14786202 
  197400    292.32156   -572.76005    149290.83   -47521.284    4014.3327   -51535.617   0.14841085 
  197600    300.78683   -405.61948    149090.16   -47435.738    4130.5828   -51566.321   0.14578469 
  197800    298.08849   -437.54733    149201.01   -47420.663    4093.5276    -51514.19   0.14561833 
  198000     296.7316   -611.63148    149412.08   -47449.339     4074.894   -51524.233   0.14893655 
  198200    294.61038   -504.73665    149310.06   -47476.502    4045.7641   -51522.266   0.14794259 
  198400    292.62051   -406.62217     149160.5    -47403.86     4018.438   -51422.298   0.15224747 
  198600    296.61558   -507.41798    149313.97    -47394.12    4073.3007   -51467.421   0.14728403 
  198800    292.83631   -602.03066    149462.48   -47425.633    4021.4015   -51447.034    0.1502682 
  199000     296.6766   -459.43684    149287.05   -47434.353    4074.1387   -51508.492   0.15184527 
  199200    293.63111   -417.34788    149162.41   -47429.494    4032.3162    -51461.81   0.15617123 
  199400    292.81104   -576.38349    149360.25   -47440.278    4021.0545   -51461.333    0.1550552 
  199600    290.70353   -570.10879    149414.53   -47462.245    3992.1129   -51454.358   0.15061123 
  199800    296.26873   -443.16371    149214.87   -47443.466    4068.5376   -51512.004   0.14723858 
  200000    292.61947   -396.50494    149195.87   -47463.942    4018.4237   -51482.366   0.14754036 
Loop time of 110.68 on 6 procs for 200000 steps with 4608 atoms

Performance: 780.630 ns/day, 0.031 hours/ns, 1807.014 timesteps/s
97.9% CPU use with 6 MPI tasks x no OpenMP threads

MPI task timing breakdown:
Section |  min time  |  avg time  |  max time  |%varavg| %total
---------------------------------------------------------------
Pair    | 77.712     | 78.039     | 78.531     |   3.2 | 70.51
Neigh   | 12.352     | 12.513     | 12.804     |   5.6 | 11.31
Comm    | 9.5953     | 9.9487     | 10.49      |   9.0 |  8.99
Output  | 3.0956     | 3.0971     | 3.1032     |   0.2 |  2.80
Modify  | 5.6882     | 5.7935     | 5.8781     |   2.5 |  5.23
Other   |            | 1.288      |            |       |  1.16

Nlocal:        768.000 ave         778 max         760 min
Histogram: 1 2 0 0 0 1 0 0 1 1
Nghost:        1397.17 ave        1406 max        1389 min
Histogram: 1 2 0 0 0 0 0 1 1 1
Neighs:        0.00000 ave           0 max           0 min
Histogram: 6 0 0 0 0 0 0 0 0 0
FullNghs:      21872.7 ave       22182 max       21651 min
Histogram: 3 0 0 0 0 1 0 0 1 1

Total # of neighbors = 131236
Ave neighs/atom = 28.480035
Neighbor list builds = 12698
Dangerous builds = 0
write_data		data.${NAME}
write_data		data.ice_294K_-500atm_ML
System init for write_data ...
Total wall time: 0:02:44
