

read_data data.ice_${TEMP}K_${PRES}atm_ML group ice
read_data data.ice_294K_${PRES}atm_ML group ice
read_data data.ice_294K_-500atm_ML group ice
Reading data file ...
  orthogonal box = (-0.049905449 -0.044360399 -0.044360399) to (57.320415 50.951480 50.951480)
  3 by 1 by 2 MPI processor grid
  reading atoms ...
  4608 atoms
  reading velocities ...
  4608 velocities
  read_data CPU = 0.027 seconds
read_data data.liq_${TEMP}K_${PRES}atm_ML add append shift ${X_HI} ${YZ_LO} ${YZ_LO} group water
read_data data.liq_294K_${PRES}atm_ML add append shift ${X_HI} ${YZ_LO} ${YZ_LO} group water
read_data data.liq_294K_-500atm_ML add append shift ${X_HI} ${YZ_LO} ${YZ_LO} group water
read_data data.liq_294K_-500atm_ML add append shift 50.9514803988521 ${YZ_LO} ${YZ_LO} group water
read_data data.liq_294K_-500atm_ML add append shift 50.9514803988521 0.0443603988532928 ${YZ_LO} group water
read_data data.liq_294K_-500atm_ML add append shift 50.9514803988521 0.0443603988532928 0.0443603988532928 group water
Reading data file ...
  orthogonal box = (-0.049905449 -0.088541845 -0.088541845) to (104.28247 51.084383 51.084383)
  3 by 1 by 2 MPI processor grid
  reading atoms ...
  4608 atoms
  reading velocities ...
  4608 velocities
  read_data CPU = 0.016 seconds

write_data data.icewater_test
System init for write_data ...
WARNING: Communication cutoff is 0.0. No ghost atoms will be generated. Atoms may get lost. (../comm_brick.cpp:167)

# Define potential
#
pair_style sw
pair_coeff * * /data/emrosky-sim/Freezing_Simulations/Melting/MLmW_fancy/ML_mW.sw mW
Reading sw potential file /data/emrosky-sim/Freezing_Simulations/Melting/MLmW_fancy/ML_mW.sw with DATE: 2019-02-27

# Delete water and ice atoms that are overlapping
#
delete_atoms overlap 2.5 water ice
System init for delete_atoms ...
Neighbor list info ...
  update every 1 steps, delay 10 steps, check yes
  max neighbors/atom: 2000, page size: 100000
  master list distance cutoff = 6.0032907
  ghost atom cutoff = 6.0032907
  binsize = 3.0016454, bins = 35 18 18
  2 neighbor lists, perpetual/occasional/extra = 1 1 0
  (1) command delete_atoms, occasional, copy from (2)
      attributes: full, newton on
      pair build: copy
      stencil: none
      bin: none
  (2) pair sw, perpetual
      attributes: full, newton on
      pair build: full/bin/atomonly
      stencil: full/bin/3d
      bin: standard
Deleted 681 atoms, new total = 8535

# set timestep
#
timestep 10.0

# Define output
#
compute 1 all msd
thermo 50
thermo_style custom step temp press vol etotal ke pe c_1[4]

# Neighbor lists
#
neigh_modify delay 0 every 1 check yes

# Set fixes
#
fix 1 all momentum 10 linear 1 1 1 rescale
fix 2 all nph iso ${PRES} ${PRES} ${PCOUPL}
fix 2 all nph iso -500 ${PRES} ${PCOUPL}
fix 2 all nph iso -500 -500 ${PCOUPL}
fix 2 all nph iso -500 -500 10000.0
fix 3 all temp/csvr ${TEMP} ${TEMP} ${TCOUPL} 837492
fix 3 all temp/csvr 294 ${TEMP} ${TCOUPL} 837492
fix 3 all temp/csvr 294 294 ${TCOUPL} 837492
fix 3 all temp/csvr 294 294 5000.0 837492


# Fix ice atoms in place
#
velocity ice set 0.0 0.0 0.0
fix 4 ice setforce 0.0 0.0 0.0

# Run 1.0 ns equilibration of water
#
dump 1 all atom 1000 eq.all.${NAME}.dump
dump 1 all atom 1000 eq.all.coexist_294K_-500atm_ML.dump
run 100000
Neighbor list info ...
  update every 1 steps, delay 0 steps, check yes
  max neighbors/atom: 2000, page size: 100000
  master list distance cutoff = 6.0032907
  ghost atom cutoff = 6.0032907
  binsize = 3.0016454, bins = 35 18 18
  1 neighbor lists, perpetual/occasional/extra = 1 0 0
  (1) pair sw, perpetual
      attributes: full, newton on
      pair build: full/bin/atomonly
      stencil: full/bin/3d
      bin: standard
Per MPI rank memory allocation (min/avg/max) = 4.590 | 4.599 | 4.606 Mbytes
Step Temp Press Volume TotEng KinEng PotEng c_1[4] 
       0     135.7268   -661.56893    273211.88   -83931.943      3452.65   -87384.593            0 
      50    160.13933   -842.50559     272541.7   -83601.564    4073.6616   -87675.226   0.86464829 
     100    170.27419   -301.44266    271066.47   -83251.542    4331.4746   -87583.016     1.769746 
     150    174.53362   -189.33529    270317.18   -82904.148    4439.8268   -87343.975    2.7561178 
     200    178.33261   -138.16603    270802.55   -82672.558    4536.4665   -87209.024    3.8219372 
     250    184.13792   -445.44118    272226.67   -82368.901    4684.1432   -87053.044    4.9712301 
     300    190.42435   -750.95297    272988.77   -82024.713     4844.059   -86868.772    6.1842748 
     350    191.03049   -865.90962    272613.35   -81812.069     4859.478   -86671.547    7.4937472 
     400     194.7604   -340.94763    271593.03   -81595.486    4954.3605   -86549.846    8.8128711 
     450    203.77935   -183.31564    271380.78   -81332.437    5183.7865   -86516.224    10.281279 
     500    207.93277   -469.64404    272377.14   -81132.907    5289.4422   -86422.349    11.784475 
     550     211.1356   -904.06101    273622.94   -80926.075    5370.9167   -86296.992    13.254488 
     600    213.41023   -923.35816    273711.09   -80729.287    5428.7793   -86158.066    14.921214 
     650    214.34128      -508.79    272935.19   -80533.139    5452.4634   -85985.603    16.595628 
     700     220.2336   -476.13601    272469.57       -80341    5602.3537   -85943.354    18.213443 
     750    219.44169   -139.95015    272633.17   -80181.633    5582.2088   -85763.842    20.141839 
     800    224.67977   -370.86662    273250.56   -79986.129    5715.4563   -85701.585    22.252511 
     850     228.8616   -487.61707    273909.98   -79790.594    5821.8348   -85612.428    24.245111 
     900    230.80167   -534.32438    274493.53   -79615.455    5871.1866   -85486.642    26.357209 
     950    234.91516   -790.86812    274961.68    -79452.52    5975.8267   -85428.347    28.774636 
    1000    241.70857   -458.09584    274733.41   -79319.302    6148.6389    -85467.94    31.170205 
    1050    240.46786   -634.69029    274312.95   -79198.307    6117.0774   -85315.384    33.676822 
    1100    242.70318   -380.12641    274011.48   -79095.899    6173.9399   -85269.839    36.313767 
    1150    244.37108   -382.31352     274066.2   -78970.764    6216.3685   -85187.132    38.946731 
    1200     242.3888   -294.13267    274469.87   -78870.356    6165.9429   -85036.299    41.393932 
    1250    245.90011   -553.93944    274938.53   -78762.124    6255.2644   -85017.388    43.626623 
    1300    249.45745    -633.1853    275094.61   -78675.642    6345.7567   -85021.398    46.070151 
    1350     252.1985   -448.37293    275073.94   -78588.463    6415.4842   -85003.947    48.521071 
    1400    251.33396   -301.57985     274896.2    -78456.23    6393.4917   -84849.721    51.325787 
    1450    252.01935   -338.45917    274888.41   -78338.638    6410.9268   -84749.565    54.062184 
    1500    256.64501   -674.65708    275211.65   -78264.354    6528.5955    -84792.95    56.887514 
    1550    253.99878   -700.01192    275454.77   -78180.731    6461.2801   -84642.011    59.810747 
    1600    260.73648   -454.87657    275636.62   -78088.225    6632.6753     -84720.9    62.412624 
    1650    260.84017   -361.75927    275811.52    -78016.03     6635.313   -84651.343    65.329326 
    1700    270.81569   -705.18269    275570.48   -77924.983    6889.0725   -84814.055    68.186138 
    1750    266.43495   -462.78927    275311.56   -77863.065    6777.6343     -84640.7    71.246549 
    1800    267.85073    -367.7586     275540.6   -77770.053    6813.6492   -84583.702    74.206582 
    1850    267.80325   -612.91936    276251.13   -77677.974    6812.4414   -84490.415    77.438272 
    1900    271.26273    -712.3097     276773.8     -77585.9    6900.4445   -84486.344     80.55435 
    1950    270.33909   -630.64614     276618.4   -77511.751    6876.9487   -84388.699    83.450584 
    2000    273.24784   -457.50598    276201.64   -77424.443    6950.9421   -84375.385    86.337593 
    2050    272.42063   -32.663745    275674.43   -77410.357    6929.8994   -84340.257    89.144653 
    2100     273.3691   -318.25219    275783.52   -77380.437    6954.0269   -84334.464    92.406646 
    2150    275.05426   -741.45693    276256.92   -77315.691    6996.8942   -84312.585    95.794315 
    2200    276.53674   -783.62438    276792.49   -77245.764    7034.6061    -84280.37    99.186907 
    2250    279.67448   -720.58484    276876.25   -77206.294    7114.4245   -84320.719    101.77038 
    2300    276.85123   -583.23343     276619.6   -77108.895    7042.6061   -84151.501    104.90144 
    2350    283.38204   -214.72344    276137.91   -77027.943    7208.7384   -84236.681     107.8826 
    2400    285.69641   -455.46526    276018.08   -77004.218    7267.6119    -84271.83    110.87274 
    2450    281.50252   -319.69466    276160.42   -76953.574    7160.9267     -84114.5    114.09041 
    2500    286.52271   -641.19204    276911.06   -76880.634    7288.6314   -84169.266     116.3473 
    2550     283.1023   -456.51822    277285.12     -76846.8    7201.6222   -84048.422    118.96871 
    2600    285.43899   -434.87917    277072.88    -76822.64    7261.0635   -84083.703     122.1005 
    2650    288.47412   -670.74897    276676.82   -76744.728    7338.2719       -84083     124.1459 
    2700    286.07712   -290.41362    276293.07   -76717.061    7277.2965   -83994.357    126.94568 
    2750    286.47627   -250.50504    276644.34   -76729.353      7287.45   -84016.803    129.42889 
    2800    286.90213   -450.88337    277261.99   -76697.984    7298.2832   -83996.267     133.0764 
    2850    286.21736   -567.43595       277724   -76712.611    7280.8639   -83993.475     137.0471 
    2900    282.08991   -546.73222    277480.47   -76723.353    7175.8689   -83899.221    139.94816 
    2950     286.3331   -185.16892    276748.99    -76724.13     7283.808   -84007.938    142.45715 
    3000    289.04144   -478.19755    276556.26   -76678.091    7352.7036   -84030.794    144.78619 
    3050    294.55778    -667.8622    276752.35   -76691.927    7493.0295   -84184.956    147.97477 
    3100    289.71495   -762.79817     276980.9   -76676.406    7369.8364   -84046.243    151.64273 
    3150    284.57409   -606.62846    277030.77   -76677.034    7239.0621   -83916.096    155.13072 
    3200    289.62202   -433.61689    276988.63   -76639.492    7367.4725   -84006.964    158.08367 
    3250    289.44017   -722.77028    276907.45   -76612.616    7362.8465   -83975.462    161.21502 
    3300    290.63075   -243.66505    276791.22   -76562.882    7393.1327   -83956.015    164.48481 
    3350      291.959   -480.99869     277139.7   -76461.732    7426.9211   -83888.653    167.74832 
    3400    284.71296   -553.75415    277444.38   -76507.604    7242.5945   -83750.199    170.82391 
    3450    291.19961   -561.57285    277312.91   -76532.614    7407.6034   -83940.218    173.87713 
    3500    289.17166   -443.94236    276731.11   -76518.607    7356.0162   -83874.623    177.05957 
    3550    286.77021    -220.7636    276583.86   -76472.095    7294.9275   -83767.023    180.79393 
    3600    291.46089   -547.56602    277065.12   -76489.723      7414.25   -83903.973    183.89134 
    3650    289.45732   -477.67591     277433.8   -76493.846    7363.2828   -83857.129    187.60703 
    3700     290.9361   -635.28886    277622.06   -76483.478    7400.9004   -83884.378     191.1345 
    3750     291.5726   -392.53962    277248.16   -76514.165    7417.0916   -83931.257    193.82481 
    3800    288.06738    -574.2887    276855.82   -76512.747    7327.9251   -83840.672    197.21868 
    3850    287.49293   -642.04968    276832.15    -76500.34    7313.3121   -83813.652    201.19168 
    3900    290.60459   -434.75457    276912.42   -76507.891    7392.4674   -83900.359    204.83497 
    3950    293.47429   -382.34144    277224.32   -76461.113    7465.4674    -83926.58    208.41384 
    4000    291.44497   -597.33459    277551.97   -76467.994     7413.845   -83881.839    212.19355 
    4050    292.82763   -515.77069    277457.42   -76458.998    7449.0174   -83908.015    215.76562 
    4100    294.01728   -502.61326    277160.87   -76458.972    7479.2801   -83938.252    218.19294 
    4150    290.27607   -558.94017    276956.08   -76413.917    7384.1104   -83798.027    221.82167 
    4200    294.75451    -260.6963    276834.44   -76417.538    7498.0338   -83915.571     225.8367 
    4250     293.6408   -463.47002    276960.68   -76392.868     7469.703   -83862.571    229.45996 
    4300    298.08116    -644.2061    277211.16   -76412.002     7582.658    -83994.66    232.59566 
    4350    291.01026   -482.46565    277370.63   -76430.381    7402.7868   -83833.168     236.2596 
    4400    292.63867   -667.70053    277655.13   -76416.262    7444.2108   -83860.472    240.35297 
    4450    292.17493   -871.64411    277589.47   -76341.026    7432.4139    -83773.44     243.2068 
    4500    297.53328   -505.70982     276936.9   -76301.806    7568.7208   -83870.527    246.45559 
    4550    297.38845   -459.76014    276757.17   -76253.847    7565.0368   -83818.884    250.09816 
    4600    297.02977   -477.83063    277212.52   -76253.923    7555.9126   -83809.835    254.15037 
    4650    298.64351   -654.68328    277757.08   -76184.971    7596.9631   -83781.934    257.35722 
    4700    300.51847   -627.26364    278088.01   -76170.055    7644.6588   -83814.714    259.89327 
    4750    294.46122   -768.10052    278075.61   -76180.743    7490.5732   -83671.316    263.15543 
    4800    297.83583   -503.57715    277655.72   -76191.596    7576.4172   -83768.013    265.69314 
    4850    294.63049   -609.42716    277431.79   -76194.491    7494.8791    -83689.37     269.1272 
    4900    300.77769   -270.65724    277461.67   -76195.678    7651.2531   -83846.931    272.69267 
    4950     292.5353   -714.08383    277594.05   -76198.735    7441.5812   -83640.316    276.38043 
    5000    290.87146   -280.73319    277613.56   -76218.526     7399.256   -83617.782    279.19334 
    5050    300.33336   -485.86169    277693.98   -76234.697    7639.9501   -83874.647    282.06938 
    5100    297.35363   -529.70587     277758.4   -76245.349    7564.1509     -83809.5    285.94734 
    5150      294.056   -779.85453    277798.47   -76261.869    7480.2649   -83742.134    289.81739 
    5200    292.66879   -371.37072    277441.64   -76261.174     7444.977   -83706.151     292.8451 
    5250    294.65671    -288.8626    277299.11   -76241.463    7495.5461   -83737.009    295.41218 
    5300    299.14704   -382.80151    277795.13   -76225.492    7609.7722   -83835.264    298.59822 
    5350    297.35484   -630.08941    278136.91   -76188.071    7564.1817   -83752.253    301.08781 
    5400    294.23735   -821.81181    278032.71   -76240.381    7484.8783    -83725.26    303.01117 
    5450    297.68528   -352.23224    277379.87   -76228.347    7572.5875   -83800.935    304.86084 
    5500    293.69866   -257.65344     276797.4   -76230.157    7471.1749   -83701.332    308.47376 
    5550    293.77353   -54.142684    276906.41   -76291.246    7473.0794   -83764.325    311.82747 
    5600    292.65035   -255.95024    277761.43    -76347.77    7444.5078   -83792.278    315.33569 
    5650    294.66926   -843.43183    278357.24   -76424.665    7495.8654   -83920.531    318.45568 
    5700    288.40798   -588.92503    278028.35   -76397.666    7336.5894   -83734.255    321.32277 
    5750    292.93867    -530.2919    277401.57   -76375.164    7451.8422   -83827.006    324.66318 
    5800    294.31004   -373.64797    276689.23   -76378.322    7486.7273    -83865.05    326.63093 
    5850    295.92481   -661.51719    276435.84   -76315.369    7527.8044   -83843.174    329.17995 
    5900    295.69887    -360.9267    276810.02    -76356.55    7522.0569   -83878.607    333.27124 
    5950    293.37957   -350.26436    277573.47   -76360.741    7463.0578   -83823.799    337.84343 
    6000     293.8875   -843.69343    278111.66   -76358.073    7475.9787   -83834.052    341.37645 
    6050    291.44933   -794.79816    277985.95   -76291.471     7413.956   -83705.427    344.52517 
    6100    294.69246   -448.23652    277348.93   -76304.271    7496.4554   -83800.727    346.85725 
    6150    297.75914   -538.05475    277057.35   -76293.217    7574.4665   -83867.684    349.56004 
    6200    295.55142   -585.38175    277091.56   -76318.365    7518.3059   -83836.671     352.4213 
    6250    297.34315   -333.35138    277393.07   -76303.369    7563.8842   -83867.253    356.08709 
    6300    292.80232   -648.43427    277710.71   -76256.335    7448.3737   -83704.709    360.38298 
    6350    295.63978   -514.00861     277563.9   -76226.193    7520.5537   -83746.747    364.11488 
    6400    296.27736   -669.65238    277435.02   -76288.013    7536.7725   -83824.786    367.65377 
    6450    292.09659   -190.77923     277382.4   -76293.464    7430.4211   -83723.885    370.66632 
    6500    292.16209   -346.82785    277604.44   -76242.953    7432.0873   -83675.041    374.36382 
    6550    298.13712   -599.55443    277729.67   -76225.734    7584.0814   -83809.815     377.3624 
    6600    294.04102   -430.65775    277582.14   -76241.118    7479.8838   -83721.002     379.6491 
    6650    294.12639   -455.57019    277571.71   -76289.776    7482.0556   -83771.831    382.16619 
    6700    292.59725   -753.75862    277508.09    -76302.28    7443.1571   -83745.437    386.34476 
    6750    298.82576   -511.43549    277336.32   -76334.511    7601.5993    -83936.11    390.18922 
    6800    292.25127   -502.51435    277273.58   -76302.629     7434.356   -83736.985    393.30912 
    6850    295.07258    -450.8545    277310.83   -76301.018     7506.125   -83807.143    397.33868 
    6900    291.74093   -525.55215    277624.77   -76262.307    7421.3738   -83683.681    400.95573 
    6950    291.64082   -510.02442    277887.13   -76255.089    7418.8271   -83673.916    405.25247 
    7000    295.01439   -279.91321    277843.35   -76235.825    7504.6447    -83740.47    408.31887 
    7050    296.43632   -717.48307    277645.09   -76218.614    7540.8162    -83759.43    410.09144 
    7100     295.9223   -491.49565     277243.5   -76220.567    7527.7403   -83748.308    411.82562 
    7150    296.55634   -387.67125    277195.64   -76279.255    7543.8694   -83823.124    414.38152 
    7200    295.57055   -616.07294    277514.61   -76318.857    7518.7924   -83837.649    417.78591 
    7250    291.60005    -523.7411    277722.31   -76262.718    7417.7899   -83680.508    421.90704 
    7300    296.01961   -472.08991     277455.5   -76250.617    7530.2158   -83780.833    424.52714 
    7350    294.31458    -375.6627    276932.65   -76234.192    7486.8428   -83721.034    428.08436 
    7400    291.37613   -361.96595    276906.94   -76198.273    7412.0939   -83610.367    430.18639 
    7450     300.0661   -563.85174    277462.86   -76175.311    7633.1513   -83808.462    432.42522 
    7500    292.28067   -632.41886    278095.63   -76235.926    7435.1038    -83671.03    435.69806 
    7550    295.14432   -794.89938    278167.66   -76263.429      7507.95   -83771.379    438.23415 
    7600    299.21097   -274.37596    277562.19   -76214.938    7611.3984   -83826.336    440.44801 
    7650    294.95426   -269.31321    277155.21   -76225.576    7503.1151   -83728.691    442.27932 
    7700    300.40808    -741.9557    277312.95    -76215.63    7641.8508   -83857.481    445.08414 
    7750    298.33924   -304.82937    277588.89   -76181.281    7589.2232   -83770.504    449.09198 
    7800    294.46945   -546.53523     277937.8   -76210.363    7490.7826   -83701.146    452.26982 
    7850    295.98929   -462.42928    278034.73   -76186.449    7529.4446   -83715.894    453.74246 
    7900    295.91495   -941.95705    278079.77   -76218.783    7527.5533   -83746.336    455.21462 
    7950    296.25962   -550.97261    277562.79   -76271.778    7536.3212     -83808.1     456.7735 
    8000    297.62962   -134.98256    277126.27   -76256.044    7571.1715   -83827.216    459.48347 
    8050    297.09337   -501.96971    277437.77   -76245.663    7557.5304   -83803.194    462.54712 
    8100     296.1847   -838.19081    277912.28    -76286.09    7534.4155   -83820.506    465.81688 
    8150    294.95371   -313.66026     277739.7   -76232.551    7503.1011   -83735.652    469.09577 
    8200    299.61518   -658.50579    277688.11   -76263.776    7621.6807   -83885.456    472.05308 
    8250    298.09114   -703.11089    277662.15   -76260.281    7582.9119   -83843.193    473.49213 
    8300    294.35773   -449.10611    277572.26   -76241.859    7487.9405   -83729.799    476.80153 
    8350    295.03939    -566.4587    277502.71   -76300.358    7505.2808   -83805.639    479.00492 
    8400    300.03086   -515.01242    277344.73   -76313.117    7632.2549   -83945.372    481.95827 
    8450    293.30775   -558.75551    277071.54   -76305.867    7461.2309   -83767.098    483.36485 
    8500    299.89728   -231.37963    276915.49   -76294.391    7628.8568   -83923.247    485.79508 
    8550    295.47963   -721.38868     277288.4   -76321.812    7516.4796   -83838.292    487.88493 
    8600     296.4196   -715.27225    277689.99   -76319.825    7540.3909   -83860.216    490.22235 
    8650      291.484   -676.90684    278069.85   -76305.569    7414.8378   -83720.407    494.00507 
    8700    289.98969   -405.27963    277774.42   -76301.671    7376.8252   -83678.496    496.79683 
    8750    298.94065   -452.99145    277284.34   -76276.204    7604.5219   -83880.726    498.45829 
    8800    292.97459   -217.11712    277097.26    -76290.62    7452.7558   -83743.376    500.77362 
    8850    294.71995   -753.63896    277403.17   -76334.556    7497.1548   -83831.711    504.51324 
    8900     288.7565    -659.1177    277514.12   -76349.422    7345.4552   -83694.877    507.34165 
    8950    290.20877   -317.76205    277440.39   -76328.926    7382.3983   -83711.325    508.59774 
    9000    297.30323   -389.56511    277252.97   -76325.839    7562.8689   -83888.707    512.22405 
    9050    292.56581   -632.77864    277380.65   -76318.247    7442.3572   -83760.604    515.13665 
    9100    291.67907   -578.24798    277403.84    -76380.44    7419.8001    -83800.24    517.08161 
    9150    290.78328   -559.30809    277208.87    -76337.62    7397.0128   -83734.633    518.86384 
    9200    293.54236   -198.11196     276840.7   -76353.398    7467.1989   -83820.597     520.4055 
    9250    294.60252   -338.19232    277271.18   -76392.437    7494.1676   -83886.605    523.07617 
    9300    288.58955   -927.67118    278094.01   -76427.503    7341.2081   -83768.711    527.78632 
    9350    287.17769    -769.7642     277976.9   -76402.104    7305.2929   -83707.397    529.71684 
    9400     294.4228   -451.30629    277149.11   -76406.916    7489.5958   -83896.512     531.7014 
    9450    297.09215   -167.96156    276745.77   -76368.443    7557.4993   -83925.942    534.79123 
    9500    290.57357   -744.99122     277240.1   -76378.643    7391.6782   -83770.321    537.97364 
    9550    292.17225   -573.41133    277623.82   -76360.051    7432.3458   -83792.397    540.57862 
    9600    294.91367   -558.45742    277609.25   -76337.094    7502.0827   -83839.177    543.32914 
    9650    293.88984   -300.44712    277459.47   -76371.881    7476.0382   -83847.919    546.35568 
    9700    296.89659   -641.17172    277357.17   -76373.145    7552.5246    -83925.67     547.7759 
    9750    288.98246   -616.84354    277128.06   -76370.575    7351.2032   -83721.778    548.77448 
    9800    295.01902   -468.58232    277122.16    -76379.25    7504.7625   -83884.012    551.84183 
    9850    291.40945   -363.38882     277303.9   -76368.361    7412.9415   -83781.303      554.226 
    9900    291.30618   -603.69957    277564.43   -76362.841    7410.3144   -83773.156    557.48396 
    9950    291.49708   -568.12364    277593.32   -76339.512    7415.1706   -83754.683    561.07731 
   10000     293.8169   -568.56925    277423.78   -76337.138    7474.1827    -83811.32    564.65338 
   10050    297.01466   -337.61263    277079.76   -76338.804     7555.528   -83894.332    567.85457 
   10100    298.59282   -764.18682    277146.21   -76318.155    7595.6738   -83913.829    571.99074 
   10150    292.93787    -413.1394     277328.9   -76299.273    7451.8217   -83751.094    575.28563 
   10200    291.30686    -530.2103    277614.56   -76285.428    7410.3317    -83695.76    579.96427 
   10250    296.08023   -619.50228    277567.81   -76292.288    7531.7578   -83824.045    584.12888 
   10300    297.63213   -507.47062    277227.84   -76274.148    7571.2355   -83845.384    586.94334 
   10350    294.56436   -36.039138    277136.74   -76280.071    7493.1969   -83773.268     589.9044 
   10400    292.70835   -559.06859    277513.34    -76350.03    7445.9832   -83796.013    593.32344 
   10450    293.98488   -346.60501    277601.81   -76324.179    7478.4558   -83802.635    596.49734 
   10500    292.59025   -741.67765     277325.6   -76320.583    7442.9789   -83763.561    598.29694 
   10550    299.01168   -467.52872    276745.18   -76311.412    7606.3289   -83917.741     600.4991 
   10600    295.30776   -266.51764    276871.25   -76309.602    7512.1076    -83821.71    604.05191 
   10650    288.98117   -580.58407    277406.98    -76278.36    7351.1705   -83629.531    605.84965 
   10700    291.40503   -535.85531    277797.64    -76301.28    7412.8291   -83714.109    608.77065 
   10750    292.04616   -652.95911    277941.11   -76270.019    7429.1384   -83699.157    611.38179 
   10800    293.93966   -787.71167    277758.63    -76289.87    7477.3055   -83767.176    614.10845 
   10850    294.34235   -279.42255    277294.38   -76240.081    7487.5494    -83727.63    616.87262 
   10900    300.56905   -623.07677    277074.81   -76242.268    7645.9454   -83888.213    619.94018 
   10950    297.20147   -411.86565    277078.77   -76252.464    7560.2803   -83812.744    624.05099 
   11000    294.12065   -484.83927    277581.72   -76288.681    7481.9097   -83770.591    627.73624 
   11050    292.35978   -707.88011    278026.15   -76316.466    7437.1162   -83753.582    631.32496 
   11100    291.53562   -666.09037    278007.52   -76291.783    7416.1511   -83707.934    633.68977 
   11150    299.27466   -607.04204    277493.21   -76308.131    7613.0185    -83921.15    635.42608 
   11200    294.66495   -438.87044       277216   -76297.154    7495.7556    -83792.91    637.15287 
   11250    294.98136   -522.42499    277188.42   -76338.821    7503.8047   -83842.626    640.11363 
   11300    292.39129   -283.09579    277121.14   -76324.077    7437.9177   -83761.994    643.18278 
   11350    293.26947   -796.92122    277358.25   -76357.226     7460.257   -83817.483    648.08616 
   11400    293.89907   -349.47445    277389.02   -76361.686     7476.273   -83837.959    651.78936 
   11450    293.05225   -674.08851    277624.97   -76406.286    7454.7315   -83861.018    655.15395 
   11500     295.9676   -681.08091     277563.3   -76394.565    7528.8927   -83923.458    657.61002 
   11550    292.57372   -282.52113    277077.47   -76420.758    7442.5584   -83863.316    659.86488 
   11600    292.63062   -294.69316    276877.86    -76404.86    7444.0058   -83848.866    662.03784 
   11650    287.63885   -706.57415    277256.64   -76386.521    7317.0241   -83703.545    664.78302 
   11700    291.15631   -465.30494     277750.2   -76344.652     7406.502   -83751.154    668.77352 
   11750    289.59835   -496.41688    278049.02   -76357.922    7366.8703   -83724.792     672.2807 
   11800    287.38337   -653.06007     277915.5   -76382.653    7310.5251   -83693.178    674.24747 
   11850    293.61431   -365.27557    277072.12   -76311.277    7469.0293   -83780.307    676.22319 
   11900    293.72634   -86.350245    276515.06   -76401.806    7471.8792   -83873.685    678.81158 
   11950    288.44448   -332.38499    276978.92   -76389.594     7337.518   -83727.112    683.59476 
   12000    290.89244   -774.12059    277967.02   -76389.584    7399.7896   -83789.374    687.92118 
   12050     292.9975   -903.89979    278451.35   -76374.815    7453.3388   -83828.154    691.40883 
   12100    292.09191   -557.54014    277969.89    -76343.15    7430.3019   -83773.452    693.63469 
   12150    299.70441   -785.25222    277359.58     -76339.7    7623.9506   -83963.651    694.67285 
   12200    298.30648   -377.13545     276675.4    -76340.23    7588.3896    -83928.62    695.60121 
   12250    296.10175     91.90835    276623.29   -76311.189    7532.3053   -83843.494     698.7312 
   12300    297.74757   -494.36911    277350.86   -76324.445     7574.172   -83898.617     703.0722 
   12350    291.53414   -710.00475    278043.61   -76349.794    7416.1135   -83765.908    707.33592 
   12400    291.58897   -758.18579    278123.88   -76383.515    7417.5082   -83801.023    710.69169 
   12450    298.97356   -495.92312    277549.82   -76364.483    7605.3592   -83969.842    712.29185 
   12500    294.70715   -336.60765    277152.66   -76336.046    7496.8292   -83832.875    714.06166 
   12550    292.87669   -199.85523    276963.32   -76390.942    7450.2655   -83841.207    717.16464 
   12600    298.61887   -390.59239    277230.76   -76336.506    7596.3363   -83932.842    718.99319 
   12650    289.11311   -567.73546    277580.44   -76350.608    7354.5267   -83705.134    723.26143 
   12700    297.35149   -512.45551    277417.24   -76328.467    7564.0964   -83892.563    724.85277 
   12750     290.2492   -336.61918    276995.97   -76388.829    7383.4267   -83772.256     727.0779 
   12800     294.6015   -400.80583    276873.58   -76413.547    7494.1417   -83907.688    730.25818 
   12850     289.4022   -575.24516    277210.99   -76397.818    7361.8805   -83759.698    733.75673 
   12900    294.74406   -677.85975    277419.56   -76384.924     7497.768   -83882.692    736.90973 
   12950    293.87043   -427.04723    277422.36   -76389.633    7475.5445   -83865.177    738.76211 
   13000    288.73834   -252.78997    277440.05    -76359.91    7344.9932   -83704.904    742.45654 
   13050    299.28488      -407.69    277524.21   -76349.049    7613.2785   -83962.328     745.0127 
   13100     292.1396   -471.15204    277586.72   -76313.026    7431.5153   -83744.541    748.40093 
   13150    294.91757   -1096.3358    277647.77   -76331.732    7502.1818   -83833.914     749.7645 
   13200    294.25466   -625.41179    277297.15   -76347.072    7485.3185   -83832.391    751.14929 
   13250    295.95187   -386.68934    277093.86   -76403.316    7528.4927   -83931.808    752.96416 
   13300    291.77496   -752.14417    277089.41   -76395.762    7422.2393   -83818.001    754.45264 
   13350    294.58007   -399.39848    276933.71   -76374.283    7493.5965   -83867.879    756.14901 
   13400    290.81239   -103.90777    276638.34   -76410.028    7397.7533   -83807.782    758.54728 
   13450     297.8549   -635.58608    276820.64   -76442.495    7576.9023   -84019.397    761.53631 
   13500    294.04799   -642.04061    277304.59   -76400.049    7480.0613   -83880.111     764.9529 
   13550    284.29453   -596.56959    277683.09   -76476.476    7231.9504   -83708.427      768.024 
   13600    290.85249   -802.41685    277681.04   -76476.621    7398.7735   -83875.395    771.63996 
   13650    290.51713   -577.95911    277261.59   -76491.855    7390.2424   -83882.098    773.53643 
   13700    293.81379   -161.01603    276505.09   -76493.931    7474.1036   -83968.035     774.0236 
   13750    296.40329   -121.37747    276216.62   -76481.655    7539.9758   -84021.631    775.56311 
   13800    291.97027   -603.82902    276885.36   -76532.408    7427.2077   -83959.616    779.22356 
   13850    287.99096    -426.5448    277456.63   -76513.921    7325.9811   -83839.902    783.07979 
   13900    292.79319    -593.3706    277898.47   -76481.393    7448.1415   -83929.534    786.45911 
   13950     290.7812   -499.43512    277717.19   -76495.405    7396.9598   -83892.365    788.66371 
   14000    297.07425    -512.4577    277149.72   -76448.636    7557.0439    -84005.68    790.17801 
   14050    300.40672   -508.92391    276761.47   -76445.198    7641.8161   -84087.014    791.94505 
   14100    285.22558   -387.65278    276783.39   -76431.111    7255.6347   -83686.746    794.94654 
   14150    290.94807   -365.34591    277139.64   -76431.204    7401.2048   -83832.409    797.91443 
   14200     296.2798   -667.74886    277584.76   -76420.628    7536.8345   -83957.463    802.59918 
   14250    295.79323    -564.0015    277775.35   -76339.726    7524.4572   -83864.184    805.75761 
   14300     289.3382   -567.29036    277652.53   -76369.156    7360.2526   -83729.409    808.44103 
   14350    293.00683   -221.33268    277054.29     -76374.2    7453.5761   -83827.776    808.88933 
   14400    292.33565   -235.71284    276845.99   -76349.822    7436.5023   -83786.324    811.42542 
   14450     294.9341   -200.27238    277197.74   -76395.367    7502.6023   -83897.969    815.08209 
   14500    293.32475   -553.82084    277776.47   -76395.469    7461.6634   -83857.133    820.13865 
   14550    289.92465   -606.43562    277858.61    -76439.43    7375.1708   -83814.601    823.00744 
   14600    286.71767   -338.14099    277395.27   -76431.705    7293.5908   -83725.296    824.77985 
   14650    292.44505   -131.31076    276851.73   -76454.702    7439.2854   -83893.987    826.33622 
   14700    294.04575   -422.76513    277092.12   -76420.448    7480.0042   -83900.452    828.83396 
   14750    285.21985   -555.43945    277791.31   -76416.759    7255.4891   -83672.248    832.89041 
   14800    291.10012    -707.3256    277915.17   -76463.358    7405.0726   -83868.431    835.78075 
   14850    291.30479   -562.71552    277453.54   -76470.084    7410.2791   -83880.363    838.10875 
   14900    291.37777   -264.11213    276687.38   -76476.664    7412.1355     -83888.8    838.26853 
   14950    293.28443    -106.2873    276346.71   -76553.939    7460.6376   -84014.576    839.26955 
   15000    291.95968   -438.63976     276813.4   -76541.732    7426.9384    -83968.67    842.26175 
   15050    290.52006   -673.86849    277312.14    -76536.43     7390.317   -83926.747    846.25817 
   15100    289.56211   -337.00712    277390.55   -76512.024    7365.9485   -83877.973    849.99476 
   15150    289.94296   -733.50501    277545.25   -76515.403    7375.6366    -83891.04    853.31577 
   15200    290.06429   -535.35809    277547.99   -76503.419     7378.723   -83882.142    854.88941 
   15250    288.60589   -695.18328    277428.03   -76511.972    7341.6238   -83853.596    858.15542 
   15300    291.16638   -610.00906       277059   -76474.003    7406.7582   -83880.761    861.54967 
   15350    290.77274   -210.16567    276761.22   -76474.658    7396.7447   -83871.402    863.68183 
   15400    294.08798   -493.72521    277068.68   -76447.511    7481.0787    -83928.59    865.36635 
   15450    290.24218   -589.51492     277388.4   -76451.331    7383.2481   -83834.579    867.38339 
   15500    291.77253   -526.95773    277372.68   -76434.824    7422.1776   -83857.002    870.83622 
   15550    290.15437   -545.41625    277277.83   -76437.184    7381.0145   -83818.199    873.09147 
   15600    290.55637    -276.8467    277080.83   -76433.778    7391.2406   -83825.018    874.74113 
   15650    293.15608   -333.77984    277123.35   -76432.382    7457.3726   -83889.755    877.75882 
   15700    289.24709   -440.47857    277289.93   -76407.156    7357.9348   -83765.091    879.76938 
   15750    293.68333   -661.17083    277428.36   -76410.684     7470.785   -83881.469    882.10748 
   15800    291.57273   -278.89687    277358.99    -76408.91    7417.0949   -83826.005    884.29932 
   15850    295.58931    -613.3056    277364.79   -76384.205    7519.2698   -83903.475    885.49404 
   15900    294.93463   -270.97345    277042.91   -76395.812    7502.6159   -83898.428    886.00094 
   15950    296.01238   -337.42484    277105.43   -76358.992    7530.0319   -83889.023     888.1399 
   16000    292.91411   -554.93902     277800.1   -76329.268    7451.2172   -83780.485    893.65682 
   16050    291.54934   -787.27705    278314.92   -76284.422       7416.5   -83700.922    897.88326 
   16100    295.31389   -675.05334       278066   -76279.759    7512.2636   -83792.023     899.1696 
   16150     294.7039   -287.07807    277179.13   -76281.239    7496.7464   -83777.985    899.44976 
   16200    299.09954   -128.72156    276649.75   -76235.276    7608.5637   -83843.839    900.49159 
   16250    299.14465   -449.25605    277108.25   -76222.298    7609.7113   -83832.009    905.17148 
   16300    296.64507    -635.4562    277730.36   -76239.972    7546.1264   -83786.099    909.51238 
   16350    293.47841   -705.78394    278027.41   -76255.892    7465.5721   -83721.464    913.06137 
   16400    298.34726   -870.28731    277856.62   -76238.772    7589.4271   -83828.199    914.23903 
   16450    299.34577   -459.60525    277124.11   -76280.871    7614.8274   -83895.699    916.65444 
   16500    296.36104   -192.74069    276848.12   -76253.733    7538.9013   -83792.634     917.6088 
   16550    293.12489   -374.01525    277155.05   -76217.792    7456.5792   -83674.371     919.8674 
   16600    294.38472   -475.77098    277756.17   -76189.187    7488.6271   -83677.814    924.53073 
   16650    297.46098   -851.95835    278037.69   -76131.721    7566.8818   -83698.603    928.23668 
   16700    300.37462     -791.607    277549.66   -76224.693    7640.9997   -83865.693     928.2227 
   16750    300.84334   -364.90213    276855.09   -76253.213     7652.923   -83906.136     930.3175 
   16800    299.25501   -340.85625    276803.15   -76278.634    7612.5187   -83891.153    932.97134 
   16850    292.81788   -443.69998    277326.75   -76307.037    7448.7695   -83755.806    937.62247 
   16900    294.71445   -656.44749    277736.47   -76303.325    7497.0148   -83800.339    942.32738 
   16950    294.89239   -534.95186    277759.61   -76259.661    7501.5413   -83761.202    943.90643 
   17000    293.77732    -528.4423    277556.47   -76298.299     7473.176   -83771.475      944.197 
   17050    299.24395   -264.56454    277133.58   -76274.837    7612.2373   -83887.074    945.11619 
   17100     294.4473   -328.68185    277005.66   -76275.306    7490.2189   -83765.525    946.83297 
   17150    299.50051   -257.28855    277381.86    -76223.37    7618.7636   -83842.134    950.50033 
   17200    296.30202   -844.97547     277926.7   -76175.977    7537.3999   -83713.376    954.37026 
   17250    291.91382   -546.11362    277906.45   -76177.659    7425.7717   -83603.431    956.88624 
   17300    295.57838   -386.98015    277510.58   -76125.104    7518.9916   -83644.095     958.7854 
   17350    298.43473   -470.98484    277311.61   -76176.498    7591.6521    -83768.15    960.99914 
   17400    296.88378   -234.02569    277204.49   -76201.253    7552.1989   -83753.452    963.43092 
   17450    298.04678   -658.07317    277549.27   -76161.331    7581.7835   -83743.114    966.35603 
   17500    298.05458   -560.11443     277942.6   -76211.038    7581.9818    -83793.02    970.25377 
   17550    295.34221    -567.0134    278092.23   -76256.058    7512.9839   -83769.042    973.67398 
   17600    293.45677   -370.19726    277721.64   -76230.687    7465.0216   -83695.709    974.64271 
   17650    296.62915   -223.89923    277078.83   -76189.022    7545.7214   -83734.743    977.03398 
   17700     298.6088   -421.79334    276670.24   -76173.785    7596.0802   -83769.865    978.53692 
   17750    299.02882   -273.93039     276876.6   -76175.423    7606.7647   -83782.187    984.08457 
   17800    297.07554   -415.01934    277657.39   -76172.338    7557.0768   -83729.415    988.18719 
   17850    295.11402   -574.25552    278465.76   -76189.398    7507.1791   -83696.577    991.01327 
   17900    297.55732   -1069.3693    278539.65   -76215.886    7569.3325   -83785.219    994.44931 
   17950    294.75427   -351.16016    277810.18   -76240.527    7498.0277   -83738.554    995.18033 
   18000    293.06297   -425.80772    277108.61   -76305.644    7455.0042   -83760.648    995.09402 
   18050    295.68197   -251.71312    276735.04   -76348.653    7521.6269    -83870.28    996.28537 
   18100    291.65848   -667.35419    277188.25   -76376.296    7419.2764   -83795.572     1001.054 
   18150    295.20132   -786.87829    277505.62   -76413.943       7509.4   -83923.343    1005.5481 
   18200    294.32491   -627.95131    277414.06    -76354.96    7487.1057   -83842.066    1008.8861 
   18250     293.7089   -332.14345    277460.99   -76298.257    7471.4354   -83769.692    1010.2638 
   18300    297.55393   -399.21731    277617.28   -76277.741    7569.2462   -83846.987    1011.4909 
   18350     295.0532   -641.27216    277643.77    -76266.97    7505.6319   -83772.602     1012.739 
   18400    294.73609   -472.17059    277223.48    -76274.53    7497.5653   -83772.096    1013.9906 
   18450    291.59118   -245.37835    276941.88   -76305.815    7417.5644   -83723.379    1016.8501 
   18500    294.98311   -551.40716    277140.26   -76272.148     7503.849   -83775.997    1019.5171 
   18550    294.03251   -230.47997    277512.98   -76242.749    7479.6675   -83722.417    1023.6558 
   18600    293.29835   -496.05978    277952.34   -76200.804    7460.9916   -83661.796    1027.3443 
   18650     290.9582   -402.32419    277698.93   -76222.281    7401.4625   -83623.744    1028.4519 
   18700    293.83979   -693.63797    277349.81   -76238.063    7474.7649   -83712.828    1030.0003 
   18750    294.34772   -188.91452    277108.77   -76164.907    7487.6858   -83652.593    1031.5968 
   18800    296.55196   -468.95459    277312.94   -76178.614    7543.7578   -83722.372      1035.21 
   18850    296.78875   -526.99043       277487   -76204.977    7549.7814   -83754.759    1039.4046 
   18900    298.11254    -701.7564    277736.34   -76222.046    7583.4563   -83805.503     1042.459 
   18950    298.52506   -647.58577    277706.22   -76259.397    7593.9499   -83853.347    1046.5555 
   19000    297.47815   -227.76745    277515.35   -76235.318    7567.3186   -83802.637    1049.4391 
   19050    296.18705   -354.39359    277492.45   -76206.189    7534.4752   -83740.665    1051.5865 
   19100     298.5345   -635.22497    277572.78   -76251.268    7594.1901   -83845.459     1056.163 
   19150    298.01033   -688.19027    277829.97   -76213.714    7580.8563   -83794.571    1058.7193 
   19200    295.89625   -778.64528     277800.7   -76227.662    7527.0778    -83754.74    1060.6224 
   19250     295.7137    -304.8845    277325.83   -76219.424     7522.434   -83741.858     1063.157 
   19300    296.16351   -321.30324    277297.99   -76243.091    7533.8763   -83776.967    1065.7934 
   19350    293.75449   -451.88042    277731.86   -76271.425    7472.5951    -83744.02    1069.2576 
   19400    297.91105   -676.01922    277742.71    -76278.92    7578.3307   -83857.251    1070.7491 
   19450     293.0502   -368.79817    277337.66   -76303.173    7454.6793   -83757.852    1071.8086 
   19500    292.97408   -301.04587    276973.45   -76371.746    7452.7429   -83824.489     1072.269 
   19550    296.72704   -475.29537     277174.3   -76307.439    7548.2117   -83855.651     1075.335 
   19600    295.44835   -378.55483    277816.72   -76289.399    7515.6841   -83805.083    1078.6728 
   19650    300.65617   -899.31103    278362.64   -76244.398    7648.1617    -83892.56    1081.0567 
   19700    297.51892    -411.3425     277990.6   -76194.131    7568.3556   -83762.487    1082.2801 
   19750    296.70583   -470.93941    277322.64   -76220.408    7547.6721    -83768.08    1082.0792 
   19800     297.7757   -381.51686    277049.24   -76242.786    7574.8876   -83817.674    1083.7985 
   19850    295.79986   -234.29397    277272.05   -76221.492    7524.6258   -83746.118    1086.5796 
   19900    300.04351   -770.71133    277572.44   -76164.525    7632.5767   -83797.102    1090.2745 
   19950    297.04442   -622.68632    277503.27   -76172.249    7556.2851   -83728.534    1093.3201 
   20000     295.8363   -205.35587    277254.54   -76150.579    7525.5528   -83676.132    1096.6105 
   20050    295.86526   -477.23132    277416.06   -76186.059    7526.2894   -83712.349    1099.3804 
   20100    296.49286   -354.21466    277616.27   -76214.763    7542.2545   -83757.017    1101.4657 
   20150    290.16691   -536.83944    277732.02   -76238.727    7381.3334   -83620.061    1104.9788 
   20200    290.05521   -565.56396    277556.53   -76229.517    7378.4921   -83608.009    1107.9392 
   20250    295.58901   -398.59171    277272.99   -76247.629    7519.2621   -83766.892    1111.7586 
   20300    296.14481    -305.8574    277113.01   -76232.823    7533.4006   -83766.223    1114.3118 
   20350    297.93848   -503.16448    277338.68   -76224.443    7579.0283   -83803.472    1117.1301 
   20400    298.01901   -293.48052    277681.02   -76193.848     7581.077   -83774.925    1120.0033 
   20450    295.71461   -568.41952    278016.55   -76136.692    7522.4572    -83659.15    1122.9744 
   20500    301.49223   -680.76412    277851.36   -76140.987    7669.4296   -83810.417     1125.026 
   20550    295.12633   -547.73467    277413.35   -76134.063    7507.4924   -83641.556    1126.4419 
   20600    300.87362   -347.01664    277228.14   -76127.884    7653.6932   -83781.577    1130.0465 
   20650    302.65955   -431.85028    277495.68   -76085.025    7699.1242   -83784.149    1132.8223 
   20700    297.71569   -343.73622    277874.38   -76166.139     7573.361     -83739.5    1134.6521 
   20750    293.85046   -672.84748    278141.78   -76153.784    7475.0365    -83628.82    1136.3555 
   20800    297.30626   -480.93356    277993.98   -76141.513    7562.9459   -83704.459    1138.9126 
   20850     294.2076   -647.99251    277824.89   -76140.155    7484.1214   -83624.277    1141.8292 
   20900    302.65025   -175.28644    277508.69    -76075.45    7698.8875   -83774.338    1141.9548 
   20950    298.17094   -388.82165    277453.32   -76133.811    7584.9418   -83718.753    1145.1472 
   21000    297.26015   -404.38008    277546.02   -76162.211     7561.773   -83723.984    1149.0497 
   21050    298.29153   -418.43725    277633.34    -76109.21    7588.0095   -83697.219    1153.5819 
   21100    298.79422   -705.67979    277909.83   -76096.432    7600.7971   -83697.229    1157.9717 
   21150    298.65362   -672.73414    277917.63   -76135.862    7597.2204   -83733.082    1161.2524 
   21200    298.77642   -255.61607    277694.33   -76161.669    7600.3442   -83762.013    1164.0175 
   21250    295.51563   -337.11305    277746.55   -76199.824    7517.3954    -83717.22    1166.9515 
   21300    294.68963   -544.16562    277782.83   -76196.102    7496.3836   -83692.486    1168.5631 
   21350    298.14982   -785.83751     277848.9   -76268.358    7584.4047   -83852.763    1171.3351 
   21400     298.8794    -285.8011    277231.96   -76272.207    7602.9638    -83875.17    1171.9241 
   21450     290.5133   -184.37209    276829.58   -76252.951    7390.1449   -83643.096    1172.4023 
   21500    296.27775   -779.57734    277314.31   -76226.954    7536.7824   -83763.737    1174.5459 
   21550    291.56846   -498.34609    277730.35   -76227.688    7416.9864   -83644.675     1178.704 
   21600    295.37422   -654.95395    277862.87   -76274.555    7513.7983   -83788.353    1181.0393 
   21650    296.82452   -874.89645    277648.58    -76280.96    7550.6914   -83831.652    1183.9162 
   21700    294.67165   -374.24804    277260.37   -76256.595    7495.9261   -83752.521    1184.4594 
   21750     294.1715   -439.98512    277280.86   -76262.337    7483.2032    -83745.54    1186.7586 
   21800    297.56039    -388.7637    277402.76   -76274.511    7569.4106   -83843.921    1189.5222 
   21850    295.14567   -347.62933     277580.4   -76280.287    7507.9844   -83788.271    1193.0798 
   21900    296.17498   -669.10587    277680.23    -76259.98    7534.1683   -83794.148    1197.1833 
   21950     293.3829   -791.50146    277567.66   -76262.802    7463.1425   -83725.945    1196.3367 
   22000    298.14155   -556.08559    277346.88   -76215.063    7584.1942   -83799.257    1199.2184 
   22050    294.14758   -422.39271    277511.67   -76205.947    7482.5946   -83688.542    1200.5736 
   22100    297.41786   -648.51631    277813.14   -76182.799    7565.7848   -83748.583     1202.316 
   22150    296.25313   -744.41831    277841.42   -76169.701    7536.1561   -83705.857    1204.1768 
   22200    298.04728   -476.52883    277499.76    -76157.66    7581.7961   -83739.456    1203.1656 
   22250    299.84313   -644.80848    277191.72   -76180.204    7627.4793   -83807.684    1204.3704 
   22300    299.91649   -315.89203    277074.67    -76217.85    7629.3454   -83847.195    1207.4507 
   22350    300.50609   -674.68666    277654.46   -76224.098    7644.3438   -83868.442    1212.4464 
   22400     294.4508   -553.95951     278085.1   -76237.539    7490.3081   -83727.847     1216.431 
   22450    294.79926   -612.35971    277976.37   -76212.349    7499.1722   -83711.522    1217.4844 
   22500    296.62324   -745.07463     277383.9   -76142.167     7545.571   -83687.738    1218.9673 
   22550    301.27615    66.795971     276900.7   -76188.765     7663.933   -83852.698    1219.4181 
   22600     297.5839   -473.90395    277194.82    -76218.77    7570.0087   -83788.778    1223.0218 
   22650    292.54657   -665.52053    277734.78   -76189.948    7441.8677   -83631.816    1227.5184 
   22700    290.46194   -732.96552    277944.03   -76203.865    7388.8385   -83592.704    1231.1909 
   22750    294.18557   -518.83139     277958.8   -76168.143    7483.5611   -83651.704    1234.1969 
   22800     295.3967   -527.52411     277718.7   -76189.739      7514.37   -83704.109    1236.9148 
   22850    301.26495   -373.89428    277146.48    -76188.59    7663.6481   -83852.238    1238.9341 
   22900    298.20286   -485.62363    277259.13   -76137.074    7585.7539   -83722.828    1241.8899 
   22950    301.96449   -706.35046    277873.92    -76148.16    7681.4429   -83829.603    1246.5496 
   23000    297.63387   -539.26224    278181.35   -76206.387    7571.2797   -83777.667    1248.8995 
   23050    296.63571   -180.03057    277962.29   -76190.717    7545.8882   -83736.605    1251.7646 
   23100     294.1273   -330.37587    277890.46   -76237.349    7482.0788   -83719.428    1254.7283 
   23150    298.41266   -587.15161    277672.84   -76246.547    7591.0907   -83837.638    1255.3889 
   23200    298.90297   -199.69279    277350.31   -76207.857    7603.5634    -83811.42    1256.0498 
   23250    297.44879   -751.02883       277466   -76192.054    7566.5715   -83758.625    1259.3094 
   23300    296.79619   -315.10725    277491.05   -76202.803    7549.9706   -83752.774    1260.5327 
   23350    299.17429   -657.76592    277865.57   -76223.536    7610.4653   -83834.001    1264.6711 
   23400    294.74784   -779.99584    278280.73   -76201.812    7497.8643   -83699.676    1269.2933 
   23450    298.84611   -499.80129    277911.55    -76227.03    7602.1169   -83829.147    1270.1823 
   23500    295.56917   -421.18375    277393.95    -76250.61    7518.7575   -83769.367    1269.5684 
   23550    296.42701   -399.32098    277170.69   -76249.059    7540.5794   -83789.639      1271.44 
   23600    302.04168   -517.58985    277267.85   -76262.598    7683.4067   -83946.005    1275.0517 
   23650    295.52199    -457.5347    277568.06   -76296.873    7517.5571    -83814.43    1277.9278 
   23700    294.59018   -633.09804    277759.28   -76311.976    7493.8535   -83805.829    1282.2478 
   23750    291.13292   -843.82864    277692.31    -76299.81    7405.9072   -83705.717    1284.3493 
   23800    296.91628   -588.87974     277409.8   -76274.193    7553.0256   -83827.219    1285.4522 
   23850    294.03406    -397.0055    277116.46   -76239.562    7479.7068   -83719.269    1286.5899 
   23900    296.84399   -312.96946    277046.27    -76252.27    7551.1866   -83803.456    1287.3052 
   23950    295.85559   -611.19031    277448.13   -76294.002    7526.0433   -83820.046    1290.1286 
   24000    294.15158   -805.16376    277695.34   -76268.703    7482.6963   -83751.399    1293.7302 
   24050    292.08107   -363.75602    277468.51   -76261.205    7430.0264   -83691.231    1296.5361 
   24100    294.29956   -566.23169    277258.94   -76266.326    7486.4608   -83752.787    1297.1194 
   24150    294.51304   -457.53955    277291.31   -76236.736    7491.8914   -83728.627    1299.6148 
   24200    291.93926   -619.09275    277662.45   -76244.779    7426.4189   -83671.198    1303.7351 
   24250    295.81189   -694.20789    277956.55   -76176.137    7524.9317   -83701.069    1308.2575 
   24300    298.30866   -852.44691    277955.36   -76212.045    7588.4453   -83800.491    1310.5382 
   24350    291.58497   -521.21456    277504.83   -76244.817    7417.4064   -83662.224    1311.5527 
   24400    297.43775   -197.54565    276913.19   -76266.924    7566.2907   -83833.215    1311.4394 
   24450    298.14401   -493.97438    276983.35   -76274.055    7584.2567   -83858.312    1314.4283 
   24500    291.21917   -539.30794    277456.69   -76267.642    7408.1011   -83675.743    1318.6486 
   24550    293.47331   -699.40648    278010.81   -76296.271    7465.4425   -83761.713    1324.1186 
   24600    295.45433   -883.01239    278079.83   -76318.352     7515.836   -83834.188       1327.3 
   24650    292.36743   -532.44529    277260.58   -76312.392    7437.3108   -83749.703    1325.1554 
   24700    292.52241   -241.28529    276476.34   -76317.523    7441.2533   -83758.777     1324.571 
   24750    291.62369   -221.36039    276529.02    -76308.55    7418.3914   -83726.941    1326.3685 
   24800    291.62094    -500.2393    277366.07   -76330.032    7418.3215   -83748.354    1332.5331 
   24850    290.79975   -782.70403    277793.41   -76322.602    7397.4319   -83720.034    1336.6508 
   24900    294.03338   -496.34601    277390.62    -76365.96    7479.6896    -83845.65     1337.552 
   24950    292.08775   -526.74188    277166.71   -76360.837    7430.1963   -83791.034    1338.5447 
   25000    297.95507   -634.58055    277057.07   -76333.044    7579.4506   -83912.495     1339.773 
   25050    293.98083   -224.74055    277117.29   -76318.208    7478.3528   -83796.561    1341.2111 
   25100    293.86076   -552.53902    277575.05   -76338.677    7475.2984   -83813.976    1345.1152 
   25150    295.28107   -399.33799    277657.31   -76323.615    7511.4285   -83835.044    1349.4927 
   25200    293.47555   -476.94469    277615.48   -76278.151    7465.4995    -83743.65    1350.9753 
   25250    299.66068   -277.38305    277422.89   -76271.238    7622.8383   -83894.076    1351.4631 
   25300    298.84087   -670.28301    277447.93   -76240.056    7601.9837    -83842.04    1354.0278 
   25350    289.79816   -361.41682    277433.77   -76246.355     7371.953   -83618.308    1356.2577 
   25400    295.20764   -676.17048    277506.38   -76271.421    7509.5607   -83780.982     1357.648 
   25450    297.16329   -528.29977    277370.57   -76293.769     7559.309   -83853.078    1359.5277 
   25500     294.3623   -535.04431    277480.86   -76307.215    7488.0568   -83795.272    1363.4731 
   25550    294.81514   -565.99474    277810.99   -76310.912    7499.5761   -83810.488     1366.939 
   25600    292.38767   -408.90855    277875.29   -76325.031    7437.8256   -83762.856    1370.1128 
   25650    296.85022   -586.93423    277442.36   -76308.269    7551.3451   -83859.614    1370.9907 
   25700    296.72589   -173.23876    276839.38   -76286.403    7548.1822   -83834.586    1369.4576 
   25750    293.64494    -396.5868    277039.03   -76297.062    7469.8083    -83766.87    1372.7293 
   25800    295.00889   -399.84892    277737.25    -76273.84     7504.505   -83778.345    1377.5182 
   25850    292.27599   -693.35998    278181.44   -76269.061    7434.9848   -83704.046     1380.209 
   25900    295.85847   -344.87486    277976.58   -76308.446    7526.1167   -83834.562    1382.5091 
   25950    291.73167    -538.5102       277475   -76333.919    7421.1383   -83755.058    1384.7399 
   26000    288.24442   -475.82001    276906.48   -76369.819    7332.4287   -83702.248     1385.257 
   26050    294.15265   -125.22077     276567.9   -76376.037    7482.7236   -83858.761    1386.4307 
   26100    294.71615   -377.91179     276917.9   -76392.347    7497.0581   -83889.405    1389.9654 
   26150    287.76212   -759.26046    277610.67   -76315.705    7320.1597   -83635.865     1393.868 
   26200    292.93821   -707.41902    277952.35   -76303.664    7451.8304   -83755.494    1396.8772 
   26250    293.81254    -755.0184    278087.93   -76266.279    7474.0718   -83740.351    1399.0176 
   26300    295.30307   -344.18478    277688.52   -76272.103    7511.9884   -83784.092    1398.8768 
   26350    293.72765    -392.7012    277190.42    -76216.48    7471.9124   -83688.392    1397.5971 
   26400    298.79488   -144.21995    277117.71   -76218.074    7600.8137   -83818.888    1399.2575 
   26450    289.07908   -409.84964    277413.17   -76254.198    7353.6609   -83607.858    1400.9874 
   26500    294.23037   -318.32605    277716.19   -76229.471    7484.7008   -83714.172    1402.6356 
   26550    292.75225   -591.32827    277811.95     -76271.7    7447.0998     -83718.8    1404.6451 
   26600    292.67694   -532.22087    277603.48    -76257.71    7445.1841   -83702.894    1404.2395 
   26650    289.57087   -381.36857    277573.26   -76282.428    7366.1712   -83648.599    1406.4066 
   26700      296.291   -771.80294    277366.15   -76337.706    7537.1196   -83874.825    1408.7223 
   26750    289.96203   -335.31988    277010.83   -76366.542    7376.1216   -83742.663    1410.1551 
   26800    295.81996   -392.75479    277126.89   -76378.465    7525.1371   -83903.602     1414.091 
   26850     295.5106   -664.21381    277439.85   -76419.755    7517.2675   -83937.023    1419.1685 
   26900    293.25646   -350.09855    277520.23   -76447.004    7459.9262   -83906.931    1420.9331 
   26950    292.06362   -580.18112    277206.58    -76440.87    7429.5824   -83870.452    1422.9652 
   27000    291.94587   -183.56055    276831.07   -76457.577    7426.5871   -83884.164     1426.538 
   27050    288.95772   -462.42261    276805.29   -76453.507    7350.5739   -83804.081    1429.8909 
   27100    293.39303   -621.59659    277061.18   -76494.472    7463.4003   -83957.873    1432.9783 
   27150    291.86012   -606.51305     277390.2   -76394.462    7424.4057   -83818.867     1438.073 
   27200    292.32314    -552.3755    277316.43   -76387.207    7436.1842   -83823.391    1440.8292 
   27250    296.90864   -476.99751    277160.46   -76398.286     7552.831   -83951.117     1443.028 
   27300     294.2723   -632.63887    277180.37   -76381.576    7485.7673   -83867.343    1445.9332 
   27350    292.67784   -346.71075    277158.68   -76389.849    7445.2071   -83835.056    1447.9298 
   27400    294.73414   -489.73648    277463.47   -76353.184    7497.5157   -83850.699    1451.1324 
   27450    290.19207   -529.73901    277657.24   -76306.337    7381.9735   -83688.311    1452.0254 
   27500    295.48085   -640.07495    277708.66   -76266.973    7516.5107   -83783.484    1453.1185 
   27550    297.10469     -788.441    277451.38   -76258.055    7557.8184   -83815.873    1450.9732 
   27600    297.71686   -336.27645    276980.49   -76244.632    7573.3909   -83818.023    1453.3243 
   27650    295.40964   -236.10117    277327.54    -76284.12    7514.6992    -83798.82    1456.8966 
   27700    294.00128   -252.86747    277981.22   -76278.034    7478.8731   -83756.907    1463.3755 
   27750    297.25551   -868.28507    278198.69   -76236.404    7561.6548   -83798.059    1467.1561 
   27800    297.33551   -529.67138    277728.26   -76294.041      7563.69   -83857.731    1468.1089 
   27850    294.25259   -422.69823    277312.47   -76266.239    7485.2658   -83751.505    1469.6577 
   27900     299.4392   -254.60348     277345.4   -76193.327    7617.2041   -83810.531    1473.8419 
   27950    293.40266   -325.57056    277616.11   -76198.688    7463.6451   -83662.333    1478.0162 
   28000    292.54564   -454.72764    277768.91   -76200.535    7441.8442   -83642.379    1480.6371 
   28050    296.56229   -529.94443    277656.64   -76181.598    7544.0206   -83725.618     1480.801 
   28100    298.39211   -695.80378    277653.33    -76183.84    7590.5681   -83774.408    1483.9961 
   28150    298.98304   -687.33812    277645.57   -76219.981    7605.6001   -83825.581    1485.5464 
   28200    291.28863   -359.68006     277462.8   -76245.425    7409.8681   -83655.293    1487.0161 
   28250    296.18286   -371.14288    277398.49   -76194.071    7534.3687   -83728.439    1487.2932 
   28300    294.67886   -459.64066    277477.72   -76199.881    7496.1095    -83695.99    1490.8885 
   28350    299.45552   -503.10438    277443.75   -76232.289    7617.6193   -83849.909    1493.1827 
   28400    299.50882   -301.00006     277277.1   -76225.688    7618.9752   -83844.664    1496.0651 
   28450    294.15931   -470.72415    277435.48   -76220.268    7482.8931   -83703.161    1501.1313 
   28500    294.36194   -288.93972    277684.59   -76167.746    7488.0477   -83655.793    1506.2265 
   28550    300.12748   -719.13709    278013.21   -76130.735    7634.7128   -83765.448     1510.766 
   28600    299.40871   -506.16523    277754.15   -76091.991    7616.4286   -83708.419    1512.7142 
   28650    298.84765   -236.26854    277458.19   -76107.307    7602.1562   -83709.463    1514.8401 
   28700    297.88026   -550.68534    277717.44   -76065.343    7577.5475    -83642.89    1519.3861 
   28750    296.72391   -509.73022    277951.19   -76094.383    7548.1319   -83642.515    1522.0872 
   28800    299.54054   -617.49719    277674.18   -76172.443    7619.7819   -83792.225     1523.651 
   28850    296.42952   -404.11667    277304.41   -76185.745    7540.6431   -83726.388     1524.085 
   28900    294.86243   -385.28711    277162.41   -76194.776    7500.7792   -83695.555    1525.5018 
   28950    297.99782   -388.10649     277493.9   -76204.025    7580.5381   -83784.563    1529.2891 
   29000    294.34325   -748.88985    277844.38   -76232.688    7487.5721    -83720.26    1531.6531 
   29050    292.33145   -530.66006    277663.95   -76243.606    7436.3954   -83680.002    1532.4179 
   29100    298.38583   -286.41482    277113.67   -76231.566    7590.4082   -83821.975    1534.0731 
   29150    296.55129   -652.95528    277137.12   -76238.746    7543.7407   -83782.487    1536.0808 
   29200    293.06281   -574.19287    277541.52   -76239.267         7455   -83694.267    1539.5044 
   29250    293.92586   -484.00421     277824.3   -76188.188    7476.9545   -83665.142    1541.7096 
   29300    301.26742   -586.48045    277893.72   -76235.985    7663.7107   -83899.696     1543.857 
   29350    288.57444   -376.03496    277930.39   -76256.299    7340.8239   -83597.123    1546.5493 
   29400    297.07048   -672.50421    277764.85   -76282.997     7556.948   -83839.945     1549.282 
   29450    297.23786   -264.19809    277126.67   -76287.982     7561.206   -83849.188    1549.2317 
   29500    291.90098    -297.9337    276994.72   -76293.634    7425.4451   -83719.079    1549.5921 
   29550    292.69538   -202.34706    277354.17   -76248.948    7445.6532   -83694.601    1551.9341 
   29600    297.04752   -656.88023    277925.63   -76219.948     7556.364   -83776.312    1557.3752 
   29650    296.91609   -422.63103    277787.67   -76200.649    7553.0207   -83753.669    1558.0291 
   29700     293.8649   -274.69343    277327.46   -76234.998    7475.4039   -83710.402    1559.1102 
   29750    296.55672   -401.00369    277023.17   -76214.802    7543.8789   -83758.681    1560.2048 
   29800    297.53386   -719.04546    276979.06   -76197.529    7568.7356   -83766.264    1562.2203 
   29850    296.80576   -315.56408     277041.2   -76192.259    7550.2142   -83742.474    1564.1528 
   29900    300.47113    -675.8867    277421.99   -76153.851    7643.4547   -83797.306    1568.0851 
   29950    293.93038   -600.19188    277678.65   -76144.594    7477.0694   -83621.664    1574.4656 
   30000    297.05248   -429.56063    277738.21   -76175.985    7556.4901   -83732.475    1576.9974 
   30050     295.9066     -721.861    277650.32   -76209.495     7527.341   -83736.837    1579.4157 
   30100    293.94624   -253.26506     277318.6   -76159.399    7477.4731   -83636.872    1580.5601 
   30150    296.55295   -585.39444    277382.05   -76166.851     7543.783   -83710.634    1583.7413 
   30200    294.99115   -610.67376    277587.03   -76161.227    7504.0537   -83665.281    1587.2945 
   30250    294.82252   -263.72011    277512.58   -76174.826    7499.7639    -83674.59    1589.4973 
   30300    296.47894    -398.8425    277761.56   -76153.584    7541.9004   -83695.485    1593.4432 
   30350    294.46594   -650.32422    278117.27   -76169.239    7490.6932   -83659.932    1599.4313 
   30400    296.20603    -974.0697    278306.22   -76238.935    7534.9579   -83773.893    1601.0952 
   30450    295.16057   -630.41025    277858.54    -76266.46    7508.3632   -83774.824    1601.4004 
   30500     298.0642   -268.30531     277065.6   -76220.886    7582.2266   -83803.112    1599.8154 
   30550    298.37506   -151.13184    276830.28   -76222.456    7590.1343    -83812.59    1601.7079 
   30600    297.36889   -523.49408    277332.56   -76262.922    7564.5391   -83827.461    1606.1772 
   30650    297.95665   -916.89714    278080.56   -76275.927    7579.4907   -83855.418    1613.1123 
   30700    294.12044   -856.62412    278156.46   -76271.508    7481.9043   -83753.413    1614.0438 
   30750    294.68835   -667.76027    277621.48   -76303.778    7496.3509   -83800.129    1614.5592 
   30800    291.38169   -544.83794    276799.18   -76350.402    7412.2354   -83762.637    1612.6546 
   30850    298.23064   -46.878675    276266.34   -76383.715    7586.4605   -83970.175    1611.8423 
   30900    294.06375   -345.46441    276949.64   -76361.139    7480.4622   -83841.601    1617.2639 
   30950    289.46909   -647.35173    278080.91    -76362.94    7363.5821   -83726.522    1626.2258 
   31000    290.74542   -730.76963    278245.36   -76362.531    7396.0496    -83758.58    1631.1178 
   31050     288.7994   -452.59034    277664.89   -76353.865    7346.5464   -83700.411    1630.1634 
   31100    297.47763   -514.75384    277135.58   -76330.296    7567.3053   -83897.601    1629.9558 
   31150    294.85407   -408.56047    277087.45   -76297.837    7500.5666   -83798.403    1630.7583 
   31200    290.19905   -684.07484    277173.18   -76281.162     7382.151   -83663.313    1633.8584 
   31250    295.78413   -686.38938    277277.48   -76284.944    7524.2257    -83809.17    1637.7536 
   31300    295.39657   -536.83516    277550.01   -76272.056    7514.3667   -83786.423    1641.0052 
   31350    289.87911   -578.64076    277794.58   -76293.416    7374.0124   -83667.429    1644.3955 
   31400    295.96956   -595.12201    278022.56   -76324.949    7528.9426   -83853.891    1647.5277 
   31450    289.21281   -591.70774    277876.04    -76301.74    7357.0628   -83658.803    1647.7592 
   31500    294.74342   -566.30398    277283.56   -76308.874    7497.7517   -83806.626    1648.6622 
   31550    296.17465   -361.82941    276956.47   -76327.875    7534.1598   -83862.035    1652.2009 
   31600     291.9863   -267.94221    277059.98   -76349.679    7427.6155   -83777.294    1656.1176 
   31650    299.96705   -570.09343    277462.52   -76292.485    7630.6316   -83923.117    1659.7954 
   31700    294.51061   -648.27008    277609.25   -76305.707    7491.8295   -83797.537    1664.1053 
   31750    295.28138   -557.99795    277388.58   -76298.202    7511.4365   -83809.639    1665.8085 
   31800    292.34398   -611.82786    277317.65   -76297.452    7436.7143   -83734.167    1669.1592 
   31850    290.06989   -494.55202    277248.97   -76339.245    7378.8656   -83718.111    1670.6148 
   31900    289.06669   -442.74172    277312.36   -76364.796    7353.3457   -83718.141    1672.0802 
   31950    293.52786   -137.71129    277245.42   -76337.423      7466.83   -83804.253    1673.0748 
   32000    292.01133   -646.97826    277470.68   -76362.722    7428.2521   -83790.974    1677.6471 
   32050    291.25219   -240.17164     277682.6   -76368.057     7408.941   -83776.998    1682.2587 
   32100    293.69004    -601.8082    277692.92   -76350.033    7470.9557   -83820.989     1684.807 
   32150     289.3284   -451.13259    277274.78    -76385.09    7360.0033   -83745.093    1685.2609 
   32200    292.06162   -260.99755    276618.41   -76355.857    7429.5315   -83785.389      1685.01 
   32250    291.46271   -116.01935    276792.61    -76337.34    7414.2963   -83751.636    1688.8354 
   32300    287.81561   -670.46501    277753.63   -76353.275    7321.5206   -83674.796    1695.2581 
   32350    291.39515   -831.81165    278118.64   -76345.012    7412.5778    -83757.59    1697.6323 
   32400    293.93695   -695.41172    277774.52   -76347.768    7477.2366   -83825.005    1699.2599 
   32450    295.06956    -605.8964    277222.54   -76387.916    7506.0481   -83893.965    1699.0553 
   32500    294.47501   -378.89971     277009.9   -76358.896    7490.9239    -83849.82    1699.3967 
   32550    290.71576   -636.36817    277403.93   -76373.567    7395.2953   -83768.862    1702.0175 
   32600     295.8542   -465.13027    277478.62   -76323.445    7526.0081   -83849.453     1704.479 
   32650     299.0743   -706.13388    277405.48   -76324.765    7607.9216   -83932.686    1707.9444 
   32700    297.79276   -495.20483    277455.93   -76334.448    7575.3217   -83909.769    1710.3923 
   32750    296.56275   -587.39134    277459.11   -76310.846    7544.0323   -83854.879    1712.2097 
   32800    295.78181   -539.08583    277466.98   -76334.439    7524.1667   -83858.605    1713.6315 
   32850    289.61018   -558.19957    277600.46   -76319.624    7367.1713   -83686.795    1718.0814 
   32900    293.02613   -737.48398    277320.11   -76343.597     7454.067   -83797.664    1720.1464 
   32950    292.49586   -571.18807    276776.84   -76387.714    7440.5778   -83828.291    1720.4322 
   33000     294.8492   -142.01022    276341.49   -76337.121    7500.4427   -83837.564    1722.0332 
   33050    295.01369   -415.02527    276799.04   -76332.767    7504.6269   -83837.394    1727.3728 
   33100    292.12999   -695.93994     277824.6    -76342.82    7431.2707   -83774.091    1735.2572 
   33150    293.13143   -928.86556    278625.83     -76337.2    7456.7455   -83793.945     1740.613 
   33200    289.98973   -857.75371    278331.29   -76365.852    7376.8262   -83742.679    1742.3051 
   33250     296.2842   -488.51022    277213.57    -76386.69    7536.9466   -83923.637    1738.2942 
   33300    295.08973   -282.92377    276580.09   -76376.871    7506.5614   -83883.433    1739.3969 
   33350    296.26229   -349.43778     276838.3   -76412.142     7536.389   -83948.531    1741.4065 
   33400    293.90124   -283.92524    277633.05   -76380.268    7476.3282   -83856.596    1747.4662 
   33450    290.83742   -693.55698    278351.27   -76350.967    7398.3901   -83749.358     1753.046 
   33500    291.24665   -891.25599    278049.76   -76377.658    7408.8002   -83786.458    1752.2224 
   33550     287.6092   -398.75672    277071.45   -76356.038    7316.2698   -83672.307    1749.6234 
   33600     291.6047   -110.85344    276434.05    -76375.59    7417.9083   -83793.499     1750.075 
   33650    292.58003   -238.45148    276832.46    -76382.93    7442.7189   -83825.648    1754.5571 
   33700     291.4796   -542.13578     277904.9   -76337.662    7414.7261   -83752.388    1761.3541 
   33750     292.7215   -486.80973    278609.87   -76306.927    7446.3176   -83753.245    1766.8382 
   33800    293.20595   -950.49837    278323.33   -76304.998    7458.6413   -83763.639    1768.0113 
   33850    293.69809   -253.71863    277245.81    -76326.44    7471.1605     -83797.6    1765.9322 
   33900    293.28009   -207.10449    276797.08    -76350.09    7460.5272   -83810.617    1767.3878 
   33950    293.71115   -95.843728    277251.14   -76358.495    7471.4928   -83829.988    1772.2111 
   34000    297.20043   -742.52486    278028.78   -76317.305    7560.2538   -83877.559    1777.4352 
   34050    292.55398   -847.57495    278210.69   -76320.686    7442.0564   -83762.742    1781.3813 
   34100    297.82021   -671.84818    277723.17   -76352.334      7576.02   -83928.354    1780.9948 
   34150    292.58439   -283.74239    277007.42   -76353.204    7442.8298   -83796.033    1778.8384 
   34200    291.77965   -184.88645     276717.4   -76366.108    7422.3588   -83788.467    1779.6699 
   34250    292.38706   -539.77549    277023.73   -76357.247    7437.8101   -83795.057     1782.265 
   34300    297.07295   -424.94568     277544.1    -76311.95     7557.011   -83868.961    1788.0135 
   34350    293.70829   -477.61421    277888.75   -76331.276      7471.42   -83802.696    1791.2963 
   34400    293.79397   -624.67177    277875.08   -76373.666    7473.5994   -83847.265    1791.8751 
   34450    296.01959   -667.42893    277638.39   -76328.889    7530.2152   -83859.104    1793.7468 
   34500    290.53831   -540.39587    277201.68   -76372.374    7390.7811   -83763.155    1794.4021 
   34550    291.45595   -300.59584    277097.27   -76420.511    7414.1243   -83834.636    1797.6556 
   34600    292.08465   -179.61291     277499.5   -76456.994    7430.1173   -83887.112    1803.6043 
   34650     295.6661   -651.66481    277724.42   -76427.117    7521.2232    -83948.34    1807.4908 
   34700    293.15228   -514.35066    277611.28   -76394.627    7457.2759   -83851.903    1809.4251 
   34750      295.238    -819.7631    277501.38   -76413.776    7510.3331   -83924.109    1809.1853 
   34800    286.30459   -101.88001       277108    -76384.01    7283.0829   -83667.093    1810.6114 
   34850    290.49438   -446.21255    277027.79   -76413.804    7389.6636   -83803.467    1811.1944 
   34900    291.65028   -336.24622    277061.75    -76420.55    7419.0677   -83839.618    1813.6351 
   34950    293.14104   -502.64307    277217.07   -76368.561    7456.9901   -83825.551    1817.8056 
   35000    295.60899   -437.69446    277585.09   -76372.748    7519.7704   -83892.518    1821.2373 
   35050    289.83508   -813.31311       278140   -76347.411    7372.8922   -83720.303    1826.6399 
   35100    291.91234   -833.69754    278122.11   -76382.512    7425.7342   -83808.246    1829.1517 
   35150    297.10516   -479.34639    277259.14   -76414.031    7557.8303   -83971.861    1827.2138 
   35200    299.25307   -565.73425    276840.72   -76412.698    7612.4694   -84025.167    1826.8464 
   35250    291.41002   -239.83161    277012.99   -76367.884     7412.956    -83780.84    1830.5671 
   35300    294.57684   -745.20008    277515.77   -76340.849    7493.5144   -83834.364    1836.8138 
   35350     295.7436   -624.63173    277760.07   -76315.071    7523.1946   -83838.265    1838.6882 
   35400     297.7299   -456.77066    277447.49   -76363.613    7573.7225   -83937.336    1837.1924 
   35450    292.13294   -393.74687    277216.59   -76334.348    7431.3457   -83765.694    1837.5763 
   35500    295.37444   -399.83856    277139.97   -76309.096    7513.8039     -83822.9     1838.946 
   35550    292.19759   -522.76442    277393.63    -76356.24    7432.9904   -83789.231    1846.0764 
   35600    296.47668   -457.20683    277605.11   -76268.845    7541.8428   -83810.688    1849.3046 
   35650     293.2775   -524.84907    277594.42   -76261.283    7460.4615   -83721.745    1850.9457 
   35700    293.10803   -619.59998    277636.34   -76312.867    7456.1503   -83769.017    1853.3522 
   35750    293.16386   -508.72309    277706.67   -76316.391    7457.5705   -83773.962    1857.9385 
   35800    288.38556   -731.78881    277871.62   -76322.174    7336.0192   -83658.194    1861.2909 
   35850    293.32467   -691.35516    277821.24   -76291.234    7461.6613   -83752.895    1862.3951 
   35900    297.25268   -132.30312    277519.06   -76295.218     7561.583   -83856.801    1862.6853 
   35950    295.02632   -341.25065     277502.7   -76317.629    7504.9483   -83822.577    1867.9471 
   36000    289.25192   -269.23122    277447.91   -76341.822    7358.0578    -83699.88      1870.66 
   36050    292.20685   -649.94823    277416.97   -76382.397     7433.226   -83815.623    1873.6766 
   36100    292.51143   -640.27531    277117.16   -76357.837    7440.9739   -83798.811    1873.2682 
   36150    293.42035   -354.57931    277051.56   -76346.601    7464.0952   -83810.696    1873.2452 
   36200    297.38714   -751.36559    277528.14   -76351.156    7565.0034   -83916.159    1877.8299 
   36250    290.30785   -718.09448    277806.65    -76333.47    7384.9187   -83718.388    1881.4701 
   36300    292.08124   -446.98816    277817.38   -76383.534    7430.0307   -83813.565    1881.8355 
   36350    296.25757   -396.88122    277401.13    -76317.41     7536.269   -83853.679    1881.8057 
   36400    293.73135   -511.44941    276864.84   -76369.107    7472.0066   -83841.114     1880.714 
   36450    293.02217   -325.57903    276667.93   -76340.501    7453.9661   -83794.467    1884.6384 
   36500    294.98024   -721.17147    277071.63   -76342.538     7503.776   -83846.314    1889.5088 
   36550    294.59433   -422.99928    277436.11   -76306.712    7493.9592   -83800.672    1894.8659 
   36600    296.46664   -544.59991    277755.48   -76283.255    7541.5875   -83824.842    1898.0153 
   36650    296.24187    -747.2829    277903.58   -76304.707    7535.8697   -83840.577    1902.3514 
   36700    293.00478   -565.65294    277782.67   -76298.845    7453.5237   -83752.368    1905.0972 
   36750    291.04371   -343.47421     277405.8   -76320.167    7403.6378   -83723.805    1907.5132 
   36800    298.80186   -282.36553     277101.9   -76286.314    7600.9912   -83887.305    1909.5784 
   36850    294.79325   -567.84854    277159.89   -76295.744    7499.0194   -83794.763    1912.1551 
   36900    292.52081   -564.90701    277531.12   -76302.009    7441.2126   -83743.221    1914.6631 
   36950    293.68691   -527.94016    277696.43   -76345.226     7470.876   -83816.102    1920.0542 
   37000    294.73364   -639.52701    277716.64   -76366.406     7497.503   -83863.909    1921.7575 
   37050    293.26498   -710.69257    277610.19     -76376.6    7460.1428   -83836.743    1925.6377 
   37100     293.5811   -435.82953    277536.12   -76326.187    7468.1844   -83794.372    1927.5891 
   37150    294.48043    -844.8108    277375.56   -76345.855    7491.0618   -83836.917     1927.026 
   37200    295.59451   -494.81804    277104.96    -76364.62     7519.402   -83884.022    1926.5619 
   37250    297.37409   -630.63917    277224.52   -76360.721    7564.6714   -83925.393    1931.3577 
   37300    296.67848    -408.6566    277327.22   -76373.588    7546.9762   -83920.564     1933.268 
   37350    291.38574   -598.95331    277681.05   -76362.647    7412.3383   -83774.986    1939.1306 
   37400    290.65799   -694.19748    277591.98   -76355.652    7393.8257   -83749.477    1944.3654 
   37450    296.65093   -704.66464    277143.62    -76357.76    7546.2754   -83904.036    1944.3159 
   37500    297.10301   -169.00316    276781.78    -76359.33    7557.7755   -83917.106     1945.518 
   37550    294.75334    -503.2085    277154.27   -76350.062    7498.0042   -83848.066    1949.8429 
   37600     289.6465   -704.60362    277668.37   -76358.464    7368.0952   -83726.559     1954.729 
   37650    292.72321    -512.7881    277774.66   -76347.255    7446.3613   -83793.617    1957.9212 
[...]
   90850    296.81612   -332.63768    277864.84   -76126.782    7550.4777    -83677.26    4616.5254 
   90900    297.41565   -752.83154    278112.78   -76130.351    7565.7286   -83696.079    4619.2738 
   90950    295.36261   -732.02558    277861.36   -76172.941     7513.503   -83686.444    4615.2592 
   91000    295.67618    -394.4786    277245.22   -76154.084    7521.4796   -83675.563    4608.7145 
   91050    291.35298   -113.79181    277129.66   -76189.728     7411.505   -83601.233    4611.4946 
   91100    293.73102   -256.74202    277615.31   -76132.132    7471.9981    -83604.13    4619.1688 
   91150    299.78548   -563.40193     278174.9   -76149.353    7626.0129   -83775.366    4627.9769 
   91200     297.8924   -597.37739    278420.03   -76174.415    7577.8564   -83752.272    4635.4914 
   91250    299.50199   -770.10965    278102.61   -76191.539    7618.8013   -83810.341    4636.1944 
   91300    297.51501   -264.47954    276941.43   -76206.593    7568.2561   -83774.849    4625.8262 
   91350    300.12626   -413.10387    276536.34   -76216.131    7634.6817   -83850.813    4623.1479 
   91400     298.1356   -541.83772    277132.32   -76248.873    7584.0428   -83832.916    4636.1324 
   91450    298.33757   -607.39899     277886.4   -76269.197    7589.1806   -83858.378     4651.573 
   91500    292.84137   -552.81049    278111.95   -76262.307    7449.3669   -83711.674    4658.3122 
   91550    299.33037   -503.89973    277423.31   -76262.362    7614.4358   -83876.798    4653.5009 
   91600    295.24146    -464.3419    276751.72   -76295.486    7510.4211   -83805.907    4649.9487 
   91650    288.50885   -393.85922    276881.36   -76353.415    7339.1553    -83692.57    4657.5826 
   91700    290.01787   -572.37877    277639.62   -76359.472    7377.5421   -83737.015    4670.6384 
   91750    294.42645   -859.23411     278180.3   -76307.054    7489.6886   -83796.743    4680.5182 
   91800    293.15677   -645.93601    277759.99   -76314.631    7457.3903   -83772.022    4676.0053 
   91850    296.68514   -323.76037    277082.44   -76351.283    7547.1458   -83898.429    4673.8219 
   91900     292.5123   -380.55718    276968.26   -76336.169     7440.996   -83777.165    4676.0972 
   91950    295.09058   -484.03184    277395.73   -76387.788     7506.583   -83894.371    4681.8576 
   92000    294.81088   -931.87483    277799.02   -76347.211    7499.4678   -83846.679    4689.8391 
   92050    294.09821     -293.428    277773.18   -76405.874    7481.3388   -83887.213    4693.1265 
   92100    296.37526   -296.93464    277520.18   -76332.972    7539.2629   -83872.235    4695.1936 
   92150    289.90917   -577.46351    277333.15   -76322.357    7374.7769   -83697.134    4698.0822 
   92200    292.24199   -343.57188    277165.24   -76314.333    7434.1198   -83748.453    4699.5644 
   92250    293.37552   -298.66573     277207.6    -76285.36    7462.9548   -83748.314    4699.9083 
   92300    287.97851   -525.39931    277661.66   -76288.495    7325.6644    -83614.16    4707.6166 
   92350    294.83381   -570.45226    277955.62   -76300.247     7500.051   -83800.298    4713.2803 
   92400    294.83675   -667.72894    277745.48   -76302.322    7500.1259   -83802.448    4716.4243 
   92450    296.66878   -536.93045    277241.85   -76295.137    7546.7294   -83841.867    4716.3153 
   92500    292.95413   -311.56339    277022.39   -76313.611    7452.2355   -83765.846    4722.7467 
   92550    292.63962   -492.65549    277040.64   -76322.614    7444.2349   -83766.848    4729.7599 
   92600    294.87232   -326.95449    277160.73   -76354.331    7501.0307   -83855.361    4732.3512 
   92650    299.06622   -569.95112     277302.9   -76346.406    7607.7161   -83954.122    4733.7002 
   92700    291.95609   -425.02475     277464.2   -76335.624    7426.8472   -83762.471    4738.1866 
   92750    292.07974   -410.87679    277560.87   -76390.134    7429.9924   -83820.126     4742.079 
   92800    298.42722   -522.35945    277586.95   -76385.092    7591.4611   -83976.553    4746.1353 
   92850    293.03342   -349.07679    277470.88   -76361.895    7454.2524   -83816.147    4746.7475 
   92900    292.86338   -327.92922    277302.03   -76374.567     7449.927   -83824.494    4750.6441 
   92950    292.08111   -251.63041    277201.99   -76361.129    7430.0274   -83791.157     4753.971 
   93000    294.01792   -352.76774     277380.3   -76326.647    7479.2964   -83805.944     4761.364 
   93050    295.63528    -589.7948    277974.55   -76298.534    7520.4391   -83818.973    4773.8674 
   93100    290.96295   -549.21194    278110.32   -76246.032    7401.5832   -83647.615    4780.9501 
   93150    295.36724   -442.39202    277527.05   -76269.086    7513.6208   -83782.707    4776.8077 
   93200    292.98765   -484.47615    277010.41   -76244.312    7453.0882     -83697.4     4770.555 
   93250    296.34705   -246.46251    276967.53   -76225.522    7538.5452   -83764.067    4775.7793 
   93300    296.81109   -655.30658    277580.11   -76250.463    7550.3497   -83800.813    4788.0777 
   93350    288.19543   -561.62806    278048.83   -76277.151    7331.1824   -83608.333     4795.735 
   93400    292.01604   -562.41612    277927.43    -76288.94     7428.372   -83717.312    4794.9117 
   93450     298.9798   -297.41652     277243.2   -76296.471    7605.5178   -83901.989    4789.6289 
   93500    294.85999   -454.79528    276845.76   -76289.343     7500.717    -83790.06    4787.8085 
   93550    291.05776   -361.27502    276923.86   -76276.188     7403.995   -83680.183    4788.9668 
   93600     296.2548   -743.86524    277285.83   -76245.259    7536.1987   -83781.458    4797.9158 
   93650    293.65183   -665.21237    277410.38   -76255.388    7469.9836   -83725.371    4801.7538 
   93700     292.4685   -349.82785    277492.45   -76247.883    7439.8818   -83687.765    4805.0177 
   93750    295.88422   -375.71041    277603.09   -76233.624    7526.7718   -83760.396     4808.234 
   93800    292.14599   -467.40071    277604.47   -76224.091    7431.6778   -83655.768    4809.6967 
   93850     299.8676   -478.62121    277256.55   -76233.065    7628.1019   -83861.167    4809.2303 
   93900    294.95163   -451.70711    277199.18   -76223.252    7503.0482   -83726.301    4811.7057 
   93950    297.17168   -566.87046    277316.27   -76218.223    7559.5224   -83777.746    4813.8505 
   94000    295.08717   -498.35444    277417.65   -76201.408    7506.4963   -83707.904     4815.467 
   94050    297.53125   -564.02152    277684.51   -76164.413    7568.6692   -83733.082    4820.2558 
   94100    300.83354   -764.50724    277747.22   -76190.449    7652.6738   -83843.122    4824.0998 
   94150    295.33552   -190.99197    277144.74   -76183.282    7512.8138   -83696.096    4816.9184 
   94200    293.76285   -513.48744    277117.19   -76179.751    7472.8078   -83652.559    4818.4539 
   94250    298.64447   -615.38408    277504.48   -76150.397    7596.9875   -83747.384    4825.4517 
   94300    296.77923   -375.85217    277729.61   -76130.235    7549.5391   -83679.775    4828.0418 
   94350    294.37447   -480.71264    277946.89   -76137.677    7488.3663   -83626.043    4833.1332 
   94400    295.04745   -564.50387     278003.8   -76154.101    7505.4857   -83659.587    4834.7456 
   94450    298.23319   -688.97483    277721.43   -76152.021    7586.5253   -83738.546     4833.331 
   94500    297.04741   -614.72722    277452.13   -76132.407    7556.3612   -83688.768    4829.6168 
   94550    302.22671   -609.52551    277385.55   -76171.804    7688.1134   -83859.917    4831.1452 
   94600    297.37018    -430.0682    277522.89   -76152.457    7564.5718   -83717.029    4836.9032 
   94650    296.99642     -666.267    277958.09   -76125.543    7555.0641   -83680.608    4842.3727 
   94700    297.25878   -745.93513     278150.9   -76074.981     7561.738   -83636.719    4846.8327 
   94750    297.72077   -432.44384    277982.32    -76128.96    7573.4903   -83702.451    4843.1301 
   94800    291.56512   -460.05828     278054.6   -76136.231    7416.9014   -83553.132    4843.6195 
   94850    296.81663   -801.44345    277855.64   -76152.728    7550.4906   -83703.218    4840.8751 
   94900    295.34187   -146.55543    277277.36   -76158.894    7512.9754   -83671.869    4832.1711 
   94950    293.15132   -493.92843    277091.29   -76196.342    7457.2514   -83653.593    4829.7748 
   95000    294.35132   -382.64681     277303.6   -76209.262    7487.7775    -83697.04    4832.1009 
   95050    295.93442   -544.81259    277734.38   -76171.034    7528.0487   -83699.082    4837.6336 
   95100    293.71526   -470.15076    278273.54   -76189.087    7471.5971   -83660.684    4847.0661 
   95150    298.89716   -1014.0937    278360.65    -76207.45    7603.4157   -83810.866    4847.7456 
   95200    295.24138   -529.15038    277586.55   -76220.703    7510.4191   -83731.122     4837.049 
   95250    296.71513   -258.13904    276985.91   -76209.504    7547.9085   -83757.412    4834.6467 
   95300    298.88396   -495.33364    277221.23   -76251.851    7603.0799   -83854.931    4839.7529 
   95350    294.68496   -560.82589    277737.07   -76271.468    7496.2646   -83767.733    4845.5955 
   95400    297.56482   -800.84858    278056.78   -76228.982    7569.5233   -83798.505     4849.826 
   95450    295.89459   -818.29536    278061.11   -76238.345    7527.0354    -83765.38    4853.3247 
   95500    300.80427   -372.98004    277690.66   -76249.628    7651.9291   -83901.557    4854.8986 
   95550    299.10162   -503.48391    277405.35   -76259.462    7608.6168   -83868.079    4854.5686 
   95600    300.73841   -452.81588    277244.43    -76263.47    7650.2537   -83913.723    4853.0729 
   95650    299.42485   -379.86778     277277.9    -76308.13     7616.839   -83924.969    4854.3604 
   95700    292.36712   -560.04244    277493.12   -76277.347    7437.3028    -83714.65    4859.6327 
   95750    293.56637   -541.79833    277411.15   -76275.648    7467.8096   -83743.458     4861.235 
   95800    294.73394   -224.30668     277187.8   -76316.597    7497.5105   -83814.108    4861.0495 
   95850    296.43939   -528.09614    277487.84   -76298.578    7540.8944   -83839.473     4863.056 
   95900     296.5978   -737.81712    278004.31   -76293.514    7544.9238   -83838.438    4870.7422 
   95950    291.31073   -340.17644    277947.28   -76283.039    7410.4302   -83693.469    4871.7358 
   96000    292.07792   -595.08927    277729.44   -76288.197    7429.9461   -83718.144    4868.2637 
   96050    295.43507   -655.66426    277202.48   -76275.435    7515.3462   -83790.781    4863.1843 
   96100    296.76281   -411.10732    277136.97   -76203.435    7549.1214   -83752.556    4863.1537 
   96150    294.26248   -466.08596    277408.36   -76234.883    7485.5174     -83720.4    4873.6663 
   96200    295.74648   -734.25073    277828.68   -76181.915     7523.268   -83705.183    4885.3789 
   96250    295.98077    -565.2799    277860.44   -76181.366    7529.2278   -83710.594    4886.4079 
   96300    292.74053    -528.1529    277606.61   -76175.813    7446.8019   -83622.614     4885.496 
   96350     299.1131   -269.98562    277190.28   -76187.342    7608.9086   -83796.251    4882.2474 
   96400    297.37648   -551.06324     277032.8   -76226.969    7564.7321   -83791.701     4877.568 
   96450    298.69601   -106.42213    277252.84   -76192.246    7598.2986   -83790.544    4885.0385 
   96500    295.36726   -522.90691    277774.19   -76176.108    7513.6212   -83689.729    4894.6255 
   96550    295.47999   -669.43665    278105.36    -76158.44    7516.4887   -83674.929    4903.3027 
   96600    294.86632   -239.06119    277878.88   -76163.072    7500.8781    -83663.95    4906.3619 
   96650    296.59047   -258.31149    277618.39   -76203.728    7544.7376   -83748.465    4906.9128 
   96700    290.84044   -656.17987    277576.57   -76212.288     7398.467   -83610.755    4906.1058 
   96750    302.64344   -635.62686     277545.2   -76201.856    7698.7144   -83900.571    4909.8389 
   96800    296.83389   -488.39175    277545.06   -76220.893    7550.9297   -83771.823    4913.9254 
   96850     291.8973   -353.14297    277633.24   -76241.817    7425.3514   -83667.168    4920.0955 
   96900     294.8312   -571.08983    277937.21   -76201.065    7499.9847    -83701.05     4927.642 
   96950    293.41385   -454.42922     278164.1   -76195.139    7463.9298   -83659.068    4932.6927 
   97000    293.47164   -228.06037    278106.79   -76216.924       7465.4   -83682.324    4933.6133 
   97050    299.89212   -408.52916    277733.85   -76199.742    7628.7257   -83828.467    4932.3974 
   97100    292.91439   -306.23494    277284.63   -76234.505    7451.2244   -83685.729    4930.3971 
   97150    294.81473   -421.85636    277351.67   -76248.392    7499.5658   -83747.957    4935.6168 
   97200      295.257   -394.73865    277848.99   -76230.056    7510.8164   -83740.873    4941.7223 
   97250    298.86282    -858.6791    278063.66   -76246.591     7602.542   -83849.133    4944.7339 
   97300    293.78617   -530.89518    277666.01     -76264.9    7473.4011   -83738.301    4944.4748 
   97350    291.91841    -518.5485    277269.31   -76300.598    7425.8884   -83726.486    4944.9778 
   97400    294.95002   -435.23517    277258.73   -76308.518    7503.0074   -83811.526    4947.6098 
   97450    295.13067   -443.92693    277728.31   -76336.044    7507.6029   -83843.647    4952.2419 
   97500    293.38338   -753.81997    278201.65   -76334.001    7463.1548   -83797.156    4959.8309 
   97550    299.15486   -593.28224    278096.97   -76305.514     7609.971   -83915.485    4962.7691 
   97600    295.42322   -538.02576    277696.86   -76274.527    7515.0448   -83789.572    4959.8043 
   97650    295.01023   -492.69167    277284.43   -76260.022    7504.5389   -83764.561    4958.6592 
   97700    291.63592    -248.1725    277133.28   -76269.313    7418.7026   -83688.016    4960.7654 
   97750    297.57495   -363.69595    277401.44   -76258.282     7569.781   -83828.063    4965.5009 
   97800    290.15869   -670.46195    277947.06   -76289.609    7381.1242   -83670.733    4974.5066 
   97850    298.86464   -833.27462    278038.52   -76323.487    7602.5883   -83926.076    4976.3315 
   97900    291.31862   -464.93377    277544.59   -76364.073    7410.6309   -83774.704    4972.0727 
   97950    295.73937   -434.01449    277078.27   -76337.835    7523.0871   -83860.922    4968.0982 
   98000    291.41011   -173.43129    277011.73   -76352.191    7412.9584    -83765.15    4971.1239 
   98050    298.27362   -705.08523     277490.6   -76345.537    7587.5539   -83933.091    4980.5556 
   98100     292.4182   -848.20248    277903.53   -76359.318    7438.6023   -83797.921    4986.3917 
   98150     288.1435   -336.37971    277824.34   -76350.559    7329.8616    -83680.42    4984.9842 
   98200    293.65449   -574.46164    277456.41   -76369.902    7470.0514   -83839.954    4981.0978 
   98250    291.46665   -512.66626    277213.97   -76365.177    7414.3965   -83779.574    4980.0801 
   98300    291.14767   -523.90497    277282.98   -76411.967    7406.2822   -83818.249    4982.4749 
   98350    291.64363   -481.12866    277512.12    -76406.62    7418.8986   -83825.519    4986.6284 
   98400    296.52946   -570.91001    277714.55   -76373.873    7543.1854   -83917.059    4989.9653 
   98450    298.30004   -496.45998    277851.52   -76349.985    7588.2258   -83938.211    4988.5492 
   98500    292.27264   -448.58894    277717.67   -76352.593    7434.8995   -83787.493    4988.4709 
   98550    293.21648   -635.31836    277461.53   -76391.635    7458.9092   -83850.544     4987.917 
   98600    297.10216   -654.95597    277455.67   -76404.186    7557.7539    -83961.94    4992.7659 
   98650    290.62013    -479.3754    277310.08   -76398.192    7392.8625   -83791.054    4993.6218 
   98700    295.19464   -354.69891    277026.68   -76389.785    7509.2301   -83899.015    4992.0356 
   98750    298.62136   -571.09281    277188.39   -76376.946    7596.3997   -83973.346    4998.0556 
   98800    292.22575   -222.11997    277473.66   -76375.153    7433.7068   -83808.859    5004.1129 
   98850     291.9193   -607.27434    277900.41   -76348.237    7425.9113   -83774.148    5010.3401 
   98900    292.30634   -631.01323    277885.31   -76357.266    7435.7568   -83793.023    5013.2373 
   98950    291.52425   -452.43405    277545.88   -76346.446    7415.8618   -83762.308    5011.1383 
   99000    295.14781   -456.79555    277166.18   -76334.916    7508.0387   -83842.955    5009.0841 
   99050    294.84406   -164.27458     276857.9   -76338.686    7500.3118   -83838.998    5008.1533 
   99100     297.0914    -396.8682    277101.81   -76345.081    7557.4802   -83902.562    5011.1196 
   99150    295.56439    -651.2767    277469.21     -76345.5    7518.6359   -83864.135     5012.349 
   99200    294.52837   -408.13142    277559.55   -76368.059    7492.2812    -83860.34    5013.4567 
   99250    291.89274   -899.71602     277636.5   -76377.646    7425.2356   -83802.882    5017.4536 
   99300    287.39966   -497.76488     277363.4    -76404.05    7310.9396    -83714.99    5014.9158 
   99350    293.62113   -437.84402    277016.35   -76424.692    7469.2026   -83893.895    5006.8471 
   99400     295.4986    -425.8605    276956.12   -76416.295    7516.9623   -83933.257    5006.0398 
   99450     291.6678   -681.56592    277275.21   -76412.814    7419.5133   -83832.328    5010.2378 
   99500    289.72196    -480.1157    277576.07   -76431.975    7370.0148    -83801.99    5014.5399 
   99550    289.84405    -583.7648    277929.67   -76382.883    7373.1205   -83756.004    5019.8299 
   99600    292.46038   -440.99411    277701.79   -76390.995    7439.6754    -83830.67    5021.0518 
   99650    288.43362   -417.96291    277284.03   -76395.467    7337.2416   -83732.708    5021.1947 
   99700     293.0615   -819.45987    277018.87   -76376.027    7454.9666   -83830.994    5022.9848 
   99750    290.72023   -580.92614    277127.08    -76391.74     7395.409   -83787.149    5029.8551 
   99800    289.38951   -620.42887    277552.75   -76391.648    7361.5577   -83753.206    5035.0127 
   99850    290.42976   -782.36956    277636.47   -76372.226    7388.0198   -83760.245    5034.8503 
   99900    290.63834   -337.83957    277523.56   -76392.167    7393.3258   -83785.493    5036.4472 
   99950    295.36217   -313.12327    277561.38    -76379.45    7513.4917   -83892.942    5038.0197 
  100000    291.46626   -758.19209    277651.41   -76337.882    7414.3865   -83752.268    5038.4895 
Loop time of 250.775 on 6 procs for 100000 steps with 8535 atoms

Performance: 344.532 ns/day, 0.070 hours/ns, 398.764 timesteps/s
99.5% CPU use with 6 MPI tasks x no OpenMP threads

MPI task timing breakdown:
Section |  min time  |  avg time  |  max time  |%varavg| %total
---------------------------------------------------------------
Pair    | 72.444     | 129.18     | 196.18     | 446.3 | 51.51
Neigh   | 31.29      | 36.649     | 40.532     |  64.2 | 14.61
Comm    | 7.9207     | 78.526     | 140.63     | 612.5 | 31.31
Output  | 0.14888    | 0.15179    | 0.16475    |   1.5 |  0.06
Modify  | 5.1364     | 5.1866     | 5.2293     |   1.5 |  2.07
Other   |            | 1.082      |            |       |  0.43

Nlocal:        1422.50 ave        1444 max        1395 min
Histogram: 2 0 0 0 0 1 0 1 0 2
Nghost:        1987.67 ave        2038 max        1952 min
Histogram: 2 1 1 0 0 0 0 0 0 2
Neighs:        0.00000 ave           0 max           0 min
Histogram: 6 0 0 0 0 0 0 0 0 0
FullNghs:      39675.0 ave       40594 max       38683 min
Histogram: 1 0 0 0 2 1 0 1 0 1

Total # of neighbors = 238050
Ave neighs/atom = 27.891037
Neighbor list builds = 21083
Dangerous builds = 0

# Create data file for import to other simulations
#
write_data data.${NAME}
write_data data.coexist_294K_-500atm_ML
System init for write_data ...

Total wall time: 0:04:10
