
# Import phase coexistance setup
#
read_data           data.coexist_${TEMP}K_${PRES}atm_ML
read_data           data.coexist_294K_${PRES}atm_ML
read_data           data.coexist_294K_-500atm_ML
Reading data file ...
  orthogonal box = (-0.33094522 -0.22638618 -0.22638618) to (104.56351 51.222227 51.222227)
  3 by 1 by 2 MPI processor grid
  reading atoms ...
  8535 atoms
  reading velocities ...
  8535 velocities
  read_data CPU = 0.053 seconds

# Define potential
#
pair_style 	    sw
pair_coeff	    * * /data/emrosky-sim/Freezing_Simulations/Melting/MLmW_fancy/ML_mW.sw mW
Reading sw potential file /data/emrosky-sim/Freezing_Simulations/Melting/MLmW_fancy/ML_mW.sw with DATE: 2019-02-27

# Reset velocity/set timestep
#
velocity	    all create ${TEMP} 120598 rot yes dist gaussian
velocity	    all create 294 120598 rot yes dist gaussian
timestep	    10.0

# Define output
#
compute	            1 all msd
compute             2 all orientorder/atom nnn NULL degrees 2 4 12
thermo              1000
thermo_style        custom step temp press vol etotal ke pe c_1[4]

# Neighbor lists
#
neigh_modify        delay 0 every 1 check yes

# Set fixes
#
fix                 1 all momentum 10 linear 1 1 1 rescale
fix                 2 all nph iso ${PRES} ${PRES} ${PCOUPL}
fix                 2 all nph iso -500 ${PRES} ${PCOUPL}
fix                 2 all nph iso -500 -500 ${PCOUPL}
fix                 2 all nph iso -500 -500 10000.0
fix                 3 all temp/csvr ${TEMP} ${TEMP} ${TCOUPL} 837492
fix                 3 all temp/csvr 294 ${TEMP} ${TCOUPL} 837492
fix                 3 all temp/csvr 294 294 ${TCOUPL} 837492
fix                 3 all temp/csvr 294 294 5000.0 837492

# Run very short equilibration
#
dump		    1 all atom 50 eq.${NAME}.dump
dump		    1 all atom 50 eq.melt_294K_-500atm_ML.dump
run	            500
Neighbor list info ...
  update every 1 steps, delay 0 steps, check yes
  max neighbors/atom: 2000, page size: 100000
  master list distance cutoff = 6.0032907
  ghost atom cutoff = 6.0032907
  binsize = 3.0016454, bins = 35 18 18
  2 neighbor lists, perpetual/occasional/extra = 1 1 0
  (1) pair sw, perpetual
      attributes: full, newton on
      pair build: full/bin/atomonly
      stencil: full/bin/3d
      bin: standard
  (2) compute orientorder/atom, occasional, copy from (1)
      attributes: full, newton on
      pair build: copy
      stencil: none
      bin: none
Per MPI rank memory allocation (min/avg/max) = 4.591 | 4.593 | 4.596 Mbytes
Step Temp Press Volume TotEng KinEng PotEng c_1[4] 
       0          294   -747.58045    277651.41   -76273.428    7478.8405   -83752.268            0 
     500    337.84933    14.293256    271254.73   -77983.812      8594.29   -86578.102    15.947888 
Loop time of 1.22198 on 6 procs for 500 steps with 8535 atoms

Performance: 353.526 ns/day, 0.068 hours/ns, 409.173 timesteps/s
99.6% CPU use with 6 MPI tasks x no OpenMP threads

MPI task timing breakdown:
Section |  min time  |  avg time  |  max time  |%varavg| %total
---------------------------------------------------------------
Pair    | 0.38826    | 0.6651     | 0.98756    |  28.5 | 54.43
Neigh   | 0.12801    | 0.15066    | 0.16569    |   4.0 | 12.33
Comm    | 0.029366   | 0.36677    | 0.66642    |  40.7 | 30.01
Output  | 0.0085867  | 0.0091837  | 0.0097552  |   0.4 |  0.75
Modify  | 0.023821   | 0.024718   | 0.026247   |   0.5 |  2.02
Other   |            | 0.00555    |            |       |  0.45

Nlocal:        1422.50 ave        1455 max        1393 min
Histogram: 1 0 2 0 0 0 1 1 0 1
Nghost:        2029.00 ave        2062 max        2010 min
Histogram: 1 2 0 1 0 1 0 0 0 1
Neighs:        0.00000 ave           0 max           0 min
Histogram: 6 0 0 0 0 0 0 0 0 0
FullNghs:      40016.3 ave       40887 max       38360 min
Histogram: 1 0 0 0 0 1 1 0 2 1

Total # of neighbors = 240098
Ave neighs/atom = 28.130990
Neighbor list builds = 85
Dangerous builds = 0

reset_timestep      0
undump              1
unfix               2
unfix               3


################################################
#######         Run Simulation         #########
################################################

log                 log.run_${NAME}
log                 log.run_melt_294K_-500atm_ML
