LAMMPS data file via write_data, version 29 Oct 2020, timestep = 100000

8524 atoms
1 atom types

-0.2885442593461178 104.697186784098 xlo xhi
-0.17528241959998425 51.16681874214774 ylo yhi
-0.17528241959998425 51.16681874214774 zlo zhi

Masses

1 18.015

Atoms # atomic

406 1 2.451965839869841 0.7373613659253436 1.7589142794870702 0 0 0
407 1 7.474294441282998 2.0727102070894605 3.3079837106588 0 0 0
305 1 9.230346605281422 0.5691444905008172 1.970237114230455 0 0 0
301 1 15.19102811182914 0.8889389505415579 2.125977135887634 0 0 0
308 1 17.403303195081783 2.489971396063395 0.75812963847727 0 0 0
1003 1 22.112108829717332 0.7194904997871245 1.879634375225915 0 0 0
1004 1 23.690618489897833 2.5381416513131696 0.44660056793316916 0 0 0
998 1 28.347811080885283 1.006513082022799 2.289845606798888 0 0 0
1005 1 30.091619242992202 2.24273596114198 0.43532449122429573 0 0 0
1002 1 34.55271004312826 0.7876918418539495 2.296218267716617 0 0 0
309 1 1.1559242747262515 5.615438501175962 0.7108321978608425 0 0 0
414 1 5.595958499869426 3.652629053730482 1.7887516984501695 0 0 0
307 1 12.330345901089123 3.3981738177798975 2.1423726888953283 0 0 0
415 1 10.848822991819883 5.3752325222737305 3.2633310683342405 0 0 0
311 1 14.107909145618347 5.240817458028425 1.1052644383663688 0 0 0
854 1 18.85966537321844 3.959931918715019 2.5236551048827276 0 0 0
1008 1 20.49471065166941 5.173609947004841 0.6695930356754237 0 0 0
1076 1 25.440924036921842 4.105819699797182 2.0334302061154297 0 0 0
1010 1 27.333128546750185 5.547865913145867 0.5801619003031885 0 0 0
1006 1 31.604471225438548 3.8916722777224066 2.128081232828727 0 0 0
314 1 3.1652310590448596 7.142701809665882 2.3602574120091666 0 0 0
318 1 8.882765032320453 7.087025966041891 2.1601071256561277 0 0 0
321 1 15.656696237903686 6.886791196099171 2.4859607676372937 0 0 0
1084 1 22.457038553840572 6.980509407589437 1.831408902640994 0 0 0
1080 1 28.739717737919136 7.377571612255194 2.514231116343251 0 0 0
1012 1 33.03188503587588 5.792289323496376 0.6317060561054995 0 0 0
310 1 7.111914128080813 5.502437454347179 0.3633256627049941 0 0 0
27 1 -0.2039996126373574 10.737167513866 2.6549188403688566 0 0 0
315 1 4.592809833934923 8.90715186635603 0.8169011034066581 0 0 0
424 1 6.192269992849512 10.62131053413893 2.2266046721977215 0 0 0
317 1 10.758184249998779 8.980193864383391 1.0532118417566911 0 0 0
421 1 12.902507031433814 10.390672902681281 2.00072989646797 0 0 0
743 1 18.46878682868835 10.574451709027095 2.799112890478411 0 0 0
320 1 16.83712719533528 9.052677237856093 0.85280834340773 0 0 0
1083 1 20.38644012548164 8.800712936182709 3.2027384064730744 0 0 0
1089 1 25.061877481387768 10.32156939015835 1.926970590549916 0 0 0
1015 1 29.816941660997998 8.989020384240728 0.4463453018539817 0 0 0
1016 1 31.601625521856825 10.326361374810345 2.137304234319919 0 0 0
322 1 1.5941596326969036 11.992331805739166 1.1085816075031667 0 0 0
329 1 3.0291813551638977 13.691361915086826 2.319464889783458 0 0 0
430 1 9.233465727083523 14.021265115665527 2.438098674305509 0 0 0
324 1 7.891784319827618 12.273543421949306 0.7097594603061109 0 0 0
332 1 15.33350550626418 13.834000632597563 2.36144119120733 0 0 0
326 1 14.143815763641863 12.31409352683995 0.7339595750026406 0 0 0
1018 1 19.94397023115324 12.074193871092293 0.9626734915314219 0 0 0
1088 1 23.40779161531371 11.813442883853934 3.577424681190988 0 0 0
1094 1 21.98169859396086 13.928289274382323 2.0917149166082374 0 0 0
1019 1 26.662495115866577 12.045390736275781 0.3875667556539719 0 0 0
1098 1 28.59626598642116 13.359672125956331 2.1520129337453655 0 0 0
328 1 4.531027285498896 15.107459392813034 0.6612943446426135 0 0 0
337 1 6.0748536697705 16.831216538608068 2.5070093052954405 0 0 0
330 1 11.128440805474229 15.61825905079843 0.9572734225671098 0 0 0
338 1 12.58965595925907 17.239612047494738 2.4803164530461905 0 0 0
331 1 16.903190561224328 16.088063264550815 0.9132368029187379 0 0 0
933 1 18.946382134302883 17.461916096973898 2.3857368662366847 0 0 0
1021 1 23.57426835436987 15.392084922600718 0.645259244694395 0 0 0
1026 1 25.29687719536729 16.573892743931193 2.3409155427365578 0 0 0
1023 1 29.895694676694145 15.185990432212114 0.5248776017262112 0 0 0
1103 1 31.74156219762223 16.340353894887528 2.068763665404515 0 0 0
335 1 2.8961414799449803 19.85784625130379 2.0885564044572598 0 0 0
442 1 9.013244249640666 20.34758770802999 2.1700315085121415 0 0 0
336 1 7.582382961064128 18.483774538984502 0.658535179261316 0 0 0
446 1 15.455082945269762 20.240512039952307 2.155932944999381 0 0 0
339 1 13.706155231861574 19.04313662993869 0.5040094399657968 0 0 0
1025 1 20.58959211233385 19.110973668197474 0.45165114616136925 0 0 0
1032 1 22.311022197700105 20.164225737565115 2.293816805625677 0 0 0
1102 1 30.447175849852258 18.326387907045863 3.445901866500083 0 0 0
1101 1 28.510040584338196 19.686155462105578 1.8996829648303328 0 0 0
1029 1 33.47110388713178 18.099648543030096 0.5922068023888033 0 0 0
1013 1 23.93563842711543 8.602925441491179 0.16062358868903953 0 0 0
8 1 -0.21592427146852256 23.639038723750296 2.2192835866676695 0 0 0
340 1 4.501777793123192 21.77355849253372 1.0120651752089156 0 0 0
440 1 5.722731516294858 23.72770103982218 2.2856763658613883 0 0 0
344 1 12.101915616636933 23.52164370366268 2.3977870614113104 0 0 0
342 1 10.764266002800886 22.101962327236716 0.6416074168496194 0 0 0
77 1 18.70536556003404 23.055942928353627 2.7924489179518 0 0 0
345 1 16.684065322223095 22.143123086350435 0.674435315377659 0 0 0
1031 1 24.028062390701336 21.768197051457285 0.9726792466884102 0 0 0
1037 1 25.826312204315457 23.519642629694797 2.4203607034837864 0 0 0
1034 1 30.115676320324283 21.63544469937022 0.6703260394794276 0 0 0
1108 1 31.79922343961681 23.125596040093363 2.5026424480168226 0 0 0
346 1 1.494896022251931 24.829659357101196 0.5171524294024081 0 0 0
453 1 2.999550444923139 26.350392992241627 2.2208581859320247 0 0 0
356 1 9.140226715093426 26.34159036692697 2.5560939976487576 0 0 0
349 1 7.350851708498774 25.173742301339722 0.6521246294376687 0 0 0
350 1 13.752588007464361 25.579097982884853 0.9647076671315591 0 0 0
450 1 15.955370898015268 26.68944471773098 2.382779980054794 0 0 0
1112 1 21.888004361851912 26.0916825552593 2.6726375057313705 0 0 0
1036 1 20.639230307764468 24.38098703790145 0.9097378899618611 0 0 0
1116 1 28.404289975142536 26.32460487737863 2.2772996370556307 0 0 0
1039 1 33.3689504592433 24.477011772995372 0.7682082115775763 0 0 0
452 1 1.1065379904760906 28.01846886622461 3.57473445285507 0 0 0
454 1 5.98778584450376 29.620219085100647 2.450207962455333 0 0 0
353 1 4.405480713846401 28.22843764760334 0.757019430713359 0 0 0
355 1 10.758538239488894 28.06454640820976 1.0469148782432156 0 0 0
357 1 12.914792106023269 29.634993368546194 2.455647666891612 0 0 0
358 1 17.737410395921756 28.302880665720203 0.6027347301326457 0 0 0
803 1 19.112551110468253 29.480549855599573 2.580214391599729 0 0 0
1041 1 23.888116470479726 27.71178069467861 1.211940457442207 0 0 0
1120 1 25.620002409813708 29.575919275762146 2.7317529024129326 0 0 0
1042 1 30.434159182568404 28.128066017789287 1.2693754784484381 0 0 0
359 1 1.4869042375642199 31.706322670308335 0.856572848017007 0 0 0
362 1 7.524091079955799 31.426499248847616 0.9460255068544192 0 0 0
459 1 9.32588315699704 32.78205542391568 2.715465941672324 0 0 0
364 1 13.955338012038847 31.590120853578675 0.8340742083203285 0 0 0
1043 1 20.852948278286725 30.907834932743704 1.0890182889729807 0 0 0
1044 1 22.47259042265207 32.721150020699866 2.563467342090831 0 0 0
1046 1 26.779971766758795 31.25838019876435 0.8106113560316345 0 0 0
1127 1 28.559413490196285 32.69626654185653 2.3986194722332743 0 0 0
1047 1 31.88586632497457 29.945832520346972 2.6026383502133745 0 0 0
395 1 10.715444743480864 46.95748479946532 0.30287991852139207 0 0 0
360 1 2.97924938264363 33.10115117865148 2.594538489960103 0 0 0
366 1 4.469808437659975 34.32965314865258 0.7922111983230747 0 0 0
368 1 10.559134768211102 34.25579939185869 0.7946489794425617 0 0 0
369 1 15.627413302974874 33.05006568776734 2.2884805090696076 0 0 0
370 1 17.914471818146588 34.469483528532265 1.10657401560287 0 0 0
1050 1 23.357955793634044 34.81531467981557 0.9847481716549893 0 0 0
1057 1 31.50445998316718 35.68724843732282 2.2202871277224574 0 0 0
1051 1 29.909147822727636 34.23470318109463 0.5493035101211086 0 0 0
3104 1 34.685934243734884 32.55130958925926 2.0346148392606804 0 0 0
372 1 1.225678450602692 37.76335367207719 0.6296381972095896 0 0 0
367 1 5.921268945441787 36.12434674585464 2.381747326123332 0 0 0
374 1 7.693283484972052 37.52664089842868 0.9745697618673577 0 0 0
466 1 12.328351652131236 35.8888728156622 2.0216805962382063 0 0 0
376 1 14.133294034152376 37.404044679874445 0.6267711506818009 0 0 0
948 1 19.30409855831568 36.10133941325233 2.4517134747380385 0 0 0
1053 1 20.890013208285165 37.950498291069465 0.705679347767846 0 0 0
1124 1 25.195574966928625 35.921816402471165 2.1887282148480773 0 0 0
1138 1 28.22034380816971 38.734728317454895 2.2841692644551825 0 0 0
1056 1 32.99075048876482 37.27156243546048 0.5934510495881982 0 0 0
379 1 3.0732747425192994 39.09747734351254 2.436023967546692 0 0 0
380 1 4.4610203918276214 40.55673226892391 0.7838225733465162 0 0 0
477 1 9.429222583048519 39.0438386590195 2.357957013655225 0 0 0
382 1 10.638391478701973 40.63485888893476 0.6759493811581325 0 0 0
472 1 15.74720570610707 38.95169803284705 2.1765828625570203 0 0 0
383 1 17.238498493383595 40.564381455630894 0.5733824309032686 0 0 0
1134 1 22.34441281842315 39.65979673235192 2.193934411606616 0 0 0
1061 1 29.748316394021646 40.82417624829179 0.7109948441115911 0 0 0
1139 1 33.284573223175876 40.733858099819486 3.5818890667381957 0 0 0
385 1 1.0079289328755394 43.87946448976393 0.5281494919705016 0 0 0
387 1 6.092494228194974 42.19023614645772 2.315150614791488 0 0 0
388 1 7.74681307973068 43.78849080423676 0.6639708982079584 0 0 0
479 1 12.260395791647822 42.080130005140504 2.691407450288986 0 0 0
390 1 13.991807162933087 43.5671489677072 0.9903878411434344 0 0 0
485 1 17.497715542895723 43.95363105355948 3.4160341977369653 0 0 0
805 1 18.83479289182148 42.227077319381735 2.0982562528559816 0 0 0
1063 1 20.4001674914553 43.84953342735206 0.7822761775170167 0 0 0
1136 1 25.398229444525636 42.69426586092112 2.4923712716586794 0 0 0
1065 1 26.835443046302224 44.226241126160474 0.49387121574072956 0 0 0
1142 1 29.987698843186475 43.89131186521085 3.588832990929123 0 0 0
1067 1 31.690794701778234 42.22915172121675 2.165195932480365 0 0 0
1068 1 33.005686330258534 43.96772284420966 0.47275316872490214 0 0 0
386 1 2.6489088213967804 45.65439465820738 2.251195192601095 0 0 0
483 1 8.980508677370796 45.7835546369741 2.2713560846914502 0 0 0
391 1 15.59520949462603 45.72052737132391 2.06782905579124 0 0 0
1069 1 22.020665266145393 45.76678215419703 2.2703837823580986 0 0 0
1147 1 28.37451441422216 45.777693919351094 2.338250113976969 0 0 0
1071 1 29.71438158863491 47.50048347993484 0.6306414275072709 0 0 0
1150 1 33.28125360079779 47.369905748841475 3.567574319869764 0 0 0
399 1 4.286258532578059 50.67879617303136 3.2586761533471638 0 -1 0
394 1 5.704430415509404 48.84647751794466 2.0945279048420296 0 -1 0
299 1 7.449791735556764 50.31749048682572 0.48102353222442007 0 -1 0
402 1 11.115775053937178 50.72916148382801 3.58009843652133 0 -1 0
396 1 12.18390864755854 48.577921486313585 2.1575101246981205 0 -1 0
300 1 13.768307512766297 50.60800520661566 0.5160651925360826 0 -1 0
404 1 17.04292878160819 50.72481769345198 3.5234917596679733 0 -1 0
742 1 18.32817667498475 48.815465134052275 1.9386520834103673 0 -1 0
996 1 20.253770939002838 50.46616197976218 0.6048948055783052 0 -1 0
1146 1 25.243621009779467 48.86457456486768 1.8195396713584995 0 -1 0
997 1 27.079019262197985 50.61666744921537 0.5030645066186348 0 -1 0
999 1 31.538580968694664 49.03247072811365 2.0627465876830557 0 -1 0
1001 1 33.014291931394474 50.680485290187946 0.5191258766384996 0 -1 0
405 1 1.356028586091759 2.575431801216984 3.939958562363099 0 0 0
401 1 5.790976634894875 0.8328590895983696 5.350058239799061 0 0 0
408 1 12.374737265144049 0.8883058718559669 5.415373880284842 0 0 0
409 1 14.086590576612002 2.588680789298111 4.01065964197624 0 0 0
735 1 18.729496119376105 0.7438790331425684 5.597775577768601 0 0 0
1074 1 20.55995839085215 2.2792007665434646 3.8465912758426866 0 0 0
1152 1 25.167410178892474 0.8216378457579382 5.215296439811341 0 0 0
1077 1 31.416800449175327 0.5657015927443179 5.616455311176721 0 0 0
1078 1 32.96931330461388 2.1835097374041115 4.049466153883977 0 0 0
413 1 4.694631491181089 5.471075441070682 3.9292889533383653 0 0 0
412 1 2.8965762889519238 4.25213613164357 5.523532541217538 0 0 0
506 1 9.333435756608695 3.6591994664970526 4.943800284161838 0 0 0
410 1 15.731132683296536 4.165309264865364 6.006600597466036 0 0 0
416 1 17.278604342169015 5.498628348033529 4.383923640182336 0 0 0
1161 1 21.92593569695131 3.7421085688952003 5.469217105696923 0 0 0
1079 1 23.540523706975662 5.12436801498582 3.8165028727871584 0 0 0
1075 1 26.794834434836975 2.7207792055473266 3.666169145601145 0 0 0
1081 1 30.104107371097555 5.574058370282167 3.7326026876988205 0 0 0
1158 1 28.517805388186115 4.179015556432373 5.629279205876153 0 0 0
1160 1 34.56549433978815 3.8707146496591296 5.366015682479108 0 0 0
1166 1 33.18184245014148 5.556339785569123 6.789519350278376 0 0 0
514 1 6.210178964582434 7.317211061637119 5.350045895577619 0 0 0
508 1 12.521679706680795 6.97281031918451 4.975566449509357 0 0 0
462 1 18.41640902192888 7.72756078399652 5.120127264440927 0 0 0
1162 1 20.05127492644055 5.822671587408417 6.456585884223317 0 0 0
1169 1 24.909761603774914 7.112773839762913 5.246009432033496 0 0 0
1165 1 31.51315869273303 7.25666640041519 5.300584428580476 0 0 0
417 1 1.1498811186225402 8.717436441578043 4.098346451198101 0 0 0
422 1 3.0033816041275023 10.547119450141196 5.261099669498753 0 0 0
418 1 7.811788489722918 8.981736997920196 3.852811327625129 0 0 0
419 1 9.391324375565834 10.63546677804437 5.068589040925625 0 0 0
515 1 11.030913668990264 8.692063415271775 6.692117686906519 0 0 0
420 1 14.029202918287508 8.89738146684035 3.8653963752515725 0 0 0
517 1 15.441844743312453 10.477603813337621 5.6101050493200715 0 0 0
1168 1 21.428067077789972 10.434709926263464 5.1391894899635115 0 0 0
1085 1 26.59397290887025 8.750762629041635 3.934392463498142 0 0 0
1086 1 28.108828165910978 10.495210962464103 5.439238171887626 0 0 0
1087 1 33.296326783366915 8.966981121936936 3.874778354888889 0 0 0
51 1 -0.15494270107285013 13.813261290817659 5.407014046794987 0 0 0
423 1 4.672375800196727 12.114507934358132 3.8488572794280724 0 0 0
526 1 5.928736003309252 13.820368574396323 5.74981165297726 0 0 0
425 1 11.390096447504868 12.335271011067867 3.6911681674064742 0 0 0
426 1 12.331737588074594 14.20735430219565 5.406241476999846 0 0 0
427 1 16.923894058971662 12.144735532860413 4.139775991927423 0 0 0
96 1 18.75464920995793 13.735039458503469 5.673641844028533 0 0 0
1090 1 24.96252107165934 13.575008464947 5.281826426156726 0 0 0
1091 1 30.165782934747885 11.77196762795663 3.8459087975430757 0 0 0
1092 1 31.861393301047215 13.438213750850974 5.599083837295714 0 0 0
428 1 1.3951381512658143 15.727858917089241 3.6024280545253218 0 0 0
525 1 2.822814596543621 17.147000724287707 5.418580821222062 0 0 0
429 1 7.584071819364494 15.515817042484338 4.011860900787999 0 0 0
533 1 8.952586386176753 17.12034812590536 5.519260944232822 0 0 0
431 1 13.916968751536121 15.676414856256205 3.926315807789062 0 0 0
528 1 15.627137215530398 17.311526863912068 5.6831672555052215 0 0 0
1095 1 20.26408668624666 15.511783896548911 3.9831897409147947 0 0 0
1096 1 22.260749782040914 17.11060745698788 5.3709801380590365 0 0 0
1097 1 27.144947738914478 14.837050595063458 3.7754578595498187 0 0 0
1176 1 28.35983561067998 17.217081981073413 4.9434804557700645 0 0 0
1177 1 30.072338459066742 15.38500302649879 6.450480711740803 0 0 0
1099 1 33.53074012173952 14.878384733979836 3.789899153096043 0 0 0
433 1 4.646483240462 18.73173423642447 3.8661513526741507 0 0 0
434 1 6.036492896583027 20.139760949565822 6.086470510169824 0 0 0
435 1 10.582120508965636 18.575881354363453 3.6089507384884043 0 0 0
445 1 12.244629228035448 20.175655228444768 5.424851400072958 0 0 0
436 1 17.24204658751129 18.783831206124002 3.8472931954721714 0 0 0
798 1 18.84328664423256 20.205107640842595 5.586195008405014 0 0 0
1100 1 24.08902340153239 18.561772644020404 4.023572265826892 0 0 0
1105 1 25.733892614203732 20.125559774545202 5.45763522879388 0 0 0
1181 1 33.65158613941801 18.68013614183735 6.6674737665462915 0 0 0
1180 1 31.703990065292963 20.090670737147462 5.561708821290113 0 0 0
439 1 1.2284280571510666 21.707128055408766 3.607468799151668 0 0 0
542 1 2.6100026450882527 23.099024213900183 5.632687811038675 0 0 0
441 1 7.124423716913715 21.86766504070318 4.062237732923628 0 0 0
443 1 8.87119154185493 23.131750439634576 5.91378730959224 0 0 0
444 1 13.755928821255443 21.747522460334928 3.680139606054847 0 0 0
540 1 15.552737190176279 23.164685000381706 5.623293137858595 0 0 0
1104 1 20.745459802184044 21.493967013917374 4.084863869392349 0 0 0
1187 1 21.944226580727978 23.01181185574506 5.906785181143842 0 0 0
1106 1 27.16570528165803 21.6990489865027 3.7792388857108548 0 0 0
1110 1 28.687821019394185 23.663300738521137 5.282670408077295 0 0 0
1107 1 33.36968268824709 21.407119014659244 4.11734801742546 0 0 0
447 1 4.18486403871306 24.84028258273411 3.9660597203350356 0 0 0
543 1 5.851757275133214 26.286609862695236 5.641125279712556 0 0 0
448 1 10.678394886992052 24.603904888720383 4.3911517784662655 0 0 0
449 1 12.397076892884474 26.40703171463317 5.662306761358954 0 0 0
451 1 17.273843404450492 24.884331141174087 4.229799297294038 0 0 0
782 1 18.973430796953277 26.51035811933433 5.954500929865789 0 0 0
1109 1 23.707011677890197 24.548880452434528 4.146785811443071 0 0 0
1114 1 25.438359959041446 26.217184404224007 5.5072216709072155 0 0 0
1111 1 30.311097078947697 24.902203156476435 3.9227013886878304 0 0 0
1192 1 32.08924717040163 26.417104535423487 5.3078091541913235 0 0 0
547 1 2.7032806177343174 29.48106902086636 5.450955727803762 0 0 0
455 1 7.751569604872531 27.983776840906685 4.062977176118244 0 0 0
456 1 14.094895935377192 28.017158863930963 4.082474731946728 0 0 0
457 1 15.691844399338402 29.51944293909134 5.7231815442156515 0 0 0
1113 1 20.546283663068902 27.804561609730563 4.2137611081610356 0 0 0
1118 1 22.38521860247782 29.62291413796829 5.808188999846951 0 0 0
1115 1 27.13645512817861 27.910281429224497 4.0607986351177345 0 0 0
1121 1 28.745485438331276 29.708404187145042 5.521580839235493 0 0 0
1117 1 33.8686876736857 28.106105960812343 3.866615360870213 0 0 0
553 1 0.9839820537825168 31.46072610971823 6.61900486983752 0 0 0
458 1 4.3734210840604195 31.23323661979388 3.8672264992777974 0 0 0
556 1 9.138203211118515 29.824401001553472 5.429726714363862 0 0 0
460 1 11.243470294800304 31.18420770749862 4.0482683940168815 0 0 0
467 1 12.74667600612623 32.62404649751673 5.629832897512359 0 0 0
461 1 17.409549684978867 31.053998377291585 3.8653159159601467 0 0 0
1119 1 24.04163240133442 31.22919579288434 4.189695283649797 0 0 0
1125 1 25.40632238697013 32.77052122126233 5.798081985198162 0 0 0
1122 1 30.102271068329852 31.331588745284105 3.866580290212262 0 0 0
463 1 1.0115900248537604 34.414447001760365 3.9050152206892195 0 0 0
464 1 2.4321326987654412 35.80695573570517 6.079846801259016 0 0 0
554 1 6.00538874327339 33.125184361207346 5.708375068690049 0 0 0
465 1 7.716562927373976 34.6852503423449 3.9829231383977444 0 0 0
468 1 13.997246671889101 34.48543707389463 3.9039434670977338 0 0 0
84 1 18.778128628866693 32.889198855665995 5.633787038698036 0 0 0
1123 1 20.733044914135135 34.30603845341855 4.021387858465326 0 0 0
1126 1 27.012895179895494 34.48877541463415 3.7513989504193166 0 0 0
1205 1 28.656955640312493 35.71740241865645 5.5660674607416345 0 0 0
1129 1 33.31285512856955 34.22086004385204 3.757781568121268 0 0 0
1128 1 31.70296930517716 32.844329947561434 5.56043722241832 0 0 0
469 1 4.170756100990758 37.3834336796064 4.328999293900331 0 0 0
471 1 11.220310463418 37.54357148980888 4.074648993050173 0 0 0
470 1 9.592813514203565 36.23997309145483 5.715059928325343 0 0 0
473 1 17.230373111653442 37.50593591167092 3.803375330290737 0 0 0
562 1 15.804438011420615 36.03163014508792 5.617305681928196 0 0 0
1131 1 23.851165599019833 37.88656146787652 3.6166433793295276 0 0 0
1130 1 22.48899658986813 36.09820642459205 5.1929009945722155 0 0 0
1132 1 29.97528546384257 37.469620760173555 3.9644901789911158 0 0 0
474 1 1.0791075249040574 40.664059275136054 3.7224842781341305 0 0 0
476 1 5.803806692726644 39.12166792375146 5.837686895377219 0 0 0
478 1 7.81882010154543 40.5088648662028 3.9603022388499918 0 0 0
480 1 14.190908532184624 40.69878729114622 4.012404843296921 0 0 0
569 1 12.772543287100317 39.169580396835 5.772358422445187 0 0 0
574 1 17.26298866504976 40.38007317821574 6.769468107948566 0 0 0
1135 1 20.62580769675699 40.801280379132464 3.8937755448700164 0 0 0
1035 1 19.223831036847177 38.92910411758085 5.086336670774594 0 0 0
1137 1 26.991561536573784 40.831395304005525 3.8183644266365033 0 0 0
1208 1 25.476688160916936 39.2414815757934 5.637061504043609 0 0 0
1133 1 31.324895829728042 39.367028501553534 5.210052931699726 0 0 0
482 1 4.147090529431953 43.9020671222643 3.6858007741971197 0 0 0
475 1 2.9719980065918516 42.34377987497389 5.722270042119074 0 0 0
484 1 10.56970439923358 44.460212161855736 3.828583766054437 0 0 0
572 1 9.41212753787977 42.48388915969868 5.394026942921049 0 0 0
580 1 15.843317385945856 42.46010758605924 5.310317162191742 0 0 0
1140 1 23.71349355247158 44.41362867815252 3.9474056167734695 0 0 0
1212 1 22.50326952957644 42.521509549870814 5.205567678023947 0 0 0
1215 1 28.48160003679943 42.58478725489164 5.519058460145596 0 0 0
1218 1 34.506866523371635 42.208682884764045 5.48564598345677 0 0 0
487 1 1.2260854312199814 47.1763829183146 4.033188099781573 0 0 0
1020 1 33.139627584316024 11.593129617889124 0.28614356393045964 0 0 0
488 1 5.8223474440545315 45.59878996773395 5.420565112556539 0 0 0
489 1 7.251037823003574 47.44436036704944 3.6911257941736038 0 0 0
578 1 12.42187876437107 45.43723140482902 5.330425189304296 0 0 0
490 1 13.940402906163273 47.37327535889905 3.7710800839534784 0 0 0
313 1 18.782601854157036 45.65748548107858 5.537919318509839 0 0 0
1144 1 20.13009670248807 47.245282657322775 3.762061556837051 0 0 0
1141 1 25.060741287055794 45.699406547827124 5.559663255555639 0 0 0
1148 1 26.680693543478895 47.1531492110817 3.7520176126974345 0 0 0
1216 1 31.651094458400514 45.503733735505975 5.163853297555652 0 0 0
491 1 1.565987505089778 50.79708914834781 6.758117402091903 0 -1 0
400 1 2.7957389901876923 49.16835037982358 5.103516448508302 0 -1 0
403 1 9.169291404358226 48.74496829301596 5.248725293862323 0 -1 0
584 1 15.744931697943553 49.131046918644614 5.458933627958 0 -1 0
1145 1 21.935630451785528 48.662687074984376 5.093955359318652 0 -1 0
1072 1 23.847545996281863 50.45435029448103 3.6400223915194614 0 -1 0
1073 1 29.895975124369404 50.30516618524878 3.816728221499576 0 -1 0
1149 1 28.366314079411453 48.82284924112031 5.2432771748957325 0 -1 0
497 1 2.812677007352284 1.066828614810302 8.719209496917768 0 0 0
593 1 8.88867366550103 0.46639771394431917 8.962650734340393 0 0 0
499 1 10.241306184383971 1.8655209680346103 7.040452250214741 0 0 0
501 1 15.45046095351295 0.9113722010797971 8.733197995254136 0 0 0
500 1 17.274752515195456 2.309214474118565 7.465821553070726 0 0 0
1156 1 21.811921860647846 0.6615778272967956 8.492546960344407 0 0 0
1157 1 23.375061218250682 1.9869715231606992 6.970865075905176 0 0 0
1227 1 28.08099562113019 0.9130958740320105 8.433251613990736 0 0 0
1159 1 29.982099917343042 2.4270072494440083 7.168237989648256 0 0 0
498 1 4.212207064450265 2.657263695559915 7.050391923245578 0 0 0
504 1 7.736711615289348 5.399808007792114 6.80966294025797 0 0 0
505 1 6.122129936232588 4.002201085620943 8.53415885937985 0 0 0
601 1 12.044121750210303 3.927788108885112 8.55934342468433 0 0 0
731 1 18.73002908556363 4.383724896791891 8.730899940972847 0 0 0
1235 1 24.667492552401683 3.8113365900238634 8.639626350643953 0 0 0
1164 1 26.49902397611794 5.476794458610801 6.997063962951936 0 0 0
1239 1 31.746010789294836 3.978870556708978 8.436007560320972 0 0 0
503 1 1.3041675490501414 5.745264485890453 7.444769841194503 0 0 0
513 1 4.225343203112307 8.635485083388259 6.972577127994272 0 0 0
512 1 3.2181113213036414 7.203956827328334 9.035563422529036 0 0 0
516 1 9.406367243625304 7.361153095881622 8.290990509471104 0 0 0
507 1 13.676175236883374 5.758161842527462 7.216534871837659 0 0 0
509 1 15.458571081940548 7.255045288015342 8.769870316613927 0 0 0
1242 1 21.580483019470257 6.903439181489614 8.79357413560791 0 0 0
1170 1 23.174939507831965 8.53601370418189 7.155113600929605 0 0 0
1237 1 28.487932296170772 6.983405530975006 8.414486282055 0 0 0
1028 1 26.982403287767884 18.198196354099593 0.36249571954569193 0 0 0
609 1 5.963860926702423 10.178373528273314 8.626663081968553 0 0 0
611 1 12.436708396730399 10.290916109765988 8.654547950428952 0 0 0
518 1 16.97051453186272 8.855902792324688 7.124094702143622 0 0 0
118 1 18.80740532913305 10.284252936986201 8.739376157421065 0 0 0
1249 1 25.296109334500287 10.212260302967158 8.615930573713518 0 0 0
1171 1 29.803472434824183 9.08913730387779 7.068627567646 0 0 0
1252 1 31.477167040303232 10.262173187410667 8.926743344436318 0 0 0
519 1 1.4338507381158727 11.914013810501771 6.99252777551227 0 0 0
520 1 2.3669231991763215 13.813543503437346 8.509600315193481 0 0 0
608 1 4.726453473067776 12.364680856898952 9.917124389033352 0 0 0
521 1 7.79472620976323 11.771465267025704 6.95060822330425 0 0 0
618 1 9.172154994445348 13.49440736859537 8.453355367640404 0 0 0
522 1 13.85619331175089 12.243280979497218 7.007083579606468 0 0 0
530 1 15.723431265463951 13.45073062242789 8.836163101232481 0 0 0
1172 1 20.371310899347375 11.930753102098738 7.304439935040301 0 0 0
1246 1 21.99767534515334 13.575130322840284 8.694519623603176 0 0 0
1173 1 26.877650028569754 12.099648137148554 6.978645225444671 0 0 0
1250 1 28.7075425517241 13.596408724862206 8.034239745613293 0 0 0
1174 1 33.0344953011479 11.7296721847875 7.3233232842090565 0 0 0
1253 1 34.40889243117035 13.642286209044515 8.828154852195835 0 0 0
613 1 0.8123742096674778 15.517071391958739 9.999882927733427 0 0 0
524 1 4.150041530537773 15.279346767599463 7.041069855473995 0 0 0
615 1 5.786745255522789 16.940811915195233 8.716421854840316 0 0 0
527 1 10.726039841614421 15.419333604319574 7.270883776748451 0 0 0
617 1 12.63918517430353 17.031788175851183 8.973960128547525 0 0 0
529 1 17.019942346908227 15.222053744701414 7.127984762018221 0 0 0
740 1 18.748315987507574 16.852639636504406 8.633365223357753 0 0 0
1175 1 23.32815488683432 15.229058756252895 6.926577186962562 0 0 0
1255 1 25.31971425172566 16.596322843354454 8.608360110395592 0 0 0
1257 1 31.633995213692955 17.0857245467807 8.16841967072034 0 0 0
531 1 0.7546061866127973 18.3467057110503 7.038684754714182 0 0 0
624 1 2.453437738671692 19.915897640745474 8.71134625218768 0 0 0
532 1 7.553759572211513 18.615503144294482 7.569812389553645 0 0 0
625 1 9.271643928150477 20.13137745317363 9.06135586406384 0 0 0
534 1 13.975890224444486 18.823141102645643 7.264390759012372 0 0 0
627 1 15.624050092508051 20.164763530041654 8.953939685973662 0 0 0
1178 1 20.403033814155563 18.394425764291316 6.9687092819843715 0 0 0
1182 1 21.991098672265377 19.63450308883303 8.71836562992495 0 0 0
1179 1 26.965815678589582 18.491671948318963 6.997379764764738 0 0 0
1261 1 28.67112707386059 20.286507132784315 8.491848700185153 0 0 0
536 1 4.139588040961725 21.626097991679433 7.219792941406516 0 0 0
631 1 5.556317074373736 23.246758910596526 9.029897698618514 0 0 0
537 1 10.788804329185092 21.920026108611545 7.286696372938216 0 0 0
538 1 12.832274964540968 23.07601096560336 8.863072155586337 0 0 0
539 1 17.352192630564428 21.672504187321792 7.264097882972229 0 0 0
789 1 19.037085002418277 23.06150681389004 9.091187615536386 0 0 0
1183 1 24.003476929952857 21.54391253066942 6.95141124874941 0 0 0
1269 1 25.158462380876493 23.23470363375717 8.749251551530591 0 0 0
1184 1 30.309425065493524 22.099952159098446 6.903725399363493 0 0 0
1267 1 32.01396878416104 23.421857578843266 8.574757586459864 0 0 0
541 1 1.3572234494048605 25.200221387275647 7.110944145749388 0 0 0
643 1 2.8260031146534117 26.66183212322726 9.15622746090467 0 0 0
2461 1 34.44736695930056 48.846759947140995 24.427506438904686 0 -1 0
544 1 7.408139387716037 24.61031425152905 7.609417991738456 0 0 0
549 1 9.153793263554224 26.115503027452377 9.041582055075736 0 0 0
545 1 14.027832434331986 24.781257454512804 7.580909816377746 0 0 0
1186 1 20.48138529041319 25.00403267022045 7.4343626738002175 0 0 0
1274 1 22.525154254139373 26.407344638818277 9.07507852267341 0 0 0
1188 1 27.139778028869465 24.786395430037196 7.323094623762505 0 0 0
1189 1 28.71303100466235 26.770992686058182 8.583430860355955 0 0 0
1190 1 33.779504199412436 25.083313147950786 6.958284073229489 0 0 0
91 1 -0.22017759724005553 29.463066298044136 8.292297224920386 0 0 0
548 1 4.403409037219702 28.04662333275425 7.390501460681954 0 0 0
550 1 10.53206413571364 28.148236354436982 7.216551708375166 0 0 0
557 1 11.987722381879802 29.71371150038073 9.03276267295928 0 0 0
546 1 15.55108765093365 27.01822882551878 8.744290958219404 0 0 0
551 1 17.354327328103743 28.30861446581074 7.172042101687064 0 0 0
1030 1 18.95323920954273 29.576490997439993 8.889952277902676 0 0 0
1191 1 24.102403177253453 27.91875053645354 7.184458546120643 0 0 0
1196 1 25.37811589816271 29.64979660456639 9.269996579982132 0 0 0
1193 1 30.273817175006428 28.0663276171262 6.879061347494428 0 0 0
1277 1 33.36772997060659 28.1633025835913 9.862524151409268 0 0 0