LAMMPS data file via write_data, version 29 Oct 2020, timestep = 200000

4608 atoms
1 atom types

-0.04748418143119437 57.317994181428894 xlo xhi
-0.04220816127328675 50.949328161273556 ylo yhi
-0.04220816127328675 50.949328161273556 zlo zhi

Masses

1 18.015

Atoms # atomic

29 1 4.541552446422382 1.3879687165664962 1.8169773123545325 0 0 0
640 1 15.687539821610311 22.492955770197483 -0.010905201035417963 0 0 0
183 1 0.1856100866928195 31.73803632460799 6.100023612827855 0 0 0
285 1 10.793726426963108 1.6036706568349175 1.4771936566483699 0 0 0
538 1 12.547318168410401 3.14647387340922 3.073958488938285 0 0 0
541 1 17.334408722396812 1.4062483602758948 1.3521388822301796 0 0 0
30 1 1.3107301924674966 4.354529607541267 1.1779290760173697 0 0 0
143 1 0.12640307237175907 25.819131437782634 12.661287601785087 0 0 0
226 1 0.7490530429774456 47.69864841194777 22.11781427140849 0 0 0
286 1 7.746830040845631 4.892482359855553 1.6298149386140288 0 0 0
542 1 14.34137149103365 4.822496888703436 1.601046091597209 0 0 0
146 1 0.16590351948480248 28.673043242636705 9.433179824499389 0 0 0
239 1 -0.0003277134623374395 44.259654807924555 12.519159910178995 0 0 0
740 1 17.552232109768877 49.233710955749835 23.938387194096094 0 0 0
61 1 4.623425459744956 7.844772191434622 1.6157830365707153 0 0 0
314 1 6.365330153461266 9.534483697526305 3.067901069672716 0 0 0
317 1 10.990558210910939 7.972859492963787 1.6131701055308396 0 0 0
154 1 0.48085612742735584 28.31908392224522 3.1517935166921616 0 0 0
573 1 17.34028518367839 8.172080726382427 1.7869826994303217 0 0 0
62 1 1.3185799378030574 11.212720449414775 1.8379893882918021 0 0 0
318 1 8.033023055129723 11.08930613045492 1.4580124757885458 0 0 0
345 1 9.353318657773043 12.658918042573795 3.249578951676478 0 0 0
574 1 14.185297622234682 11.41700260363504 1.6266278371387815 0 0 0
231 1 0.14637222940891575 44.78594435386626 19.192164637311826 0 0 0
93 1 4.681123821083661 13.847181044242507 1.388193482651474 0 0 0
89 1 3.1686395897379045 12.902060334006315 3.4357852119055763 0 0 0
79 1 0.13827297025286894 12.976508776213478 13.094922311848093 0 0 0
349 1 11.11499046157641 14.221181984079646 1.9015775822868182 0 0 0
605 1 17.24205401422822 14.342532446758113 1.4575598714258657 0 0 0
94 1 1.2666139156024498 17.41431067598404 1.9187032360362708 0 0 0
186 1 0.08658437927144291 34.853548629952 3.2542725817863123 0 0 0
576 1 15.498542826602115 9.730937968200612 0.12481446044056008 0 0 0
864 1 2.5994889545215716 15.776386948337764 25.14080469423597 0 0 0
346 1 5.960203897143584 15.50639419105545 3.2493237270478033 0 0 0
350 1 7.80892784181607 16.954000827975882 1.9845678401685665 0 0 0
606 1 14.038470278098629 17.391322294660565 1.8402878463442256 0 0 0
602 1 12.766413521210362 15.958059376755685 3.6748068936545333 0 0 0
106 1 0.016882927812389426 22.270120474280674 15.723188392400072 0 0 0
1119 1 5.968186715311078 12.628623563548462 25.19726021241113 0 0 0
125 1 4.759555295534423 20.383936587106835 1.7169763307844943 0 0 0
378 1 6.355699105079954 22.35356622592022 3.0669303244504693 0 0 0
381 1 10.960714402020523 20.56186482532729 1.7175926080055295 0 0 0
39 1 0.025218575893461548 6.225360446556458 19.019704721864862 0 0 0
637 1 17.438085501111125 20.83129887631583 1.3261202792185303 0 0 0
126 1 1.7057211019842313 23.602285440810867 1.81023573262482 0 0 0
639 1 12.449836789716256 19.065542852365684 0.1126513056653071 0 0 0
153 1 3.4495760266949596 25.49826598888395 3.144317580250721 0 0 0
382 1 8.33465673998662 23.875383662405635 1.9129149504847738 0 0 0
58 1 -0.04717218562350922 9.343557271636813 3.319919045197301 0 0 0
638 1 14.112133156275434 24.034976049262013 1.5507484881774884 0 0 0
74 1 0.18710460048044836 16.038476378148108 15.834379223940024 0 0 0
1215 1 6.010331809665426 32.317301101548125 25.332165727641126 0 0 0
157 1 4.905614515929301 27.021185404488875 1.57874204345565 0 0 0
191 1 0.294648876021235 31.6212414884807 0.08203358602318911 0 0 0
409 1 9.663713634146507 25.691852777431308 2.979585198525208 0 0 0
413 1 11.13133562337258 27.57633213931302 1.5979659934926895 0 0 0
1023 1 0.21763825953622112 44.173462386699 25.16169084497391 0 0 0
178 1 0.14030931149311954 35.42971873103992 9.907054762371576 0 0 0
669 1 17.535274576430293 27.001320453261393 1.4738878799088644 0 0 0
158 1 2.0943942726734894 30.010441429174858 1.4302276058962173 0 0 0
414 1 8.239488499405773 30.386756326422802 1.3304204765900416 0 0 0
670 1 14.362344260605557 30.897411404053827 1.461222121328032 0 0 0
189 1 5.010767011833964 32.90003543425379 1.5190648327190184 0 0 0
831 1 0.2599187710157595 6.250025034750875 25.083466713273427 0 0 0
672 1 16.186123119177307 29.067354379870267 0.1214151710353655 0 0 0
441 1 9.182575693878894 32.15070620396467 3.098780347427252 0 0 0
445 1 11.12350106192633 33.7259304228583 1.5207150283314457 0 0 0
701 1 17.505382148130103 33.813800151457976 1.68444916110306 0 0 0
484 1 11.145140638248634 49.47948005498539 23.814093201807033 0 0 0
190 1 1.9133519816399105 36.46761794230083 1.8054333808946657 0 0 0
151 1 0.2947387095786162 25.671156393337196 6.549588675817223 0 0 0
446 1 7.66049171976658 37.07155759752094 1.5809939993233593 0 0 0
800 1 3.4856289430846017 2.792818831337233 25.39193395904339 0 0 0
702 1 14.46407156345356 37.065727308912415 1.2914269291349516 0 0 0
224 1 2.8240609347296615 41.15428519127933 0.24880129444955063 0 0 0
7 1 0.21962100341222524 0.1529132389257839 19.00377967090837 0 0 0
1679 1 18.960801712935584 25.238713360899563 13.231820817675203 0 0 0
64 1 2.8666972839493914 9.479874192130202 -0.017253926089939288 0 0 0
221 1 4.887873338905776 39.53532014800547 1.606513348548869 0 0 0
384 1 9.398792821052666 22.177835327554824 0.15679329590406674 0 0 0
477 1 11.474388458877664 39.889696008834875 1.5517655968849715 0 0 0
730 1 12.95600922327368 41.42030475802663 3.3594617383410235 0 0 0
733 1 17.582727041025915 39.78973478494681 1.5647909434208662 0 0 0
1706 1 19.033230635957825 35.026812571837425 16.060110818797167 0 0 0
222 1 1.1495626702675315 42.92881303179606 1.6503503587498005 0 0 0
1554 1 18.974630451616584 3.153468572168592 9.768542846393174 0 0 0
478 1 8.152055691067066 43.1395102225499 1.4955025272652624 0 0 0
505 1 9.726917136089234 44.70179144405623 3.10357577514753 0 0 0
734 1 14.245648101961846 43.079171407554874 1.759793375506403 0 0 0
1570 1 18.78672321521226 9.746133109701335 22.322328739747725 0 0 0
167 1 0.12216927891251203 31.616413652933044 18.706412475989456 0 0 0
253 1 4.992351179772586 45.71000069304569 1.8191678803815352 0 0 0
509 1 11.362729410990452 45.8252676433224 1.3582473753710587 0 0 0
761 1 16.103406898663973 44.52926131816804 3.5107139163356793 0 0 0
765 1 17.629995059322006 46.10635897458006 1.61296484356078 0 0 0
1610 1 19.009859040283526 15.960613759618628 16.099782601112796 0 0 0
254 1 1.3025612412652345 49.449084806871056 1.496555853252401 0 0 0
510 1 8.036933333605935 49.08558595645005 1.120071835956004 0 0 0
766 1 14.393627480406163 49.17716967479683 1.5600110455764766 0 0 0
537 1 15.951721095403371 -0.04134582965631495 3.312243286296229 0 0 0
27 1 1.3028515339490185 1.2590318713187527 4.5308165972909515 0 0 0
283 1 7.893530321645601 1.6426376115824575 4.62626962791665 0 0 0
280 1 9.540328322895212 3.120578569108484 6.287835291288308 0 0 0
281 1 9.41610807713736 50.767865833483725 3.007186344176117 0 -1 0
535 1 12.629984555448925 0.05110561169800178 6.508269610538108 0 0 0
539 1 14.187370160521183 1.593574543244538 4.574006864178693 0 0 0
282 1 6.002872737053023 3.317347789455669 3.306747200842657 0 0 0
28 1 4.397653509878714 4.751909624491227 5.071776943223608 0 0 0
313 1 9.534234307963928 6.397969955112055 3.4611522100551615 0 0 0
284 1 11.230840711191508 4.90234264585561 4.879499655317366 0 0 0
569 1 15.55972824084595 6.621738961337552 3.332874678514865 0 0 0
536 1 15.75639490924703 2.984087273443591 6.315238796380083 0 0 0
540 1 17.154419595019903 4.6536290880149584 4.373490172065224 0 0 0
57 1 2.7745522168743455 6.11744282267168 3.0874401944842997 0 0 0
59 1 1.3620144274121073 7.7057199116660335 5.061691951344811 0 0 0
315 1 7.911305358861535 8.09630924583037 5.078543168902356 0 0 0
571 1 14.396449955798785 8.38950672660872 5.076285568453603 0 0 0
1607 1 19.06237289045567 12.525674093850887 19.1514383126784 0 0 0
56 1 2.808361400021309 9.670245361413938 6.622967036499526 0 0 0
60 1 4.497542518808159 10.944551994902842 4.862738887329308 0 0 0
312 1 9.352377309053415 9.553977170059435 6.508935530700696 0 0 0
316 1 10.858563293551514 10.9466715803834 4.865947997152126 0 0 0
570 1 12.713426379470917 9.560353117297135 3.1468918827229317 0 0 0
599 1 12.67655336328863 12.425417523730705 6.7038238288171845 0 0 0
572 1 17.183032862371675 11.548551165837235 5.038404370077829 0 0 0
601 1 15.68956993432306 12.869451093543258 3.2374935662867066 0 0 0
1591 1 18.64589860461991 6.263449435505977 6.197999390793463 0 0 0
228 1 4.82421756353648 49.322580940632676 23.889374739494972 0 0 0
91 1 1.3917985381065168 14.433137664142238 4.959737942969037 0 0 0
343 1 6.4326642619323255 12.481180313710228 6.1861443006365615 0 0 0
88 1 3.1185948256235587 15.942677944449812 6.490556483819924 0 0 0
347 1 7.913825920938596 14.26421140533194 4.723117904462105 0 0 0
603 1 14.143290102845906 14.177000116699611 5.210341968159215 0 0 0
121 1 2.821847063498086 18.98157504365518 3.371886196804644 0 0 0
92 1 4.7355496143871525 17.799142225767017 4.90131012789938 0 0 0
375 1 6.514517155343923 19.599754513636967 6.607716855121781 0 0 0
348 1 10.909200128453032 17.74869027120906 5.2419226081547015 0 0 0
604 1 17.362507406319963 17.629278685869647 5.1587952574019615 0 0 0
123 1 1.2805615813142457 20.63023419371238 4.78455798338378 0 0 0
120 1 3.3276671110103795 22.282585094793053 6.000335004450646 0 0 0
379 1 7.961271135767248 20.919491253490925 4.707822417827547 0 0 0
377 1 9.456573017414266 18.824251852988017 3.331505521745305 0 0 0
634 1 12.501971755944442 22.87587622365779 3.2845505799791024 0 0 0
635 1 14.597127673259816 20.835587751000165 4.273981661686576 0 0 0
633 1 15.920882844770848 18.81619007496688 3.0587178605909546 0 0 0
1559 1 18.969076296889515 -0.00710391557896628 6.5488149741525055 0 0 0
124 1 4.9616270214933325 23.989910054434898 4.7156696671060905 0 0 0
380 1 11.208371120285529 24.544999718835765 4.929079314903976 0 0 0
665 1 15.860765281445342 25.574817637269955 3.36609460430721 0 0 0
636 1 17.57538307205783 24.040644021619514 4.966207933769749 0 0 0
159 1 0.3954088927631513 25.29864300368315 0.328540340939725 0 0 0
155 1 1.9828941199891892 26.762566415335584 4.827358858770205 0 0 0
175 1 -0.0031654235666117372 32.040277885878794 12.841329961618502 0 0 0
410 1 6.388834789968225 28.842583538223963 2.8577393496548065 0 0 0
411 1 7.849917358467523 26.83242629823149 4.630882631811349 0 0 0
667 1 14.179322521521346 27.528227324506176 4.628703404032057 0 0 0
664 1 15.842446667913602 29.025109110912332 6.189756164632987 0 0 0
207 1 0.060519881801061215 38.30950641358391 12.762515463531203 0 0 0
156 1 5.078877227931141 30.222715715769652 4.866693103296644 0 0 0
412 1 10.92548079348578 30.693523119116144 4.569436655844048 0 0 0
666 1 12.76815428932367 29.47494564144497 3.03821952670699 0 0 0
695 1 12.807542599309553 32.03431404203262 6.189918797672198 0 0 0
668 1 17.684986001748992 30.76622035265798 4.899005450481418 0 0 0
187 1 1.6863048212577183 33.24505679344241 4.59924138253491 0 0 0
185 1 3.4992716336761545 31.547976328282886 3.338888645356907 0 0 0
443 1 8.174008930952425 33.80257288002629 4.839079828829748 0 0 0
699 1 14.086355255183271 33.97694364292955 4.731887717947332 0 0 0
697 1 15.972065400336156 32.3346085851092 3.55619736942432 0 0 0
1439 1 12.704022464801854 25.594241764067743 25.408152152938662 0 0 0
217 1 3.2196584913281114 38.19577228849465 3.514354855273929 0 0 0
188 1 4.609868903794001 36.36982009398661 4.912292746511841 0 0 0
442 1 6.30723822426629 35.134220228827274 3.0923287197992897 0 0 0
698 1 12.838141720659927 35.28698043721784 2.991065150023257 0 0 0
444 1 11.217627765708041 36.78223592328467 4.647096169945447 0 0 0
729 1 16.084275026338478 38.111923703376995 3.2109613383233673 0 0 0
700 1 17.442195896011388 36.46235850214392 5.127860188435991 0 0 0
219 1 1.2031827552692547 40.161577744473114 4.496415592678832 0 0 0
473 1 9.591300422089674 38.33140117747394 3.037559311174964 0 0 0
475 1 7.874681718963948 39.33433691186616 4.857450651218573 0 0 0
727 1 12.998013923411513 38.11463426833428 6.331123498759032 0 0 0
731 1 14.597793430191112 39.59769911198132 5.055681550693365 0 0 0
220 1 4.724227735133025 42.534771031125345 4.748943404332052 0 0 0
503 1 6.3122401190912845 44.32399732463665 6.30364247797758 0 0 0
474 1 6.707987055828201 41.226967734147244 3.2256116070627123 0 0 0
476 1 11.155208935656027 42.768545352748454 4.56952450088612 0 0 0
759 1 12.784214180789757 44.38867313945887 6.265401906130277 0 0 0
732 1 17.771133600437828 42.84607569412599 4.980248879418867 0 0 0
251 1 1.6401537367566716 46.10962297582231 4.459476142769843 0 0 0
249 1 3.149072417218776 44.20464718902077 3.087216533456705 0 0 0
506 1 6.535388237495923 47.55926369686892 2.986931131323984 0 0 0
507 1 7.946905700403355 45.89286727908384 4.673371402055778 0 0 0
762 1 12.755181780711123 47.48750591283022 3.203459485212574 0 0 0
763 1 14.508812469432252 46.2048849250517 4.946164480733797 0 0 0
25 1 3.231670835867373 50.5542883889113 2.9941827487864847 0 -1 0
252 1 4.964605572992239 49.21591916534868 4.7276288548318295 0 0 0
508 1 11.192158819629539 49.369160042001006 4.632941532750119 0 0 0
764 1 17.56242771154493 49.39786353608702 4.7353439970464954 0 0 0
279 1 6.567703149880701 50.816541077374374 6.3023019709602535 0 -1 0
21 1 4.735626526252056 1.2924021834872008 7.637231604042295 0 0 0
273 1 9.081958374030915 50.74410295159281 9.391956431901137 0 -1 0
277 1 11.288711773841463 1.5395092261367662 8.21041610029462 0 0 0
530 1 12.715307754044906 3.4275253271471007 9.318099710683002 0 0 0
533 1 17.448588397261602 1.6748050390473044 8.088570996236111 0 0 0
24 1 2.7905970568332106 2.82591226847529 6.142990099997982 0 0 0
22 1 1.0571872735958305 4.510541971794951 7.527108561675372 0 0 0
278 1 7.669028716366917 4.764346343130543 7.90508633054681 0 0 0
305 1 9.26618705745724 6.2733567861106865 9.314713061833707 0 0 0
567 1 12.594362797240532 6.655105232351654 6.571850524396729 0 0 0
534 1 14.429550051509894 5.006571326540795 7.6795036074638565 0 0 0
1626 1 19.04069652764929 16.014127526701607 3.127546627234612 0 0 0
49 1 2.7994873544269363 6.203553034508478 9.112860888693591 0 0 0
53 1 4.382239685039276 8.100149773050987 8.015984738140585 0 0 0
311 1 6.112152268136256 6.307956407894904 6.488736174331639 0 0 0
309 1 10.838108172560206 8.32828028960066 8.232770617505789 0 0 0
562 1 12.5839806728245 9.286253992598612 10.26126324879933 0 0 0
565 1 17.65570460352286 8.218123247911873 7.990929921182783 0 0 0
54 1 1.083141115219302 11.30611823987481 8.069990738101001 0 0 0
310 1 7.924179069002598 11.181579416061238 8.197250985444773 0 0 0
568 1 15.977045920563732 9.565690514507544 6.899016608997003 0 0 0
566 1 14.011042713530198 10.93019831648091 8.327508474285525 0 0 0
85 1 4.722809931968973 14.133740646675411 7.718562522133365 0 0 0
344 1 9.424943805406944 15.639450531084565 6.481332995905651 0 0 0
337 1 9.735129830165418 12.824752922032895 9.645335108579415 0 0 0
341 1 11.282119259562885 14.311572037631347 8.101332949620398 0 0 0
597 1 17.61361442890633 14.447700981701278 8.702004521610906 0 0 0
600 1 16.020717390221275 15.698681739731724 6.63670232263134 0 0 0
86 1 1.0586464242380995 17.33297858098298 8.058035358619572 0 0 0
342 1 8.086603668288989 17.751270733455 7.834923445177461 0 0 0
338 1 6.402910565643803 15.79088030158351 9.527769366560829 0 0 0
631 1 12.704625431444889 19.51883745920805 6.105685176555642 0 0 0
598 1 14.31568633266893 17.806432382684672 7.740475139405934 0 0 0
117 1 4.701176427033375 20.854556712609263 8.100250961433959 0 0 0
113 1 3.035651779647826 18.921889745451423 9.33843810096086 0 0 0
370 1 6.252379380164004 22.55160893626391 9.719429832476486 0 0 0
376 1 9.43386310246913 22.789434115685836 6.169076069664347 0 0 0
373 1 11.286733023758739 21.20299245420909 7.673218585049268 0 0 0
369 1 9.817568080804485 19.339000048137265 9.401393975017415 0 0 0
626 1 12.705549510698264 22.918755063052288 9.227255259873811 0 0 0
629 1 17.392210977524655 21.00024225884602 8.22435444517951 0 0 0
632 1 15.792492732528713 22.535250800404782 6.219547373265946 0 0 0
118 1 1.6932188524193557 23.554045056991047 7.875366040832388 0 0 0
352 1 9.33744037357034 15.711054388748547 0.2172706370312441 0 0 0
374 1 7.686758948542439 24.031906132764075 8.057417304333146 0 0 0
663 1 12.836092738656026 26.08504980690076 6.481107127266032 0 0 0
630 1 14.590452217568666 24.47017115509135 7.896375336768997 0 0 0
152 1 3.4821204829960717 28.782323348270122 6.488031267556577 0 0 0
149 1 4.582623781853348 26.955361233743833 8.04538272471881 0 0 0
407 1 6.399399463231224 25.701153592668234 6.576896917585737 0 0 0
405 1 10.734507731082585 27.676677209851757 7.758430115141336 0 0 0
661 1 17.467923646757512 27.540683486211954 7.8563606024668315 0 0 0
1087 1 6.260059807065678 6.48398242876208 25.238345760818994 0 0 0
150 1 1.8649118195041603 30.15395338643463 8.018631126798189 0 0 0
439 1 6.460790467630295 32.08794970331088 6.505861099394279 0 0 0
406 1 7.7837982750874675 30.392621745677026 8.151751915155163 0 0 0
408 1 8.933865351884293 29.166195376647533 5.902432195110588 0 0 0
658 1 12.30573473202658 28.799419502993103 9.391066267544952 0 0 0
662 1 14.381265056151658 30.2820415942454 8.023356054037794 0 0 0
689 1 15.946227448704452 31.920365467894204 9.702061815351229 0 0 0
256 1 3.3225300834740183 47.77713038496356 0.3177718897219402 0 0 0
181 1 4.545408605360775 33.42125287874912 8.251559389241965 0 0 0
437 1 10.989847808433705 33.47336837076791 7.911704497927878 0 0 0
433 1 9.435822086853765 31.675514648846093 9.935500511979505 0 0 0
693 1 17.91630435124578 33.54019345480261 8.150104128895943 0 0 0
737 1 15.673117475554742 44.670179809679254 22.290545940219573 0 0 0
182 1 1.5998845392014442 36.68074384571721 8.082107215526767 0 0 0
184 1 2.9099504825988918 34.65260391346486 6.477379950831269 0 0 0
438 1 7.874281771377962 36.18408629352668 7.810689203793769 0 0 0
440 1 9.884949051077346 35.11286361385475 6.134077601806519 0 0 0
696 1 15.761161090478641 34.77958490633909 6.795104545378695 0 0 0
694 1 14.517332660134194 36.631644360197654 8.061093780642238 0 0 0
216 1 2.8766029523334673 41.16756231539921 6.445067746327687 0 0 0
213 1 4.843279653762918 39.723713327505784 7.903176573918038 0 0 0
471 1 6.205592384152649 37.86246728345363 6.551441013390576 0 0 0
472 1 9.83846124908098 40.68085185056821 6.09869615080992 0 0 0
469 1 11.040833158274847 39.34289965712399 8.23901647016142 0 0 0
728 1 16.187965456885276 41.29860825575764 6.677476468560832 0 0 0
725 1 17.82525304986673 39.285211663838 7.9182121392642895 0 0 0
214 1 1.4475115138515244 42.86535635640446 7.79772254092744 0 0 0
470 1 8.099930302008728 42.45043712659125 7.554083439164984 0 0 0
726 1 14.14673150969605 42.743774697928906 7.884804793867828 0 0 0
753 1 15.695235204032043 44.176204955150155 9.441924907485783 0 0 0
245 1 4.5239987702977045 45.704261938825695 7.867086657869316 0 0 0
241 1 3.069221706080223 44.10818725996776 9.629574866333739 0 0 0
498 1 6.367449503448865 47.28958949207677 9.186968148866466 0 0 0
501 1 11.362093948783423 46.021285234959834 7.987194719343467 0 0 0
760 1 15.97471279779485 47.811400292892834 6.382994260397668 0 0 0
757 1 17.33706714298343 46.14609285146533 7.877026519940982 0 0 0
1183 1 6.152757331201276 25.49764796601976 25.400086666144833 0 0 0
248 1 3.1998691046560914 47.60480726491638 6.243007268921069 0 0 0
246 1 1.334200416961595 48.97632489805682 7.624981004239936 0 0 0
502 1 7.958715933778155 48.66843702549225 7.626699069600167 0 0 0
504 1 9.62081982037008 47.41535429519327 6.096776783923655 0 0 0
758 1 14.128722111420005 49.21561169696552 7.920514552992011 0 0 0
529 1 15.557061330054129 50.87020524930099 9.281686249791388 0 -1 0
17 1 2.972225295746108 50.855924905489886 9.085167362546303 0 -1 0
19 1 1.5121265237956631 1.010197461486184 10.774932449845167 0 0 0
96 1 2.7536553930911656 15.783580299876217 0.25192636140788577 0 0 0
274 1 6.316952129508762 2.9752610907735306 9.381179927417584 0 0 0
275 1 7.756916236504604 1.2687435497309358 10.931010062679878 0 0 0
531 1 14.046415843794623 1.5579241548672036 10.965890803114895 0 0 0
528 1 15.462602961877872 3.1735056872688623 12.56840963704934 0 0 0
128 1 3.3067721446612923 22.1783903821344 -0.024073596665663975 0 0 0
739 1 14.106089170290321 46.10246908472188 24.174549576447554 0 0 0
20 1 4.43694923158583 4.473362935475406 10.593445791568657 0 0 0
272 1 9.529294362755655 2.855179801608772 12.413384811665244 0 0 0
276 1 10.837869356035219 4.547740813316152 10.707836464005805 0 0 0
559 1 12.615057703555221 5.671217534253932 12.584729897667364 0 0 0
532 1 17.66471873683898 4.767185800198742 11.206843629914756 0 0 0
51 1 1.4919517544964718 7.878299995894417 11.159763390713096 0 0 0
307 1 7.420590245645082 7.7658178775118625 10.813852690565495 0 0 0
563 1 14.384457942885003 7.505399304206709 11.552384301895648 0 0 0
561 1 16.14192757433478 6.475232480696333 9.375088649061171 0 0 0
1770 1 19.037683319104044 47.73646410201743 15.964683346627993 0 0 0
48 1 3.49203131059718 9.398549737711859 12.801614040839164 0 0 0
52 1 4.91305429457576 11.154897008167756 11.265345201901477 0 0 0
306 1 6.1299323720653085 9.589891674370351 9.244750770561447 0 0 0
308 1 11.050115803308094 11.22760357947542 11.500570743541056 0 0 0
304 1 9.183308969393092 9.343129571179482 12.60238289355668 0 0 0
593 1 15.567490489718741 12.843660649694097 9.392218982697429 0 0 0
564 1 17.10114275576752 11.299754091567173 11.301087547074534 0 0 0
560 1 15.926132626017528 9.143814328276793 12.926740135912125 0 0 0
83 1 1.9281746285136374 14.225909046652975 11.555686237780284 0 0 0
81 1 3.265578474258463 12.509620087187097 9.555311670205123 0 0 0
339 1 8.196879082719837 14.505829270338587 11.158695579431061 0 0 0
594 1 12.7362778251382 16.284458542836667 9.53839545574865 0 0 0
595 1 14.420199668935885 14.546193159229743 11.182784561282743 0 0 0
481 1 9.495980398400139 44.57390550065231 22.38017300940536 0 0 0
84 1 4.851555466713589 17.326731205905094 11.110453027433698 0 0 0
80 1 3.3566063802334654 15.917136794165422 12.76100884785332 0 0 0
340 1 11.41867205011786 17.835185146922655 11.405072897037718 0 0 0
596 1 17.16690274252086 18.302831904814227 11.361238504318864 0 0 0
592 1 15.604426065269116 16.05912047979799 12.802792383834133 0 0 0
625 1 15.678419051106918 19.582702498716152 9.52687874627665 0 0 0
115 1 1.327331850796599 20.644135037737083 10.678661582283878 0 0 0
112 1 3.2241774566622645 22.055303126025393 12.531160750771 0 0 0
371 1 7.888898570673409 20.687541487099235 11.107706532814891 0 0 0
367 1 6.388292222618104 19.04257243726728 12.947692013536468 0 0 0
623 1 12.873176946512665 19.44909249408609 12.921121741394437 0 0 0
627 1 13.984548981366597 21.244334850515646 10.953890413510523 0 0 0
116 1 4.822440295161237 23.962217948072336 11.459613032550186 0 0 0
401 1 9.33332904303472 25.83061670675407 9.42765736899956 0 0 0
372 1 11.056169627213412 24.289113672040514 11.090856506828022 0 0 0
657 1 15.735270387313308 26.34611212131245 9.940449429846888 0 0 0
655 1 12.387676426841901 25.70227552434076 12.838971344912085 0 0 0
628 1 16.948783780214775 24.330085410879924 11.123533651617969 0 0 0
147 1 1.8293668608470521 27.004284449965322 10.966973047124124 0 0 0
543 1 12.54349033219131 50.673246813443974 0.054509472987845656 0 -1 0
145 1 3.174311499971212 24.97675169607427 9.468590356782697 0 0 0
403 1 7.658430566251069 27.34678728116371 11.101325421802548 0 0 0
659 1 14.030768526306137 27.750281470271013 11.412473001732875 0 0 0
1655 1 18.98261594171436 19.31636863234986 6.6826780799622245 0 0 0
177 1 3.1367921655628406 31.85589553793147 9.944218951893468 0 0 0
148 1 4.72658543562595 30.387454719237542 11.205738520496357 0 0 0
402 1 6.0349462234739795 28.733306816465 9.574611719960213 0 0 0
404 1 11.050468167191923 30.224316108501217 11.494302697223635 0 0 0
400 1 9.439588325145737 28.50927230278604 12.99655129697726 0 0 0
687 1 13.19681998856328 31.787551192273373 12.896566240339578 0 0 0
660 1 17.99729163569268 30.46155587680713 11.052162332996883 0 0 0
179 1 1.8214117763893747 33.84936844324555 11.304834764157416 0 0 0
176 1 3.3069037075439622 35.23779155791088 13.034819242776885 0 0 0
434 1 6.342867256939953 35.0275510505687 9.650140176106229 0 0 0
435 1 7.830874380140801 33.570830039379594 11.393876634505032 0 0 0
690 1 12.737979251980203 35.077498873260225 9.502255526047778 0 0 0
691 1 14.232587453268264 33.733700253682215 11.28243944371777 0 0 0
209 1 3.2868805111252857 38.284553738140374 9.730848501739079 0 0 0
180 1 4.790617750797941 36.460651946380665 11.240768678900553 0 0 0
463 1 6.2354127969097535 38.24710387161353 12.823005268011682 0 0 0
436 1 10.851980405426609 36.38713734410456 11.24319526513232 0 0 0
688 1 15.896984165488233 35.18694066409759 12.730166754994436 0 0 0
692 1 18.17353994855812 36.59984019095797 11.553687865231893 0 0 0
483 1 7.5605506176703585 46.38641610128201 23.83133389126721 0 0 0
211 1 1.5613856021358776 39.87858407714374 11.078942252772933 0 0 0
465 1 9.250493945874192 37.82895867635327 9.747030337963842 0 0 0
467 1 7.999289812250321 39.64295834644682 11.422289807317817 0 0 0
722 1 12.509105973072156 41.15043871608965 9.615184850745678 0 0 0
723 1 14.409726257801102 39.520925119715216 11.076088372422992 0 0 0
721 1 16.652420373089416 38.05570795214718 9.754997115846622 0 0 0
466 1 6.509037133433446 41.13383278008245 9.605253806173502 0 0 0
208 1 3.4004972799688624 41.20658112635916 12.877032657822118 0 0 0
212 1 4.781870061821279 42.65913479622794 11.232418576541829 0 0 0
497 1 9.582323428851904 44.112431587651464 9.302772602957036 0 0 0
468 1 10.930873149717259 42.73690263969151 11.125040764437209 0 0 0
724 1 17.500670858641588 42.666748855997874 11.022944826705551 0 0 0
1279 1 5.962698451409687 44.71201556544457 25.403838529664704 0 0 0
243 1 1.3446360434543658 45.96660821798907 10.977919608490394 0 0 0
240 1 2.9780801509536667 47.733387472960146 12.693052661818374 0 0 0
495 1 6.40585177128332 44.28513722441058 12.756714385067706 0 0 0
499 1 8.052573586016845 45.87605230587744 11.113117289609484 0 0 0
754 1 12.82971750659065 47.57133465687075 9.695443570847718 0 0 0
755 1 14.268889128902225 45.65572692520065 11.438035246104212 0 0 0
752 1 15.864928244905338 47.79921648848427 12.510528587159987 0 0 0
1543 1 18.75050365876243 50.91609571847488 18.92229000527705 0 -1 0
244 1 4.662742000407921 49.1486986453882 10.59970734085084 0 0 0
271 1 6.019570042543681 50.9108115074438 12.53710482856501 0 -1 0
500 1 11.007572567057801 49.03049350556409 10.753684528023719 0 0 0
527 1 12.469292925710258 50.64348875079462 12.599797818662855 0 -1 0
756 1 17.49850951047402 49.39656854609031 10.48088630552166 0 0 0
448 1 9.458247568452583 35.44502833579213 0.019536262826126444 0 0 0
13 1 4.6079107517753615 1.628390031849942 13.69590702357 0 0 0
9 1 3.124236039695685 0.12488057516932155 15.532275360858648 0 0 0
266 1 6.10571882052129 3.117683358765289 15.777684971941019 0 0 0
269 1 11.40606446281015 1.6785240528214007 14.015853257001279 0 0 0
265 1 9.468519542248327 50.80976843770435 15.676817371678089 0 -1 0
525 1 17.305999250817496 1.6742002101936464 13.959506531853528 0 0 0
14 1 1.6911371379199045 4.852253750268687 14.374060817125475 0 0 0
16 1 2.782041579768843 3.0226241839961445 12.203032423066547 0 0 0
270 1 7.78130641981318 4.35184077666361 13.744988148517448 0 0 0
522 1 12.659245211608424 3.172875515836366 15.842700667030273 0 0 0
526 1 14.363237273961484 4.865441895756103 14.444437220088075 0 0 0
553 1 16.00022724104705 6.434830107729312 16.43121232651553 0 0 0
227 1 1.8129202113327754 46.16381939423289 24.199560515631894 0 0 0
41 1 3.2246102689197893 6.521258244298208 15.950362636936584 0 0 0
45 1 5.014408361867038 7.734599886271182 14.363440205554683 0 0 0
303 1 5.911596256472343 5.924504249522652 12.232732821303927 0 0 0
301 1 11.140338309857198 7.639197101600218 13.700540562047973 0 0 0
557 1 17.540592531559586 7.762026263545923 14.815987098716496 0 0 0
46 1 1.485936350043741 10.966052803023034 14.53172135003402 0 0 0
302 1 8.117250613033432 11.229139626564589 14.287313783805555 0 0 0
329 1 9.689532883743922 12.875275075046405 15.497508348474337 0 0 0
558 1 14.306113153799817 11.145171476716184 14.299841037814598 0 0 0
591 1 13.18459133004256 12.631605353033962 12.443737563588055 0 0 0
73 1 3.330925107964308 12.787333459682314 15.689134921154372 0 0 0
77 1 4.992254874459286 14.347524112605369 14.283377893564097 0 0 0
335 1 6.50516934122224 12.861183840075139 12.668575067099997 0 0 0
333 1 11.67912610544119 14.567273391269383 14.126412928515755 0 0 0
586 1 12.616442999573644 16.43075961802474 15.833610201975088 0 0 0
589 1 17.18751116474218 14.377612898582274 14.57296063617966 0 0 0
78 1 1.7300671024046657 17.944281703819424 14.038080331938254 0 0 0
334 1 7.8905796733234315 17.733213577367362 14.445632962425366 0 0 0
336 1 9.532399160787152 16.245524998555684 12.879097837019668 0 0 0
590 1 14.19439439379444 17.893073886697422 14.360480713417546 0 0 0
1280 1 9.479833393341712 47.90938956004098 25.39056927923346 0 0 0
109 1 4.966481219691676 20.934362492958954 14.300592548196521 0 0 0
362 1 6.350107611483981 22.335923203039428 16.510715457043865 0 0 0
365 1 10.874860590037537 20.779225325454213 14.044573062140234 0 0 0
621 1 17.50420265905265 20.98622022063048 14.281820992264938 0 0 0
708 1 17.011896061967196 42.7803679875767 23.791898134164565 0 0 0
1650 1 18.88140217662245 22.71618565106668 9.702274694710933 0 0 0
110 1 1.5641225818184876 23.896092575762353 14.04309792823189 0 0 0
399 1 6.037787100198168 25.907386594813243 12.727375489097511 0 0 0
366 1 7.433042387386411 24.05589233595488 14.495778451826087 0 0 0