LAMMPS data file via write_data, version 29 Oct 2020, timestep = 200000

4608 atoms
1 atom types

-0.10679854491006324 53.50679854491172 xlo xhi
-0.09960283762119104 51.00672283762236 ylo yhi
-0.09960283762119104 51.00672283762236 zlo zhi

Masses

1 18.015

Atoms # atomic

2861 1 1.1381050036958822 13.153692259654834 1.199597589893992 1 1 2
2219 1 3.8064793755101944 4.3809634669717505 3.6653362981802537 0 1 1
4518 1 9.767144951678013 3.7857116512918414 1.0177872100165488 0 0 0
1100 1 7.018037303689524 2.9355781763716426 0.653810752366469 0 0 1
1837 1 1.0586668902686516 42.346117520857405 19.433337259490436 1 -1 -1
4312 1 1.7893895955807329 30.838763075274514 4.684672040215941 0 -1 0
2342 1 2.9834625943820074 5.671277000853933 1.0191839106443807 -1 1 2
446 1 1.37973139426197 36.1973871889358 11.794627649990874 0 -1 1
855 1 5.901848391807852 6.179711493887894 1.4077321637369873 -1 1 0
3550 1 14.766406648316464 39.70052475387667 1.3684040608980732 1 0 1
3537 1 0.20086072454916837 5.512934243543713 0.8709267450704614 1 1 0
3709 1 0.14654020365739157 45.83184037049105 1.7435471660511028 1 0 0
2446 1 2.467581356097001 10.9120966906625 0.29389917611597466 1 2 0
2304 1 1.5083117066200915 6.847409761786735 4.8779620752207435 1 0 1
2079 1 10.343396456035403 6.6714388258231665 0.6865094511486846 1 0 0
2487 1 1.5285229017229869 10.162649925047146 3.1091616529376016 1 0 1
2036 1 6.369736693314485 10.292123125515719 1.6634227515997206 0 1 0
2201 1 11.265215650074673 11.451164275298268 3.8525795005760837 0 1 0
2634 1 14.572603224909672 8.741071800213986 4.157470236205422 0 0 1
1484 1 17.25535579234784 13.144491251255348 20.116485106533624 1 1 1
2179 1 10.795205393437852 4.27145431101635 22.944288111541574 2 0 1
3318 1 2.7576741657895227 19.005891048969275 1.3395501032011543 2 -1 0
1128 1 0.5388057467525751 20.68918085918564 20.967355789743728 0 0 0
1296 1 15.404714414400546 9.275731467574357 1.4621232159699662 0 1 1
4384 1 4.837676270336006 22.370761072931558 1.747754870506406 1 1 0
2291 1 8.067937385729948 20.005814546429583 -0.029808963954692902 1 -1 2
969 1 0.3197797198341842 41.54263239876716 15.295709373168027 1 0 1
2955 1 1.591719320907221 18.75562006184131 11.816416673918136 1 1 0
2701 1 1.0659245741005619 24.70214172597834 10.770233589085272 0 0 1
1399 1 1.5166924855277895 31.02383878241897 0.6053018023640914 0 1 1
3817 1 0.8912629774501206 49.95826933459593 15.045337777770245 2 0 -1
3600 1 16.784351678412843 16.947174677531436 3.7962346245185143 1 0 0
4568 1 12.911433322831867 19.25025552395139 3.1400681799588224 1 1 1
2004 1 7.199301966496447 30.026770170638247 24.004422950302313 1 0 0
590 1 0.6378804244774761 20.5373985731631 5.694021416493948 -1 0 -1
4126 1 6.620547072403214 24.348747313268166 0.29071374628353047 0 0 1
350 1 17.432576484948164 50.33708190620431 10.550664029024201 0 0 -1
1180 1 0.4991571730251001 47.48214818223391 24.979611707690133 0 -1 1
2438 1 0.16778210905060242 11.322373769747651 23.436806220774454 1 1 0
1451 1 15.079391349878216 20.847113752668047 3.411716430310604 -1 -1 1
2565 1 1.5102014821213765 5.040147786401247 14.36386402075294 1 1 0
1545 1 12.540498475167855 32.71748973253416 24.02122193002711 0 0 0
1558 1 15.21403879531033 42.74477410927719 24.55019967739322 0 1 0
2733 1 1.1441666886176307 23.09207215681398 8.46082863156654 0 -1 0
704 1 8.902744079894536 24.167620869730996 4.806202809680999 -1 1 -1
4029 1 17.038696320273164 23.03468008101673 0.29340596907161776 -1 -1 1
3721 1 0.370023191840017 30.858620346535446 17.05188383215407 0 -1 0
4315 1 4.539497713083577 28.11542959719804 6.252106654127678 1 -1 1
3068 1 8.421318139378734 31.360987046416895 2.484881355480601 0 0 0
2137 1 5.3305461163483745 33.3730893557695 2.350071537776855 1 0 1
1792 1 11.093654351240714 30.767229634428947 4.730149513290522 0 -1 0
4052 1 16.50846080756415 18.617791934074216 9.639402609138829 0 0 0
2020 1 14.174720880898684 28.355227419239537 2.099966608694833 0 0 0
827 1 4.1646455149144845 28.19499778459256 3.315573916837012 0 0 1
3651 1 5.004156897611117 37.228469048620475 5.28711857411028 1 0 0
2000 1 4.629403140071122 6.079801575348395 14.027855696259314 1 2 -1
566 1 8.000900836838815 34.0137870253316 1.6281691527322977 0 1 1
2522 1 8.656523351267552 28.004493197216757 5.198824222573768 -1 0 1
3672 1 3.209521328443433 38.74773034998305 0.10506890519085649 1 -1 1
2253 1 14.172830616488328 32.40480153506626 3.762323471475333 1 -1 0
1302 1 0.8625757722631362 7.284597392206754 22.62937398771821 -1 1 1
3256 1 4.665330379823069 34.30378567024824 5.171285562564925 1 -1 0
2670 1 3.671245814482885 31.040022565013334 2.468749484461485 1 1 -1
3887 1 6.971327852458969 33.30172402678347 6.089766464850454 1 0 1
3225 1 11.161801002370916 33.06180610133516 2.9794894440939634 0 0 0
3419 1 4.9683147841478235 41.871098056603955 21.77369593517238 1 -1 0
3508 1 12.891338635926418 6.128328516660884 23.929545377359695 0 0 1
926 1 3.341473742513561 36.97005246734353 3.2697009711562703 1 1 0
3331 1 16.10724008924401 18.13649151608738 6.868659961575276 0 0 0
942 1 0.6136525976892424 22.064947093089945 17.343431727548214 0 -1 1
809 1 1.8275702987554014 36.834394296014764 25.278113380852158 0 0 1
2947 1 0.32737793083136485 23.902914271593257 4.285208345704049 0 0 0
3977 1 6.153893913221266 33.37175806424973 24.398778578874726 0 0 0
346 1 1.0051706188978375 42.18728720498783 3.037661932096217 0 0 0
1202 1 2.4515849253154594 39.77478818404086 2.8221429009848777 -1 1 2
3844 1 10.061139272692817 41.79397277623349 4.1646184604849745 2 0 -1
853 1 4.252158962883734 2.2333139470430243 1.4697383369930923 0 0 1
1649 1 14.257372600306724 45.59131607681745 23.55591889140778 0 0 0
4286 1 4.02009228053653 15.145432345997687 12.789681210748837 0 1 0
4492 1 4.903149299623025 47.92839799018363 3.3831957964062833 1 0 2
2756 1 7.470381452544466 45.0451762791733 4.425693220655029 0 0 1
4606 1 9.781311039984523 47.77387453133828 4.301786973954778 0 0 1
419 1 10.597027348211958 47.89545320756407 18.421292598184674 0 0 -1
716 1 13.097292285970232 43.206900649517394 2.05518180706331 1 0 0
1718 1 0.6687848338232038 35.63461012973341 9.236049120777558 0 -1 0
4180 1 1.5018558078307027 50.13515618623173 4.046820237389388 1 -1 2
764 1 1.470390462758385 40.26902818852375 12.289162940344646 1 1 0
3914 1 7.602718714887611 1.0919109487788685 4.2627465206703015 1 1 0
4425 1 12.578670430692123 47.001975723391965 3.791841633407089 0 0 2
557 1 3.0650153094588126 29.841647541797364 22.362657648819276 0 0 -1
1764 1 1.1020036531973736 3.1026707715043815 21.023865384247145 0 0 0
965 1 7.298985145321252 0.3067650219860738 1.7487007862818544 0 1 1
290 1 12.000391700213802 49.92580867976582 1.0529477953155846 1 -2 -1
169 1 1.141396459586059 3.9189197380040044 4.827926116068904 0 -1 1
4380 1 4.74439301798513 2.292543222646981 5.407624141317379 1 0 1
1834 1 10.688035977708894 3.875815098902433 3.9712984651565435 1 1 0
3282 1 15.146109077697387 2.794354177433118 1.5881358568890531 0 1 0
3774 1 14.02216578695147 0.2776883770421408 2.781241274512645 0 -1 0
3777 1 13.697355874286284 2.88806036493375 23.061000592274986 0 1 0
4047 1 3.543460749753273 7.833068401711275 2.8433886913387147 1 1 1
2486 1 8.430723305240175 7.798578570052341 4.348994517594872 0 0 1
2095 1 10.733610931061117 6.542300416007277 5.395438651809191 0 0 -1
2531 1 17.07361935318338 33.964795387023884 3.3062633540315907 0 0 1
4550 1 15.290234514865212 8.32883365011853 24.415276867109117 1 1 0
4130 1 2.2290493013110813 9.771120539977511 7.6620783392280165 1 -1 0
792 1 7.1515583053428715 9.894656365286597 8.035550663290177 0 0 0
3696 1 3.3502299557061224 10.982755906123638 5.487655141843169 -1 0 1
664 1 12.232310698044374 9.007536587076823 5.45300904485352 0 0 2
383 1 13.510806150252902 4.494315043013647 3.2676477262754653 -1 1 0
2998 1 12.879290243012628 5.93585733880029 0.6607346387919366 -1 -1 0
3843 1 16.710072680103416 50.85765089555932 24.062656403850358 1 0 0
2930 1 1.9960506176593982 43.685778730723854 21.768997612843172 1 -1 0
4460 1 6.093769579552535 11.020606805407086 4.324369582473753 -1 0 1
3675 1 8.82152840487543 8.652309576901933 1.7906480790610653 1 -1 1
4229 1 0.6431645539710634 38.31615934659394 3.9014022324299615 0 -2 0
1769 1 9.363601341980711 43.919525328677835 23.092549637048787 0 0 0
2289 1 4.368606369074702 31.236498374920863 24.975984499209897 1 0 0
2199 1 4.646111508657603 13.643875772941493 5.572492611656769 1 0 1
886 1 4.612986657311828 15.922688461642597 2.350006164562315 0 1 0
3906 1 6.483514855220995 14.049005924025472 3.4898836867475453 0 1 1
1748 1 9.692394587733693 14.907071418193835 0.8633843413736115 1 0 -1
722 1 1.6534176467747914 44.15879486035213 15.427499197703767 -1 0 0
3101 1 3.909689579846394 36.39482829395665 19.757394697906342 0 -1 0
3119 1 16.47746401265729 12.512425079330693 3.7436481519731415 -1 1 1
1653 1 2.959835338512676 16.01411111398601 4.678092058897791 0 0 0
1467 1 8.884797766892188 17.520268918336825 3.4765292605865357 0 0 1
1108 1 6.473193169699308 26.392263798635827 2.2768533148439505 1 0 1
3964 1 3.9709855000309577 24.03895826700499 4.591736382401953 0 0 0
2078 1 6.61375519977193 18.114688630366153 1.9466150538534688 0 -1 1
2215 1 6.108673411614116 20.400413610108487 3.589571259164796 0 0 0
3023 1 10.331073102959081 20.03038582133713 4.189798655989398 0 -1 2
734 1 13.762726878183019 17.560135104033453 5.131259336348299 0 0 1
3149 1 1.5497800565961133 31.36814060292535 11.206737264415363 0 -2 0
1063 1 1.0999619860833696 21.069102896885905 0.7295503047308237 0 0 0
1174 1 6.32521359938714 25.893472090197807 4.976232931777607 0 0 2
3511 1 8.579556448359133 22.00459666698724 2.8065741603966337 1 1 0
2910 1 12.017661495536606 21.653786617060835 6.647486577116281 0 -1 1
1865 1 14.881461432183725 22.555464938513246 5.273691736430654 1 0 0
3300 1 17.622493998550514 22.639107496695786 5.04850432462786 0 1 1
3377 1 3.952798959111634 26.536098787292055 0.22437813937379575 1 0 0
3908 1 2.0734035906131862 24.977080906731132 6.205599338577388 1 -1 0
1137 1 5.839647401873065 20.12028881197339 6.3083327629031265 0 -1 1
3036 1 10.490185700192173 25.70236382327416 2.9188186801186395 0 0 1
2314 1 12.984448441324899 24.46359887820004 3.5707734158905597 0 -2 -1
1259 1 0.4520780805057303 46.827609957711545 15.039993717252543 1 -2 1
137 1 1.5320713163574269 6.9466138892395595 7.587230835144761 0 -1 2
3033 1 15.763762866251806 11.427268432902618 7.4531232979207145 1 0 1
2572 1 7.739692026166371 30.789726736848618 5.066816993172554 -1 0 0
2724 1 9.999354737267941 31.289056009937195 7.051788162577479 0 -1 0
3710 1 9.909179323803004 27.60224595033033 7.736874885742375 1 -1 0
3363 1 14.125134109708542 28.26788841832996 5.0305210871009605 1 -1 1
2672 1 5.571652981720333 30.364632560473783 6.99279170528631 0 0 1
894 1 6.100704050109921 33.40697837643793 8.729219933544432 0 0 0
2545 1 15.1385676572616 33.70964385289791 5.9376676622484945 0 -1 1
317 1 11.431707893691218 29.74823824985849 8.83535955058551 0 1 0
3252 1 13.508516353370393 30.665914702939077 6.136463819753374 0 1 0
417 1 2.97583652608931 32.087865435053985 6.956263231044817 -1 0 0
3173 1 1.228708482862831 35.33804160281599 4.405082857784859 2 0 0
541 1 12.668442660660283 35.451041551930935 2.924165326707317 0 -1 0
3239 1 8.870545034589668 34.80549020764233 4.437560544685234 0 -1 0
4394 1 14.933426515549053 34.56849258495079 1.451087786285636 0 0 0
2328 1 14.985620222818865 3.024129772377477 5.604659692214325 0 1 2
481 1 -0.003004510016175882 1.4723523013386077 3.5964165784801643 0 1 0
104 1 4.280838282053005 40.05960716870998 4.979823972416374 0 0 -1
1485 1 6.085149745804452 41.388254462694036 3.1115253827650644 -1 1 2
1130 1 10.854184367489351 37.284998357312105 3.944797468238912 0 0 0
249 1 16.522998852712274 10.248399944936821 5.287291253494225 0 0 0
2101 1 12.869062906163439 36.649241126038035 8.88724281516257 0 0 1
3105 1 14.674028689514879 36.336310111509846 4.785467463641216 0 1 1
87 1 14.224290105778433 38.44496993935082 6.636029859800836 -1 1 1
270 1 3.8112248748755975 41.44119041901714 7.195727142176176 1 0 0
4150 1 7.468745033408701 42.041682694125804 0.7266005832928227 2 0 1
2076 1 13.316211204667797 40.98243451245198 3.5937219698875977 0 -1 1
1224 1 0.37667624884747625 13.8498004840963 21.91704291000057 0 0 1
1739 1 2.804882930715154 46.32683906789271 4.2588653020254 0 -1 1
116 1 11.116661342230794 28.34033275162008 3.491603831083899 0 1 0
867 1 4.5587769023141345 43.5354462493993 4.694133115890372 0 0 1
1602 1 5.878987018972133 43.43480219786076 7.8123916788421575 1 0 0
2963 1 7.550306799514794 42.194349065845984 5.508122681943406 0 0 0
779 1 9.902959690324401 44.79957450602443 5.205424142948115 0 -1 0
255 1 15.709224142243057 41.11442333047219 5.101060791176481 0 -1 0
1438 1 1.924980164681335 48.201069477218745 2.172056108332339 1 0 1
1064 1 7.384975715721283 49.38027623762129 4.460498332311065 0 -1 0
1294 1 11.550042128529636 49.27312709594832 5.688134580832787 -1 0 1
2879 1 14.346562909776557 45.47178566254062 5.796183640916366 1 0 1
2441 1 17.25235856296351 42.92533017365647 3.6404346144374595 0 -2 1
1422 1 3.824988169083095 0.1507041843655239 3.6602476598314384 1 1 1
870 1 13.136607933516027 47.13241040256879 0.7097025604200377 0 0 0
4390 1 9.826237721945446 0.17543706843360163 5.848445737173551 1 0 0
4560 1 7.769513675483811 4.149749840015122 3.5578134661219445 1 2 0
1721 1 13.821909322671978 49.11431901113168 7.551283119412628 -1 0 0
2982 1 2.6368418199029646 3.168636392211456 7.420901021134886 0 0 0
4320 1 6.867320006494473 4.327757417703441 6.229252215343524 1 -1 1
1231 1 11.598360486996565 2.2794835155185735 6.1327920741641515 -1 1 1
1220 1 7.827562123746467 5.970382552600919 8.540010130989579 1 2 -1
3949 1 14.210319408000995 0.44470294609622607 5.339520084932414 -1 0 0
3499 1 5.018388696386409 4.098784652856484 9.21613818279977 1 0 -1
3758 1 5.278157991478564 8.68767808098787 6.383835790953884 1 1 0
4308 1 9.181540315509253 8.134157220390572 7.515698534131408 0 0 1
2301 1 11.251246346101073 4.800085503151194 7.68141664526119 0 1 1
1851 1 14.053695791129476 4.735318905984391 8.324679035246833 0 1 1
3717 1 0.09784144518333521 8.430140777982174 15.41488161678919 2 -1 0
1386 1 9.053282970184554 10.639890845305873 5.329400594946438 0 2 1
3366 1 10.800538946726379 9.631700412177654 9.44450199937169 0 -1 -1
3588 1 14.364568412120034 8.832910375522406 8.914324856274733 0 0 0
1707 1 15.431739600897235 6.086464040394995 4.52093138304013 1 1 0
604 1 15.324812876601987 6.95846592353535 7.306200540154963 0 0 -1
345 1 2.5360660595570463 11.98399701559722 10.108458378565187 -1 0 -1
1966 1 17.030136094975113 44.23388627632326 22.509790631157955 0 0 0
3394 1 4.067746489481769 9.753253503103664 9.620202494923948 0 1 0
2725 1 12.51304040638839 10.78751423753726 7.772483599111128 0 0 1
1633 1 7.011718685628175 12.01559176416694 24.292654208895527 0 0 -1
864 1 17.556601277519423 20.597578961343523 12.797867495805333 1 1 1
548 1 2.2016947178961135 14.096044077614872 7.858176474468633 1 0 0
3504 1 9.459340360338583 11.65353827828243 10.137057349050696 0 -1 0
3179 1 3.875076931501895 17.447400765216337 7.202059132235543 1 0 1
3671 1 8.688574555553146 12.561993146161983 7.580814976662799 1 1 -1
3056 1 11.468002508561224 13.368044972071917 7.723344453216657 0 1 0
3733 1 12.240894821517289 13.875060207447861 5.086234670566767 1 1 0
1131 1 6.142752006167591 30.276105461566207 0.8385114906707093 0 -1 1
2376 1 16.898167825208933 0.7681365969239387 21.466020530970766 0 1 0
4317 1 3.1545719251376902 19.194781665684186 4.460942167235753 1 0 0
958 1 9.55049374461407 14.452406012194285 3.961519359246653 0 1 0
830 1 14.840456942861719 14.485715527998835 4.931588448571925 0 -1 1
3396 1 15.151071347813668 14.110155003671794 7.7587952126577076 1 1 0
1086 1 16.295250492778134 49.67706320771545 5.580475563200723 -1 -1 1
1390 1 1.0792079451338765 17.99730510915062 7.1916958300204294 1 0 1
1406 1 11.664012935682814 18.71173318610829 7.1446534359933045 0 1 1
595 1 13.614596590152342 19.324939259376823 8.924199547239523 0 0 0
1522 1 15.791092228544064 21.278279922263838 7.712072354745859 0 1 2
3448 1 3.156539240477356 21.885712781820217 6.77863865926793 1 -1 1
2359 1 6.044445143819708 18.40500838030536 8.656365414814998 0 -1 1
1011 1 6.80950129766817 22.900744316760914 11.518005855155883 0 0 1
3334 1 10.038505683367191 23.228716349797573 7.1253017467037925 0 1 1
1177 1 8.947802606440165 18.618908795535862 6.6941004039195 -1 0 0
4471 1 13.605093045073723 23.246413551206224 8.595479446233972 0 1 1
2158 1 2.9536772966266946 10.468632233094526 24.917398226086878 0 1 -1
710 1 4.45824880926446 25.72932018058947 7.944154535298274 0 0 2
2254 1 7.097005081101428 24.507273976068443 9.46216199689288 0 0 -1
4171 1 12.03304665757723 25.766731240867713 7.704730274788337 0 0 0
4428 1 9.307240311446161 44.5651698127467 20.272281473711768 1 -1 0
4334 1 1.5652112900830546 27.894554198339126 8.160474779079538 1 1 0
246 1 5.932552278311872 23.525513438120925 7.046684592989274 0 0 0
3203 1 7.847732806100846 27.242121390904927 9.872985780331161 1 0 1
1443 1 13.344898333126011 27.163503561998798 11.142863733122528 0 0 2
1070 1 14.182910047564686 26.982158554353166 8.397120763510564 -1 0 0
3745 1 15.646080569253472 30.440514021341276 11.359123247603282 0 0 -1
2482 1 1.833738784501004 27.97210770028537 5.236022313421638 1 -1 1
4045 1 4.526008643829331 28.832029607888597 9.483091597386661 1 0 0
799 1 9.009758688628958 32.76478438644323 11.938541219000594 0 0 0
4225 1 12.845162311349121 33.241585289158735 7.796043134820428 0 0 1
1511 1 2.5145420698978556 34.64114140758986 6.911501955699727 1 0 1
1385 1 4.434288379832081 31.735913033170732 10.07179107484706 0 1 0
3622 1 11.296429430683311 36.1677464188099 6.591558331236154 2 0 0
1448 1 0.44350156351179537 27.458876251525666 24.718231889653573 0 0 1
1779 1 17.275905680639845 36.80284913217252 3.9458404882859046 1 -2 0
2616 1 7.913551559080387 49.39292980987975 24.388096344182387 1 -1 -1
3860 1 10.375233036333633 50.9559943560064 24.601443752690155 -1 -1 1
287 1 16.435826483930455 42.936478806110564 0.8257395134340509 1 -1 0
1933 1 7.646917867413799 37.56005384123393 5.674137661585222 0 0 0
3445 1 3.0901592144849985 37.30489949811663 7.616465766754288 0 0 0
1670 1 8.787468663100324 34.738544823421584 9.856694459480714 1 0 -1
2166 1 11.652622759716666 39.07167962035198 9.871495900935251 0 0 0
3787 1 16.513366519789074 47.79010408940362 24.46214673113658 0 0 0
785 1 2.2000578514156746 43.45388025134405 6.815677633939355 0 -1 0
1806 1 1.30701938477555 39.36516980188108 6.504327407503323 0 -1 1
924 1 7.99714947230037 41.09750590369073 8.229758963993898 0 -1 1
1730 1 9.13137720831551 39.272706584609864 3.68516422402411 0 0 0
1731 1 10.928076028195303 40.94215910475953 7.993726058016925 -1 -1 1
1677 1 12.004452086894027 39.29848127074665 5.6590409685486796 1 0 0
93 1 16.5660294800671 32.81306988390585 10.278685570099366 0 0 0
2857 1 15.768037727276685 47.18462738469375 1.7565012940316087 0 1 1
3249 1 9.730476606373864 1.4982988032673812 22.023737614954168 0 1 0
2883 1 8.85025559371159 44.37749093110974 7.710518375664169 -1 0 0
1994 1 13.938407813722561 41.22802773633157 7.950837717927801 1 0 0
2371 1 1.0944293481267768 48.998292560889325 6.5497150656904815 1 0 1
4530 1 5.530741499277962 46.34955451258901 6.111943453797852 0 -1 1
1300 1 10.505109660508925 48.05382762276489 7.823400497925458 0 0 1
1752 1 12.224871009728476 45.8909061278864 7.288740840463865 1 0 -1
173 1 13.97817998228205 43.96300687390198 9.71740762222092 0 0 -1
2148 1 0.8996416428778833 50.090440581765186 9.4862661036054 2 0 0
3371 1 5.039040673440486 49.8143273403576 1.4967070259738982 1 0 -1
1164 1 0.6193939773296021 0.8524417558632692 7.4247405614334525 0 1 1
835 1 7.6601155233136256 50.596437855284705 7.710918305690581 0 -1 0
1668 1 12.601368249343096 0.20986275068361082 8.466314432937878 0 0 0
1424 1 13.603684353864434 46.80474916999992 9.629308545876683 -1 -1 0
711 1 17.353604132014357 41.274711961277205 14.976435291085123 0 -1 1
3625 1 7.919656016574258 12.480521786159791 0.9277759467559124 1 1 -1
4358 1 2.198831181595585 1.9423991111308614 10.961517830740135 1 0 1
3229 1 8.789877831226239 2.988471939014654 11.020682061976384 0 0 -1
2284 1 9.271494267355646 49.142695536858355 9.975095886529402 0 0 0
4238 1 7.0262846123437015 2.2415940161074723 8.537140215649961 1 1 0
2014 1 3.779041744087516 4.174081400884442 11.86349324104716 0 0 0
1507 1 8.234657944279872 9.532740663148903 11.702853123710003 0 0 0
3984 1 14.810565932155574 1.9587288266626115 8.611809857288542 0 1 0
794 1 5.982704869143822 6.809162421285645 4.350876488913446 -1 0 0
3740 1 6.212697298708921 12.250610196102963 10.028929637295754 0 1 0
3608 1 9.894412680054765 11.266552203742679 13.46956290773212 1 0 -1
739 1 13.202655037935234 8.707601369978637 11.481533445459661 0 0 0
1253 1 5.995553847271463 50.63534075186954 22.744473908337575 0 -1 1
3985 1 10.06761746185986 1.0259465333949356 19.279979715177333 0 0 -1
3862 1 8.953270128214253 7.598408466550807 24.312812047920136 1 0 1
1389 1 3.7258751130062113 7.56035284308561 11.21249940561584 1 0 0
782 1 8.121381088105116 14.796586567991753 12.789198667436125 0 0 1
3666 1 5.571997938204036 12.837837104087773 12.815360450467583 1 1 0
717 1 10.828822035856692 13.75135587259787 11.391263348015952 -1 0 0
3691 1 14.17966484669299 10.65305225187497 12.642460460527449 2 1 0
2019 1 16.604461951461342 9.71686509796957 12.672509288550724 -1 1 1
1908 1 16.992757262810503 9.830693543960576 9.856203353053173 1 0 0
3283 1 6.162812561777924 14.055638344968797 7.831668769879636 1 1 -1
1305 1 8.643777960940547 17.665448260532248 14.060323611077498 1 0 1
1246 1 13.081095107223973 14.924288149165273 9.387636954611944 0 2 0
3610 1 13.781377643349558 13.29534248587242 11.365947999540465 0 0 1
4339 1 16.77887276173756 12.539632887890885 10.933192986313623 1 0 0
1460 1 1.596304135571318 15.94613442695072 11.418921112871137 0 0 -1
3992 1 4.130308156620652 15.49304033469084 9.352666468062765 1 -1 1
1461 1 9.276435640328813 16.167010677965365 10.412930970569484 0 1 0
1810 1 11.819225704964833 17.22830718665978 9.997197732982006 1 1 -1
3145 1 14.515258592520807 18.160119261816465 12.148320929435204 0 -1 0
3736 1 0.029997968595573327 4.225420296606179 18.40884107902337 2 -1 -1
3602 1 10.130312928906143 48.61205947864526 22.34446141717971 1 0 1
3130 1 7.719419036777838 16.357106914133567 8.387332847636532 1 0 1
2917 1 7.925259921860089 21.14079037958848 7.856095532154248 1 0 1
2454 1 13.313799085764497 21.322238552774117 10.962787015351722 -1 -1 1
2665 1 3.2136560232099853 21.39750766760663 11.808880928101571 0 0 1
114 1 4.2578777459737465 23.90555776420659 13.017662201993685 0 -1 0
4257 1 4.201719408762584 21.743932133400204 9.291840241027744 1 -2 0
1766 1 10.66016055114741 21.522527100027936 11.73165143379085 1 1 -1
3656 1 8.239188949246504 20.903848402023094 10.83650847794554 0 0 -1
4101 1 15.562292593075393 41.123214393786256 22.46164621374344 2 0 0
3414 1 13.793047244234284 24.30540848988608 11.775002266763883 0 1 1
3368 1 7.822750219759844 24.84402688233474 13.36807342743482 0 1 0
2033 1 10.119912221498081 22.632181581813253 14.15669283240465 1 1 0
1113 1 6.075481466389488 26.938606190654202 14.814114976699008 1 0 2
677 1 10.323759024406897 24.30119655196798 10.117323522314065 -1 1 1
3735 1 4.81915858617598 26.2336117787265 10.796184627116862 1 -1 1
2461 1 8.237377536562052 27.391498432754986 12.585429135757249 -1 1 0
222 1 9.505739091543305 30.13530974828649 16.11429599780604 0 1 0
3572 1 10.956705545663237 27.910195154692477 12.784881869659326 1 -1 0
143 1 16.097383828453395 27.54464023300327 11.92232132572468 0 0 0
4522 1 12.741096897820354 36.01387166998233 23.93251711029822 0 0 0
2976 1 3.428985329562171 33.74900989318137 12.321234067583895 0 0 0
1724 1 5.87147165066941 28.977756157602897 12.42516399942208 0 -1 -1
2675 1 7.104424306508979 30.896603076985873 11.008200930631508 0 0 2
572 1 7.932844571867808 34.47085495643214 13.865490785071982 0 0 0
3110 1 7.483443948267 29.6353570194669 8.744748535913407 0 -1 0
4055 1 10.69989829382346 30.534053811793964 11.430855790625564 0 -1 1
1785 1 13.569146569206763 33.56240165207948 10.441201768801207 0 0 0
3402 1 6.804362035218672 43.09720285391726 23.87786726431771 1 -1 0
577 1 5.41534370152411 35.47154850184269 11.248102546761581 0 0 1
2105 1 3.665764647946561 33.808141735821785 15.139538969146244 0 0 1
2235 1 9.66533634772306 33.832220821381405 7.389486679114188 0 2 0
2321 1 17.347774565891246 5.415358938245809 25.12218517460512 1 1 0
4414 1 4.764226279624952 37.68531718984054 9.684145064072885 2 0 0
2334 1 7.335118494098899 38.38288727257484 8.366554713080152 1 0 0
2621 1 3.9901683773313756 38.83491597141904 12.133356556471808 0 0 -1
2719 1 9.300295017576971 41.18079296615979 11.012047858515393 0 1 0
1510 1 9.359938850828446 37.60371224706315 10.391348277911701 0 -1 1
3513 1 15.72279973222409 35.73951330367586 9.529107104588826 0 1 0
2802 1 6.872732596391918 1.8607501059423854 21.495320512753626 1 0 0
319 1 15.229625037332317 25.6888954053733 5.1539781797521655 0 0 0
4046 1 15.05097678886834 30.519139699047997 23.00657159789291 0 0 0
1393 1 4.168646674898807 41.00316476742743 9.942492851466575 -1 -1 0
3891 1 13.70868237451863 39.27938266868623 11.770201362160583 1 -1 1
2680 1 15.45603275810356 37.29352611483845 11.989213971897277 0 0 1
3478 1 15.016814240574531 45.25388153080049 19.52372895062279 0 -1 -1
3934 1 7.850820562184523 46.58823301027749 19.394071231545638 1 0 0
333 1 6.399753947813517 42.28432301082544 10.3927860828884 1 -1 0
2308 1 2.966523126809739 44.533651704462805 9.089579739138063 0 0 0
2028 1 11.03345621038694 43.75715252277507 9.234107582738655 0 0 -1
3159 1 5.551712014771496 45.99464022956869 9.697597285508731 -1 -1 1
4356 1 11.592779725202695 43.4804577327124 12.68404775187179 0 -1 0
2430 1 3.3097391683380946 48.08116797133345 9.553584350245712 -1 -1 -1
2645 1 0.3242287368332822 -0.033735680410745594 18.957342015000386 1 0 1
2470 1 7.520049287080552 46.825779476538976 7.854360525445574 1 -1 0
848 1 4.201924360061307 1.0506471080676978 8.99003589012773 0 1 0
1524 1 6.175433990153187 0.2268911855775142 10.860257110240108 1 -1 -1
1135 1 9.02269743785913 44.46729110966108 11.340661098115538 0 1 1
4259 1 15.483043254435085 43.29352084969393 7.079845993835959 0 0 1
3962 1 13.486169092361596 45.24754784492094 13.52921945729247 1 0 0
1661 1 5.251577599848239 50.668153290009435 6.572736528257993 0 0 -1
2167 1 9.336676868141756 45.66427313934427 14.226165488579147 1 0 -1
4147 1 9.052135206503744 0.28575709940452326 11.52420291305561 0 1 1
113 1 16.293321605369197 47.622246972502275 9.919071300098599 0 0 1
1799 1 11.862217517067192 47.37679967813974 11.91746574864302 1 -2 0
3886 1 16.05001413225692 19.14846402006667 24.963278011589978 1 0 0
1058 1 6.220682948927304 3.0035501999186716 12.733686937946931 0 0 2
1504 1 12.71147199732794 49.86936608038203 12.720446377775604 0 -1 1
2643 1 11.760005765232847 0.7699800080416854 10.992882113659167 -1 -1 1
3273 1 1.0287444901968266 2.21095186992828 14.936670506655332 1 0 0
3778 1 7.092190878909549 7.106078867939644 17.199376866631486 1 1 0
1927 1 7.564119651208666 5.322610239538363 12.891824212905707 1 1 0
4528 1 10.176148809703832 5.305572877712691 10.078632896078096 1 2 0
2280 1 13.721789476983114 3.7070589261680595 14.309998934396589 1 0 0
3426 1 16.006654657160247 1.940170872481172 13.54136965531342 0 1 0
940 1 11.871336367312168 3.568990733603781 11.89346376105564 -1 0 0
208 1 6.7749452394844445 7.253288222464393 11.085714350398058 0 1 -1
1272 1 8.162365411454607 7.846376466155568 14.749943238608498 -1 1 0
260 1 12.301503266924362 10.48719650051077 14.660634652396547 0 -1 -1
1071 1 10.64202221916205 7.667938282970682 11.71280211718797 -1 0 1
4141 1 2.031577687329336 21.66309705362302 23.310389602051632 1 0 0
1410 1 2.669022289495044 9.036741077228212 16.10819752057482 0 -1 1
1004 1 3.9498054363640716 8.936981796458747 13.37804339124243 1 -1 0
1397 1 6.515959229996891 10.120406357695567 13.940994207873318 0 -1 1
2721 1 9.964258901236741 11.666046345291436 18.071001506919746 1 1 1
920 1 11.442896626841733 15.700398337828723 16.417419013691227 0 1 1
1708 1 13.86516384697364 12.006784736897393 16.17081171245253 0 0 0
1155 1 3.9068683196644347 48.33531235767808 7.097133658210282 1 0 1
1195 1 5.073011378377721 10.648992613152984 19.19234341232103 -1 1 0
1495 1 9.436884543891237 13.661935043469205 14.919121669100395 -1 0 0
3224 1 11.329530175524646 15.741372967757536 13.485170112875874 0 0 0
261 1 14.150258612394131 15.477503402061792 13.09373996103096 0 1 0
3369 1 6.110308678696763 14.350085391698089 15.502829233592115 2 -1 0
531 1 4.245296203352363 17.64590725663086 14.281704499575914 1 -2 0
3732 1 5.901479677071498 17.174066084583487 16.50557207290911 1 1 0
2783 1 10.937635610483813 19.022864415761042 13.219308259320725 1 0 1
321 1 16.74911880725259 19.0937759976068 20.147973895801695 0 1 -1
1923 1 4.393626166757904 18.024863914648876 11.285016273331863 1 1 0
3190 1 1.6450741536148556 18.051810789369675 15.535411620693298 2 1 0
367 1 7.584344069346532 18.55974307522293 11.687341420479605 -1 0 -1
3210 1 8.125716415385817 20.97108861881932 14.067941858020404 1 0 1
2583 1 17.33227172911736 17.6848943534342 12.758939608237117 1 0 0
4498 1 14.773884793888017 21.09553906848118 13.490886551495352 1 0 1
3697 1 2.083141574985162 23.403331998067472 15.282645074575079 1 0 0
1976 1 5.234927384520436 20.327373319175496 13.207614778743094 1 0 1
2327 1 8.292724105820572 18.804148653712957 16.60317434539423 1 0 0
2901 1 12.288203727398225 22.716349409587103 16.41846489619049 1 1 0
4165 1 15.024047644094034 23.541268171072385 15.379715361131332 1 0 1
4352 1 1.2865577143049611 6.00534755344403 11.503431954038522 1 -1 0
4170 1 3.2725736458325945 26.066504113564704 14.844869775476713 1 -1 1
3573 1 6.513596736898895 23.154128032782026 15.724926957665234 1 1 -1
3990 1 4.258571256958618 21.619263822897288 15.650909724029736 1 0 0
1617 1 13.471717312813192 26.14369249698102 14.747133527024626 0 1 0