
# Create simulation box of size 50 x 50 x 50 Angstrom
#
lattice	            sc 1
Lattice spacing in x,y,z = 1.0000000 1.0000000 1.0000000
region 	            all block 0 ${X} ${YZ_LO} ${YZ_HI} ${YZ_LO} ${YZ_HI} units box
region 	            all block 0 53.4 ${YZ_LO} ${YZ_HI} ${YZ_LO} ${YZ_HI} units box
region 	            all block 0 53.4 -0.04220816127328675.0 ${YZ_HI} ${YZ_LO} ${YZ_HI} units box
region 	            all block 0 53.4 -0.04220816127328675.0 50.949328161273556.0 ${YZ_LO} ${YZ_HI} units box
region 	            all block 0 53.4 -0.04220816127328675.0 50.949328161273556.0 -0.04220816127328675.0 ${YZ_HI} units box
region 	            all block 0 53.4 -0.04220816127328675.0 50.949328161273556.0 -0.04220816127328675.0 50.949328161273556.0 units box
create_box          1 all
Created orthogonal box = (0.0000000 -0.042208161 -0.042208161) to (53.400000 50.949328 50.949328)
  3 by 1 by 2 MPI processor grid

# fill box with 4175 randomly distributed atoms
#
create_atoms        1 random 4608 63782 all
Created 4608 atoms
  create_atoms CPU = 0.001 seconds
mass                1 18.015

# Define potential
#
pair_style          sw
pair_coeff          * * /data/emrosky-sim/Freezing_Simulations/Melting/MLmW_fancy/ML_mW.sw mW
Reading sw potential file /data/emrosky-sim/Freezing_Simulations/Melting/MLmW_fancy/ML_mW.sw with DATE: 2019-02-27

# Run minimization
#
minimize            1.0e-8 1.0e-8 10000 1000
WARNING: Using 'neigh_modify every 1 delay 0 check yes' setting during minimization (../min.cpp:187)
Neighbor list info ...
  update every 1 steps, delay 0 steps, check yes
  max neighbors/atom: 2000, page size: 100000
  master list distance cutoff = 6.0032907
  ghost atom cutoff = 6.0032907
  binsize = 3.0016454, bins = 18 17 17
  1 neighbor lists, perpetual/occasional/extra = 1 0 0
  (1) pair sw, perpetual
      attributes: full, newton on
      pair build: full/bin/atomonly
      stencil: full/bin/3d
      bin: standard
Per MPI rank memory allocation (min/avg/max) = 4.234 | 4.248 | 4.253 Mbytes
Step Temp E_pair E_mol TotEng Press 
       0            0    7232473.5            0    7232473.5    4950927.5 
     668            0   -49902.987            0   -49902.987   -538.23011 
Loop time of 1.24568 on 6 procs for 668 steps with 4608 atoms

98.3% CPU use with 6 MPI tasks x no OpenMP threads

Minimization stats:
  Stopping criterion = max force evaluations
  Energy initial, next-to-last, final = 
      7232473.47700837  -49902.7588167982  -49902.9865102692
  Force two-norm initial, final = 1.6619107e+08 3.9957205
  Force max component initial, final = 88410192.0 1.0851206
  Final line search alpha, max atom move = 0.073851571 0.08013786
  Iterations, force evaluations = 668 1000

MPI task timing breakdown:
Section |  min time  |  avg time  |  max time  |%varavg| %total
---------------------------------------------------------------
Pair    | 1.0118     | 1.0768     | 1.1306     |   4.4 | 86.44
Neigh   | 0.028687   | 0.029396   | 0.030069   |   0.3 |  2.36
Comm    | 0.06375    | 0.11783    | 0.18305    |  13.4 |  9.46
Output  | 0          | 0          | 0          |   0.0 |  0.00
Modify  | 0          | 0          | 0          |   0.0 |  0.00
Other   |            | 0.02165    |            |       |  1.74

Nlocal:        768.000 ave         786 max         752 min
Histogram: 1 0 0 2 0 2 0 0 0 1
Nghost:        1577.17 ave        1594 max        1555 min
Histogram: 1 0 0 0 1 1 1 1 0 1
Neighs:        0.00000 ave           0 max           0 min
Histogram: 6 0 0 0 0 0 0 0 0 0
FullNghs:      21877.0 ave       22911 max       21316 min
Histogram: 2 0 0 3 0 0 0 0 0 1

Total # of neighbors = 131262
Ave neighs/atom = 28.485677
Neighbor list builds = 28
Dangerous builds = 0

# Add velocity/set timestep
#
velocity            all create ${TEMP} 120598 rot yes dist gaussian
velocity            all create 291 120598 rot yes dist gaussian
timestep            5.0

# Define output
#
compute	            1 all msd
thermo	            100
thermo_style        custom step temp press vol etotal ke pe c_1[4] density

# Neighbor lists
#
neigh_modify        delay 0 every 1 check yes

# Set fixes
#
fix                 1 all momentum 10 linear 1 1 1 rescale
fix                 2 all nve
fix                 3 all temp/csvr ${TEMP} ${TEMP} 500.0 928347
fix                 3 all temp/csvr 291 ${TEMP} 500.0 928347
fix                 3 all temp/csvr 291 291 500.0 928347
fix                 4 all press/berendsen iso ${PRES} ${PRES} 1000.0 modulus 20000
fix                 4 all press/berendsen iso -500 ${PRES} 1000.0 modulus 20000
fix                 4 all press/berendsen iso -500 -500 1000.0 modulus 20000

# Run 0.5 ns equilibration
#
dump                1 all custom 1000 eq.${NAME}.dump id type x y z vx vy vz
dump                1 all custom 1000 eq.liq_291K_-500atm_ML.dump id type x y z vx vy vz
run                 100000
Per MPI rank memory allocation (min/avg/max) = 3.485 | 3.499 | 3.503 Mbytes
Step Temp Press Volume TotEng KinEng PotEng c_1[4] Density 
     668          291    777.42151     138847.3   -45906.802    3996.1842   -49902.987 1.9455111e-33   0.99279217 
     700    149.17227   -541.32913     139714.3   -45292.642    2048.5219   -47341.164   0.18945734   0.98663144 
     800    206.06444   -558.46637    139714.55   -43914.739    2829.7989   -46744.538    0.6933703   0.98662962 
     900    237.39563   -463.79748    140061.28   -43069.065    3260.0573   -46329.123    1.2853385   0.98418716 
    1000    254.83905   -480.35831     140256.4   -42497.693    3499.6007   -45997.294    2.0453685   0.98281802 
    1100    270.36197   -407.39399     140603.9   -42066.532    3712.7706   -45779.303    2.8191205   0.98038903 
    1200    280.46806   -520.63568     140564.4   -41800.043    3851.5535   -45651.596    3.7811006    0.9806645 
    1300     282.8151   -289.40478     140587.7   -41527.794    3883.7844   -45411.578    4.7168995   0.98050194 
    1400    281.47542   -435.35283    140921.21   -41422.484    3865.3871   -45287.871    5.6676178    0.9781815 
    1500    285.29125    -378.9214    141074.12   -41280.314    3917.7883   -45198.102    6.7673185   0.97712124 
    1600    291.12489   -528.29796    140956.44   -41237.702    3997.8993   -45235.601    7.8532811   0.97793697 
    1700    290.90339   -401.93844    140886.88   -41235.162    3994.8575   -45230.019      9.05144   0.97841984 
    1800    287.66552   -637.44742    140912.19   -41183.567    3950.3932    -45133.96    10.109011    0.9782441 
    1900     295.9287   -552.01224    140813.33   -41114.572     4063.868    -45178.44    11.129701   0.97893088 
    2000    290.25995   -513.18729    140828.14   -41082.618    3986.0214   -45068.639    12.316098   0.97882794 
    2100    283.98234   -611.19925    140903.36   -41137.138    3899.8136   -45036.951    13.364222    0.9783054 
    2200    286.14891   -606.85267     140910.4   -41111.251    3929.5662   -45040.817    14.580034   0.97825653 
    2300    289.83949   -769.75621    140536.72   -41055.584    3980.2474   -45035.831    15.568334   0.98085767 
    2400    291.13263   -689.46959    140353.31   -41077.171    3998.0055   -45075.177    16.726591   0.98213939 
    2500    290.52556   -744.11264    140237.22    -41043.18     3989.669   -45032.849    17.701485   0.98295242 
    2600    293.70745   -104.64946    140406.32   -40930.519    4033.3646   -44963.884    18.883122    0.9817686 
    2700    291.50146    -510.2552    140556.93   -40963.939    4003.0706   -44967.009    19.974021   0.98071662 
    2800    294.06891   -525.79453    140826.11   -41045.911    4038.3283    -45084.24    20.989962   0.97884205 
    2900    299.17038   -334.86813    140625.66   -41032.857    4108.3847   -45141.242    22.163533   0.98023732 
    3000    290.80275   -316.01825     140682.7   -41012.166    3993.4755   -45005.642    23.208155   0.97983989 
    3100     291.2791   -318.18999    140522.71   -41013.698     4000.017   -45013.715    24.423695   0.98095543 
    3200    291.79838   -589.80263    140444.18   -40994.597    4007.1481   -45001.745    25.633821   0.98150397 
    3300    295.01667   -633.93199       140298   -41016.406    4051.3436   -45067.749    26.959204    0.9825266 
    3400    288.94997   -698.72949    140079.59   -41023.409     3968.032   -44991.441    28.173683   0.98405857 
    3500    298.60587   -671.64744    140210.21   -40937.223    4100.6325   -45037.855    29.516866   0.98314182 
    3600    292.98139   -403.48177    139945.52   -41010.408    4023.3939   -45033.802    30.702956   0.98500126 
    3700    293.62827    -506.7114    140476.62   -40997.452    4032.2773   -45029.729    32.202002   0.98127732 
    3800     290.1922   -439.38304    140595.27   -41001.537    3985.0911   -44986.628     33.45971   0.98044917 
    3900    285.21196   -494.99685    140361.07   -41136.448    3916.6994   -45053.147     34.67556   0.98208514 
    4000    289.39262   -344.34674    140442.79   -41126.038    3974.1107   -45100.148    35.850264   0.98151365 
    4100    296.35773    -447.2115    140358.62   -41039.879    4069.7597   -45109.639    36.960488   0.98210222 
    4200    293.48949   -578.34361    140520.16   -41086.019    4030.3713    -45116.39     37.99013   0.98097327 
    4300    293.26739   -700.99475     140625.9   -41004.719    4027.3214   -45032.041    39.339703    0.9802356 
    4400     294.8078   -528.33403    140223.27   -40991.539    4048.4752   -45040.014    40.422227   0.98305025 
    4500    294.54817   -491.08929    140070.33   -40978.658    4044.9099   -45023.568    41.670187   0.98412358 
    4600    291.66414   -435.38294    140063.98   -41023.887    4005.3047   -45029.191    42.773826   0.98416819 
    4700    286.67587   -330.38188    140112.99   -41054.337    3936.8027    -44991.14    43.910553   0.98382395 
    4800    291.84111   -497.17193     140040.9    -41031.44    4007.7348   -45039.174    44.707605   0.98433038 
    4900    287.75665   -496.52685    140144.51   -41030.545    3951.6446    -44982.19    46.071467   0.98360271 
    5000    289.33416   -300.01317    139960.22   -41094.484     3973.308   -45067.792     46.99739   0.98489786 
    5100    290.70176   -992.92633    140038.65   -41084.857    3992.0887   -45076.945    47.969338   0.98434623 
    5200    289.37627   -701.40985     139984.4   -41154.322    3973.8862   -45128.208    49.059907   0.98472769 
    5300    293.61095   -709.94111    139799.39   -41117.615    4032.0394   -45149.654    49.991195   0.98603087 
    5400     289.5474   -604.11721    139824.32   -41021.707    3976.2363   -44997.944    51.260551   0.98585508 
    5500    293.08842   -507.04677    139833.71   -40983.377    4024.8636    -45008.24    52.789023   0.98578889 
    5600    298.52876   -453.34923    139809.19   -40892.408    4099.5736   -44991.981    53.926664   0.98596176 
    5700    295.32418    -671.0486    139860.21   -41006.488    4055.5665   -45062.055    54.884598   0.98560213 
    5800    296.21406   -757.37417    139657.78   -40942.831    4067.7869   -45010.618    55.902108   0.98703073 
    5900    287.19308   -384.88103    139784.42   -41148.103    3943.9054   -45092.008    56.889515   0.98613648 
    6000    286.79778   -332.70565     139490.5   -41156.965    3938.4769   -45095.442    57.825922   0.98821435 
    6100    296.22897   -504.41062    139659.54   -41076.926    4067.9916   -45144.918    58.967164   0.98701825 
    6200    289.72662   -626.92017     140057.7   -41149.098    3978.6974   -45127.795    60.248394   0.98421233 
    6300    288.53205   -423.69915    140068.42   -41110.037    3962.2928    -45072.33    61.852315   0.98413699 
    6400    290.26799   -772.33154     139973.2   -41148.195    3986.1318   -45134.327    62.693919   0.98480647 
    6500    286.07924   -547.87763     139817.5    -41082.13    3928.6095   -45010.739    63.821386   0.98590317 
    6600    289.70496   -544.31956     139941.8   -41162.557       3978.4   -45140.957    64.748249   0.98502747 
    6700    285.39698   -671.77856    140073.35   -41134.186    3919.2403   -45053.426    65.742994   0.98410237 
    6800    284.19142    -434.6295    140076.79   -41180.932    3902.6848   -45083.617    66.905709    0.9840782 
    6900    289.28324   -496.80556    140018.99   -41121.213    3972.6086   -45093.821    68.014487   0.98448443 
    7000    295.41426   -441.03991    140159.25   -41002.925    4056.8035   -45059.728    69.271528   0.98349924 
    7100    288.59595   -305.08963    140136.95   -41137.763    3963.1703   -45100.934    70.359801   0.98365573 
    7200    285.06732   -474.68495    140105.53   -41150.412    3914.7132   -45065.125    71.711441   0.98387635 
    7300    288.67116   -745.32687    139884.76   -41130.287    3964.2032   -45094.491    72.634155   0.98542909 
    7400    284.31997   -445.79464    139850.88   -41166.239    3904.4502    -45070.69    73.986136   0.98566789 
    7500    293.51296   -551.84073    139740.21   -41065.144    4030.6937   -45095.838    75.461527   0.98644848 
    7600    292.34599   -464.73641    140033.11   -41066.451    4014.6682   -45081.119    76.827629   0.98438517 
    7700     285.7598   -315.42211    140051.24    -41051.08    3924.2227   -44975.303    78.282576   0.98425771 
    7800    287.09216   -628.65123    140237.55   -41045.968    3942.5195   -44988.488    79.566573   0.98295015 
    7900    289.86067   -631.88495    140047.18   -41169.358    3980.5383   -45149.897    80.969366   0.98428628 
    8000    288.82943   -510.91438     140448.2   -41162.883    3966.3767   -45129.259    82.262663   0.98147589 
    8100    287.93925   -483.96064    140553.36   -41051.663    3954.1522   -45005.815    83.386815   0.98074156 
    8200    291.55652   -637.44657    140669.09   -41108.573    4003.8267     -45112.4    84.252842   0.97993464 
    8300    294.63218   -539.50958     140210.5   -41051.189    4046.0634   -45097.252    85.070544   0.98313977 
    8400    290.23935   -511.11831    140374.78   -41133.089    3985.7386   -45118.827    85.951512   0.98198917 
    8500    289.50757   -397.74746    140298.74   -41152.019    3975.6894   -45127.709    86.698882    0.9825214 
    8600    292.03767    -541.2546    140545.65   -41061.142    4010.4342   -45071.576    87.523454   0.98079532 
    8700    291.54924   -488.21278    140577.75   -41033.831    4003.7268   -45037.558    88.516574   0.98057136 
    8800    287.87863   -480.36715    140631.34   -41009.606    3953.3197   -44962.926      89.7699   0.98019772 
    8900    286.52795   -620.53102     140703.5   -41033.061    3934.7715   -44967.832    90.836589   0.97969502 
    9000    296.05205   -273.52545    140689.11   -40887.681    4065.5619   -44953.243    92.231984   0.97979524 
    9100    296.14124   -366.62604    140656.53   -40984.247    4066.7868   -45051.034    93.130904   0.98002219 
    9200    289.86345   -417.61828     140534.9   -41048.076    3980.5765   -45028.653    94.006415   0.98087033 
    9300    290.40831   -448.14861    140546.05   -41057.623    3988.0588   -45045.682    94.566965   0.98079253 
    9400    291.37929   -682.59335    140634.97   -41054.548    4001.3929   -45055.941     96.08345   0.98017239 
    9500    287.78267   -400.53148    140584.93   -41140.506    3952.0019   -45092.508    97.548196   0.98052132 
    9600    287.62611   -645.78975    140425.14   -41158.267     3949.852   -45108.119    98.872591   0.98163703 
    9700    292.61111    -621.9547    140360.27   -41098.894     4018.309   -45117.203    99.967482   0.98209069 
    9800    295.30791    -609.0838    140368.74   -41097.521     4055.343   -45152.864    101.00907   0.98203148 
    9900    288.71017   -335.84153    140823.08   -41022.679     3964.739   -44987.418    102.38983    0.9788631 
   10000    287.49893   -528.02966    140588.05   -41188.564    3948.1054    -45136.67    103.51059   0.98049955 
   10100     287.7647   -563.32186    140692.72   -41112.678    3951.7552   -45064.433    104.27754   0.97977006 
   10200    294.24987   -545.86033    140577.78   -41183.802    4040.8134   -45224.615    105.43058   0.98057113 
   10300     294.4343   -454.22975    140744.35   -41109.594    4043.3461    -45152.94    106.32154   0.97941064 
   10400    289.16694   -831.65902    140408.02   -41046.637    3971.0116   -45017.649    107.32061   0.98175673 
   10500    291.80709    -578.1993    140193.53   -41050.807    4007.2677   -45058.075    108.53431    0.9832588 
   10600    291.78825   -562.84745    140339.52   -41002.141    4007.0089    -45009.15    109.87518   0.98223589 
   10700    290.71505   -308.42969    140369.31   -41016.801    3992.2712   -45009.073    111.07064   0.98202745 
   10800    295.67955   -360.41673     140492.2   -41015.221    4060.4465   -45075.667    112.23369   0.98116846 
   10900    295.22415   -323.40527    140451.84   -40907.457    4054.1928    -44961.65    113.30637   0.98145041 
   11000    295.72382   -293.56407    140322.58   -40969.328    4061.0545   -45030.382    114.61355   0.98235451 
   11100    291.95777   -546.44358    140293.72   -41026.888     4009.337   -45036.225    116.20843   0.98255657 
   11200    291.90551   -366.71211    140454.39   -41021.517    4008.6192   -45030.136    117.66398    0.9814326 
   11300    286.84697   -707.79605    140460.53   -41043.428    3939.1524    -44982.58     118.3629   0.98138971 
   11400    284.60141   -575.09405       140467   -41058.054    3908.3151   -44966.369    119.85908   0.98134451 
   11500    283.05539   -383.99584    140324.74    -41176.45    3887.0841   -45063.534      121.257    0.9823394 
   11600    286.78982   -567.64011    140144.94    -41199.56    3938.3676   -45137.928    121.90803   0.98359967 
   11700    291.80157   -323.53486    140231.93   -41075.523    4007.1918   -45082.715    123.25869   0.98298951 
   11800    289.89119   -540.33737     140085.6   -41095.422    3980.9574   -45076.379    124.07241    0.9840163 
   11900    290.93133   -434.24838    140129.89    -41187.85    3995.2412   -45183.091    125.29771   0.98370528 
   12000    285.69654   -622.08758    140013.88   -41196.897     3923.354   -45120.251    126.51783   0.98452039 
   12100    286.94508   -304.69346    140044.82   -41167.709    3940.4997   -45108.209    127.92791   0.98430287 
   12200    298.15091   -660.98128     140138.1   -41010.661    4094.3848   -45105.046    129.41753   0.98364765 
   12300    297.99745   -363.24943    139774.12   -40988.499    4092.2774   -45080.776    130.50858   0.98620916 
   12400    288.56553   -428.97515    140045.24   -40938.248    3962.7527   -44901.001    132.39079    0.9842999 
   12500    292.10751   -508.30002    140542.13   -40959.878    4011.3933   -44971.271    134.06972   0.98081989 
   12600    290.75966   -571.83651    140702.13    -41014.48    3992.8837   -45007.364    135.38137   0.97970454 
   12700    293.37781   -673.67732    140167.71   -41010.047    4028.8378   -45038.885    136.40797   0.98343987 
   12800    293.18862   -507.97072    140438.03   -41054.446    4026.2397   -45080.686    137.58368   0.98154694 
   12900    293.09234   -593.11426    140156.69   -41067.721    4024.9175   -45092.638    138.27272   0.98351721 
   13000    287.73455   -564.78361    140480.48   -41125.937    3951.3411   -45077.278    139.45576   0.98125029 
   13100    292.60295   -457.65685     140552.4   -41085.032    4018.1969   -45103.229     140.3961   0.98074822 
   13200     291.5906   -718.92892    140602.16   -40991.552    4004.2948   -44995.846     141.3997   0.98040115 
   13300     293.2108   -525.46595    140643.64    -41002.57    4026.5442   -45029.115     142.7204     0.980112 
   13400    288.51601   -493.18979    140665.18   -41088.281    3962.0727   -45050.354    144.00677   0.97996192 
   13500    290.77162   -477.55591       141141   -41062.375     3993.048   -45055.423    145.62212   0.97665824 
   13600    287.46676   -548.41771    140974.38   -41054.694    3947.6637   -45002.357     147.0166   0.97781256 
   13700    292.31366   -785.50229    140519.34   -41104.442    4014.2242   -45118.666    147.51802   0.98097893 
   13800    291.09175    -214.0447    140841.37   -41178.298    3997.4442   -45175.743    149.11661   0.97873598 
   13900    285.74539   -718.30179    140768.04   -41192.646    3924.0248   -45116.671    149.21558   0.97924583 
   14000    289.42464   -582.42242    140450.76   -41270.165    3974.5505   -45244.715    150.34082   0.98145794 
   14100    292.42672   -523.24716    140327.99   -41217.548    4015.7768   -45233.324    151.23879   0.98231665 
   14200    291.86666   -436.53722    140601.16   -41179.516    4008.0858   -45187.601    152.79395   0.98040807 
   14300    288.63737   -276.58341     140638.2   -41194.764    3963.7392   -45158.503    153.82564   0.98014986 
   14400    287.18977   -536.54087    140286.18   -41167.065    3943.8599   -45110.925    154.73347   0.98260937 
   14500    289.72513   -422.02242    140329.27   -41165.285    3978.6769   -45143.962    156.02207   0.98230768 
   14600    293.84605   -408.51677    140425.19   -41062.126    4035.2679   -45097.394    157.29364   0.98163671 
   14700    291.42027   -362.99723    140635.77   -41005.945    4001.9556   -45007.901    159.08218   0.98016685 
   14800    291.13596   -522.99143    140881.35   -41088.877    3998.0513   -45086.928    160.73254    0.9784582 
   14900    293.72389   -677.19161    140648.04   -41041.276    4033.5903   -45074.866    161.49051   0.98008133 
   15000    292.97678   -411.09809    140245.82   -41095.074    4023.3306   -45118.404    162.62202   0.98289214 
   15100    288.93583   -360.10533    140263.88   -41116.476    3967.8378   -45084.313    163.66771   0.98276563 
   15200    293.66357   -642.28949    140068.99   -41162.437     4032.762   -45195.199    164.09868   0.98413299 
   15300    292.20354   -476.32983    140129.32   -41068.568    4012.7119    -45081.28    165.52489   0.98370929 
   15400    296.75745    -572.1928    140137.45   -40993.808     4075.249   -45069.057    166.25741   0.98365224 
   15500    289.05993   -619.79238     139867.4    -41022.35    3969.5421   -44991.892    167.06683   0.98555141 
   15600    287.33235   -355.61877    139742.44   -41073.498    3945.8179   -45019.316    167.77822   0.98643272 
   15700    286.69802   -431.82623    139896.23    -41106.08    3937.1069   -45043.187    168.73163   0.98534837 
   15800    288.88337   -685.40571    140144.41   -41104.516    3967.1174   -45071.633    170.06837   0.98360338 
   15900    289.89496    -367.0275    140342.45   -41080.993    3981.0092   -45062.002    171.39443   0.98221539 
   16000    289.16873   -586.57095     140518.1   -41141.862    3971.0361   -45112.899    172.53463   0.98098762 
   16100    293.69393   -714.63788    140150.97   -41157.256    4033.1789   -45190.435    173.12406   0.98355735 
   16200     294.0797   -540.33451    140304.61     -41033.9    4038.4765   -45072.377    174.93158   0.98248029 
   16300    293.08598    -537.8104    140241.89   -41027.406    4024.8302   -45052.236     175.9152   0.98291973 
   16400    293.92626   -477.19659    140299.37   -40983.853    4036.3694   -45020.222    177.71101   0.98251701 
   16500    292.67729   -598.48628    140318.15   -41006.925    4019.2177   -45026.143    179.12499    0.9823855 
   16600    294.80922    -381.9867    140704.11   -41011.266    4048.4947   -45059.761    180.93585   0.97969076 
   16700    289.05205   -577.07143    140573.86   -41108.759    3969.4338   -45078.193    181.33478   0.98059851 
   16800    291.02993   -264.25561    140713.82   -41066.584    3996.5953   -45063.179    182.66553   0.97962319 
   16900    291.13407   -595.84159    140681.82    -41049.24    3998.0254   -45047.266    183.34523   0.97984598 
   17000    290.54531   -476.43636    140693.09   -41049.315    3989.9402   -45039.255    184.27795   0.97976751 
   17100    289.33987   -278.89099    140543.68   -41063.369    3973.3864   -45036.755     184.8873   0.98080909 
   17200    292.07219   -351.87124    140815.62   -40988.239    4010.9082   -44999.147     186.3625   0.97891497 
   17300    290.42428   -608.97589    140841.15   -40961.904    3988.2781   -44950.182    187.01945   0.97873754 
   17400      291.714   -670.75531    140465.81   -40999.943    4005.9893   -45005.932    187.18965    0.9813528 
   17500    290.47755   -535.67019    140627.03   -40969.021    3989.0097   -44958.031    187.80512   0.98022778 
   17600     289.7299   -465.68802    140292.49   -41076.301    3978.7424   -45055.043    188.79621   0.98256518 
   17700    294.06005   -802.41829    140106.48   -41035.094    4038.2066   -45073.301    189.87096   0.98386965 
   17800    290.72995   -476.35518    140244.41   -41078.368    3992.4757   -45070.844    190.86938   0.98290202 
   17900    288.15238   -472.31304     140225.7    -41118.78    3957.0791   -45075.859    191.49162    0.9830332 
   18000    284.06314   -624.06083    140489.26   -41180.366    3900.9232    -45081.29    192.91406   0.98118897 
   18100    285.50862   -472.35416    140333.32   -41145.944    3920.7734   -45066.718    193.99763   0.98227932 
   18200     289.7342   -455.76938    140592.96   -41092.451    3978.8015   -45071.252     195.3926    0.9804653 
   18300    288.74605   -723.49823    140283.18   -41132.842    3965.2317   -45098.074    196.19124   0.98263041 
   18400    289.13033   -650.59096    140305.79   -41203.585    3970.5088   -45174.094    197.29467   0.98247204 
   18500    288.89346   -433.78482    140191.67   -41079.384    3967.2559    -45046.64     198.6965   0.98327183 
   18600    294.87355   -576.85931    139940.96   -41083.044    4049.3781   -45132.422    199.20734   0.98503338 
   18700    294.79927    -359.8827    140065.71   -40990.482    4048.3581    -45038.84    200.07623   0.98415602 
   18800    291.23331   -380.35835    140222.07   -41021.996    3999.3882   -45021.384    201.85728   0.98305861 
   18900    289.22903   -358.39313    140288.61   -41077.962    3971.8643   -45049.826    202.38052   0.98259235 
   19000    292.91085   -621.04731    140061.89   -41065.302    4022.4251   -45087.727    202.97752   0.98418287 
   19100    295.87137   -412.41904    140039.97   -41117.174    4063.0808   -45180.255     203.6835   0.98433698 
   19200    289.67998   -609.85623    139936.95   -41060.676     3978.057   -45038.733     205.1937   0.98506158 
   19300    287.30727   -485.49054    139903.41   -41032.667    3945.4735   -44978.141    206.32258   0.98529775 
   19400    288.68096   -207.22187     140106.1   -41043.134    3964.3378   -45007.471    207.23791   0.98387237 
   19500    288.64709   -514.22281    140303.31   -41018.155    3963.8727   -44982.028    208.88952   0.98248939 
   19600    291.80123   -572.58388    140012.88   -41030.782    4007.1872   -45037.969    210.25667   0.98452738 
   19700    292.70126   -195.17115    139726.47    -41020.51     4019.547   -45040.057    210.54422   0.98654549 
   19800    292.33128    -518.6328    139650.29    -41023.03    4014.4662   -45037.496    211.71579   0.98708367 
   19900    293.22337   -575.55583    139757.09   -41014.802    4026.7168   -45041.519    212.33371   0.98632932 
   20000    288.58421   -596.63585    139990.19   -40979.513    3963.0092   -44942.523     213.5376   0.98468701 
   20100    291.14585   -525.44496    140010.56   -41004.696    3998.1872   -45002.883    214.68015   0.98454373 
   20200    296.33307   -462.92891    140532.67   -40938.057    4069.4211   -45007.478    216.61821   0.98088594 
   20300    295.19812   -523.65285    140818.36   -40913.593    4053.8353   -44967.429    217.96551   0.97889588 
   20400    293.53632   -539.43882    140891.76   -40962.114    4031.0146   -44993.129    219.02687   0.97838592 
   20500    297.66064   -258.79457    140910.34   -40909.688    4087.6522    -44997.34    219.46007   0.97825695 
   20600    291.23642   -706.25185    140373.42   -41040.823    3999.4309   -45040.253    220.28488   0.98199869 
   20700    290.34356   -627.39608    140201.71   -41107.023    3987.1696   -45094.193    220.97553   0.98320136 
   20800    290.47992   -299.90019    140047.34   -41114.206    3989.0421   -45103.248    221.91808   0.98428512 
   20900    290.06786   -247.69122    140300.06   -41111.753    3983.3835   -45095.137    222.88848    0.9825122 
   21000    295.40125   -520.09722    140280.19   -40985.158    4056.6248   -45041.783    224.18484   0.98265132 
   21100    293.56182   -431.59239    140134.05   -41046.601    4031.3647   -45077.966    225.97121   0.98367613 
   21200    285.88522   -304.94245    140196.67   -41124.808     3925.945   -45050.753    227.54155   0.98323671 
   21300    288.36021   -551.24149    140312.11   -41106.978    3959.9331   -45066.911    229.00899   0.98242782 
   21400    292.33908   -723.30954    140190.98   -41002.995    4014.5733   -45017.569    230.02627   0.98327663 
   21500    293.98837   -454.33121    140216.32   -40940.856    4037.2223   -44978.078    231.62733   0.98309892 
   21600    291.67959   -407.60788    140019.33   -41020.871    4005.5168   -45026.388     231.8851   0.98448208 
   21700    293.23786   -518.19505    139959.05   -40968.354    4026.9159   -44995.269    233.41914   0.98490607 
   21800    291.23215    -580.9687    139977.05   -40986.168    3999.3722    -44985.54    234.57276    0.9847794 
   21900    295.51743   -780.25162    140012.73   -40950.618    4058.2202   -45008.838    236.16118   0.98452848 
   22000    294.08835   -542.54771    139986.82   -40988.249    4038.5952   -45026.844    236.85116   0.98471067 
   22100    294.37337   -675.08872    140340.65    -40912.13    4042.5093    -44954.64    238.79495   0.98222797 
   22200    295.20818   -410.35097    140232.45   -40895.527    4053.9734   -44949.501    240.76116   0.98298585 
   22300    289.65092   -379.21089    140047.52   -40957.306    3977.6579   -44934.964    242.72322   0.98428386 
   22400    293.36089    -396.1144    140256.23   -41047.327    4028.6054   -45075.933     244.9329   0.98281919 
   22500    296.22266   -539.24232    140371.74   -41055.661     4067.905   -45123.566    246.71531   0.98201046 
   22600    289.47632   -416.53128    140734.91   -41063.057    3975.2602   -45038.317    248.19438   0.97947632 
   22700    295.34353   -334.09867    140815.82    -41110.79    4055.8321   -45166.622    249.46654   0.97891356 
   22800    289.03137   -422.92222     140777.6   -41194.729    3969.1498   -45163.879    249.64254   0.97917932 
   22900    289.11794    -501.6925    140549.78   -41195.061    3970.3387   -45165.399    249.87329   0.98076647 
   23000    287.96914   -554.44064    140339.27   -41099.125    3954.5627   -45053.688    250.56088   0.98223766 
   23100    292.04644   -654.46641    140311.12   -41107.525    4010.5546   -45118.079    252.31839   0.98243471 
   23200    294.82884    -558.9508    140163.74   -41141.895    4048.7641   -45190.659    253.49351   0.98346776 
   23300    286.51525   -355.39851    140196.52   -41185.673     3934.597    -45120.27    254.86009   0.98323777 
   23400    286.84956   -478.85424    140342.36   -41175.164    3939.1879   -45114.352    256.41657   0.98221602 
   23500    285.98251   -394.69745    139878.29   -41139.693    3927.2811   -45066.974    257.68217   0.98547468 
   23600    287.91509   -231.88564    140076.84   -41174.103    3953.8204   -45127.924    259.14711   0.98407784 
   23700    289.03204   -751.84682    140187.53   -41172.198    3969.1591   -45141.357    260.54704   0.98330083 
   23800    289.81713   -655.61874    140313.47   -41162.503    3979.9403   -45142.443    262.23771   0.98241827 
   23900    290.13302   -410.64786    140464.74   -41072.693    3984.2783   -45056.972     263.2831   0.98136026 
   24000    286.34971   -580.78069    140400.05   -41009.046    3932.3236    -44941.37    264.22207   0.98181244 
   24100    296.68498   -575.75956     140118.2   -41035.438    4074.2538   -45109.692     264.3415   0.98378736 
   24200    293.75247    -549.6096    139493.32   -40994.119    4033.9828   -45028.102    265.29854    0.9881944 
   24300    294.64204   -569.68601    139772.13   -41019.086    4046.1989   -45065.285    266.84073   0.98622316 
   24400    294.61619   -410.10072    139767.83   -40982.613    4045.8439   -45028.456    268.70534   0.98625355 
   24500    288.37988   -550.45914    139741.17   -41014.424    3960.2032   -44974.627    269.20138   0.98644171 
   24600    294.55054   -248.13461    139601.21   -41016.789    4044.9423   -45061.732    270.76556   0.98743067 
   24700    293.35952   -534.67775    139862.68    -40998.14    4028.5865   -45026.726    271.97264   0.98558472 
   24800    292.89065   -611.04506    140044.35   -40996.557    4022.1477   -45018.705    273.57507   0.98430617 
   24900    291.54829   -628.33236    140125.08   -41084.076    4003.7136   -45087.789    274.41125   0.98373909 
   25000    287.40348   -407.58915    139924.91   -41132.394    3946.7947   -45079.188    276.44879   0.98514634 
   25100    290.14775   -413.41839    140159.16   -41097.871    3984.4807   -45082.351    277.22873   0.98349989 
   25200    293.23837   -485.50656    140240.43   -41108.718    4026.9228   -45135.641    278.04654   0.98292995 
   25300    287.03427   -421.25012    140243.86   -41147.353    3941.7245   -45089.077    279.02102   0.98290587 
   25400    290.11854   -638.11735    140120.28   -41109.332    3984.0794   -45093.411     279.6353   0.98377275 
   25500    294.62135   -225.31061    140241.73   -41146.646    4045.9147    -45192.56     280.3665    0.9829208 
   25600    287.26011   -524.51008    140720.31   -41196.556    3944.8259   -45141.381    282.32532   0.97957798 
   25700    288.94604   -527.55532    140447.98   -41217.392    3967.9781    -45185.37    282.95045   0.98147739 
   25800    287.63981   -426.11493    140611.81   -41251.636    3950.0401   -45201.677    284.16176   0.98033383 
   25900    284.06702   -538.74021    140561.87   -41301.905    3900.9764   -45202.881    285.05941   0.98068215 
   26000    288.11841    -316.0664    140538.03   -41168.841    3956.6126   -45125.454    286.31154   0.98084848 
   26100    290.43724   -697.25134    140502.74   -41189.382    3988.4561   -45177.838    287.52482   0.98109485 
   26200    291.09832   -560.52017    140313.82   -41097.698    3997.5345   -45095.233    288.33395   0.98241582 
   26300    288.83513   -573.38836    139877.04   -41066.945     3966.455     -45033.4    288.81005   0.98548354 
   26400    286.81065   -398.82125    139727.19    -41117.02    3938.6536   -45055.674     289.9192   0.98654036 
   26500    300.17202   -545.72362    139636.34   -40942.367    4122.1399   -45064.507    290.63078   0.98718222 
   26600    291.56653   -557.72436    139705.01   -41015.533    4003.9642   -45019.497    292.25691   0.98669699 
   26700    296.75133   -587.94738    140050.35   -40960.195    4075.1649    -45035.36    293.86469   0.98426401 
   26800    295.05967   -429.78066    139868.09   -40991.148    4051.9341   -45043.082    294.85554   0.98554659 
   26900    291.90519   -496.13706    139746.09   -41083.235    4008.6149    -45091.85    295.60188   0.98640693 
   27000    294.97676   -526.08234    139953.94   -41119.408    4050.7955   -45170.204    296.40972   0.98494203 
   27100    293.28878   -577.42561    139683.52   -41052.971    4027.6151   -45080.586    296.61107   0.98684883 
   27200    292.44701   -466.83544    139776.78   -41010.945    4016.0554   -45027.001    298.01491   0.98619039 
   27300    291.56946   -224.89417    139966.63   -40968.892    4004.0044   -44972.897    299.67228   0.98485271 
   27400    295.65107   -773.46796    140299.99   -40889.405    4060.0555    -44949.46    300.45364   0.98251266 
   27500    290.19572     -509.003    139988.58   -40958.385    3985.1393   -44943.524    301.18277   0.98469831 
   27600    291.29279   -661.65054       139715   -40888.851     4000.205   -44889.057    302.05959   0.98662648 
   27700    292.62599   -450.56958    139757.79   -40920.707    4018.5133    -44939.22    303.92997    0.9863244 
   27800    296.65642   -486.71519    140214.91   -40894.177    4073.8615   -44968.038    305.72767   0.98310881 
   27900    290.80816   -642.28343    140131.33   -40890.913    3993.5498   -44884.463    307.19732   0.98369517 
   28000     294.9286   -582.87486    140130.57   -40842.103    4050.1341   -44892.237    308.29597   0.98370053 
   28100    292.18703   -404.50758    140288.06   -40920.613    4012.4852   -44933.098    309.87965    0.9825962 
   28200    287.27013   -528.10422    140288.35   -41070.806    3944.9634   -45015.769    311.69521   0.98259417 
   28300    294.93553   -410.38659    139809.05   -41121.792    4050.2293   -45172.021    311.78741   0.98596274 
   28400     294.0521    -372.1787    139961.63   -40985.379    4038.0974   -45023.477    313.41604    0.9848879 
   28500    290.07065   -570.58871    140054.78   -41009.668    3983.4219    -44993.09    314.24148   0.98423288 
   28600    291.81396   -495.70304    140205.69   -41055.306     4007.362   -45062.668    315.53946   0.98317349 
   28700    289.31199   -474.66581    140271.22   -41136.255    3973.0035   -45109.259    317.31358   0.98271418 
   28800    289.20852   -540.28803    140236.48   -41036.761    3971.5826   -45008.344    318.97319   0.98295763 
   28900    290.98988   -492.51767    140465.42   -41032.733    3996.0452   -45028.779    321.17407    0.9813555 
   29000    294.60238   -727.49262    140391.23   -41029.615    4045.6542    -45075.27    322.29756   0.98187416 
   29100    290.90222   -616.22889    140099.29   -41030.059    3994.8415     -45024.9    323.12813   0.98392018 
   29200    290.20942    -599.2396    140354.39   -41062.346    3985.3275   -45047.674    324.93033   0.98213183 
   29300    287.97496   -379.47207     140366.2   -41047.757    3954.6426     -45002.4    325.55378   0.98204919 
   29400    289.72351   -647.16328     140132.5   -41087.795    3978.6547    -45066.45    327.19742   0.98368698 
   29500     293.4295   -349.48526    140187.57   -41066.377    4029.5476   -45095.925    329.09317   0.98330054 
   29600    292.75041   -447.82031    140431.17   -41086.725    4020.2219   -45106.947    331.24878   0.98159486 
   29700    293.39937   -450.85965    140566.67   -41046.815    4029.1337   -45075.949    332.51409   0.98064863 
   29800     295.6738   -398.96646    140657.85    -40965.23    4060.3676   -45025.597    334.44971   0.98001293 
   29900    292.97043   -589.08856    140671.26   -40972.231    4023.2433   -44995.474    335.72097   0.97991957 
   30000    291.03774   -517.19663    140466.69   -40987.173    3996.7025   -44983.875    337.07114   0.98134663 
   30100     296.4498   -448.00871    140567.08   -40955.908    4071.0241   -45026.933    337.70735   0.98064577 
   30200    293.62438   -462.95052    140624.63   -41022.762    4032.2238   -45054.986    338.54225   0.98024447 
   30300    296.43618   -415.76485    140075.63   -40959.896    4070.8371   -45030.733    338.81324   0.98408638 
   30400    288.75302   -482.74084    139953.07   -41147.729    3965.3274   -45113.056    339.91466   0.98494812 
   30500      290.545   -550.74737    140113.67   -41132.633     3989.936   -45122.569    341.88063   0.98381917 
   30600    289.53906   -598.65376    140083.41   -41189.828    3976.1217   -45165.949    342.62737   0.98403168 
   30700     292.4257   -720.23471    140037.51   -41161.366    4015.7628   -45177.129    343.48689   0.98435423 
   30800    290.90876   -494.00712    139891.44   -41083.858    3994.9312   -45078.789    344.68752   0.98538206 
   30900    289.01906   -515.16376    139884.98   -41120.723    3968.9808   -45089.704    345.22714    0.9854276 
   31000    292.75853   -453.07949    140058.48   -41055.281    4020.3334   -45075.614    346.48127   0.98420683 
   31100    288.92641   -480.43466    140277.93   -41218.891    3967.7085   -45186.599    348.66866   0.98266717 
   31200    285.49454   -404.22606    140524.39   -41223.537      3920.58   -45144.117    350.76532   0.98094372 
   31300    284.26104    -338.8852    140162.43   -41190.766    3903.6408   -45094.407    352.33693   0.98347691 
   31400    284.70534   -501.27364    140168.79   -41163.953    3909.7423   -45073.695    353.36825   0.98343229 
   31500    289.04488   -595.96092    140208.88   -41019.182    3969.3353   -44988.517    354.91717   0.98315111 
   31600    291.99817   -562.76006    140209.18   -41025.751    4009.8917   -45035.643    356.05668   0.98314902 
   31700    295.42478   -382.42414    140193.68   -41088.597    4056.9479   -45145.545    357.81503   0.98325771 
   31800    290.86106   -475.94764    140230.17   -41071.079    3994.2762   -45065.355    359.50186   0.98300186 
   31900    293.54377   -352.42066    140235.13   -41080.433    4031.1168   -45111.549    361.41221   0.98296711 
   32000    293.22738   -657.08887    140224.85   -41013.263     4026.772   -45040.034     363.2947   0.98303912 
   32100    286.76662   -492.90872    140160.79   -41075.453    3938.0489   -45013.502    364.27303   0.98348846 
   32200    292.98849    -762.1537    140119.54   -41027.456    4023.4913   -45050.948    365.37395   0.98377794 
   32300    292.74712   -443.61461    140129.24   -41044.959    4020.1767   -45065.136    367.05723   0.98370989 
   32400    294.95163   -438.12156    140238.55   -40943.107    4050.4504   -44993.558    368.60304   0.98294311 
   32500    292.10738   -591.94202    140336.24   -41046.499    4011.3915   -45057.891    369.42915    0.9822589 
   32600    291.92689   -619.42308    140420.37   -41060.152    4008.9128   -45069.065    370.97556   0.98167036 
   32700    289.47787    -404.8375    140483.38   -41055.219    3975.2814     -45030.5    371.94236   0.98123004 
   32800    283.57705   -396.04939    140552.11   -41114.209    3894.2479   -45008.457    373.10339   0.98075027 
   32900    291.31377    -581.6331    140608.73    -41176.42    4000.4931   -45176.913    373.72786   0.98035534 
   33000    290.92643   -537.59606    140333.08   -41187.416     3995.174    -45182.59    373.87762   0.98228102 
   33100    298.52031   -486.41486    140241.58   -41150.817    4099.4576   -45250.275    375.46539   0.98292191 
   33200    286.09004   -556.87073    139982.31   -41105.786    3928.7577   -45034.544    376.33156   0.98474238 
   33300    292.21567    -544.1775    140245.48   -41075.539    4012.8786   -45088.417    378.18294   0.98289454 
   33400    293.95225    -517.7783    140320.64   -41105.375    4036.7263   -45142.102    379.50013    0.9823681 
   33500    295.83994   -495.81604    140695.92   -41038.695    4062.6492   -45101.345    380.57327   0.97974777 
   33600     289.0188   -677.04659    140752.15    -41103.33    3968.9772   -45072.307    381.01954   0.97935638 
   33700    290.22829   -645.95798    140551.64   -41136.161    3985.5867   -45121.748    381.92074   0.98075355 
   33800    287.93827   -614.96307    140164.82     -41093.4    3954.1388   -45047.539    382.14793   0.98346019 
   33900    292.65732    -603.9798    140371.42   -41116.609    4018.9435   -45135.553    383.54005   0.98201272 
   34000    289.72433   -622.40746    140157.52   -41124.122     3978.666   -45102.788    384.34401   0.98351141 
   34100      284.658   -574.92527     140098.3   -41197.134    3909.0922   -45106.227    386.32841   0.98392715 
   34200    284.38327   -611.71907    140027.81   -41100.961    3905.3194    -45006.28    387.68013   0.98442243 
   34300    291.20684   -604.82625    140183.49   -41068.732    3999.0247   -45067.756    389.03491    0.9833292 
   34400    291.91328   -710.23982    139934.28   -40957.967     4008.726   -44966.693    389.60841   0.98508043 
   34500    293.03609   -600.18536    139807.73   -40943.215     4024.145    -44967.36    390.57154   0.98597207 
   34600      293.525   -455.34914    139855.41   -40989.165     4030.859   -45020.024    392.28029    0.9856359 
   34700    292.36946   -607.05554    139719.23   -41039.137    4014.9905   -45054.127    393.35167   0.98659658 
   34800    291.22925   -760.00994    139864.78   -41075.907    3999.3325   -45075.239    394.84414   0.98556988 
   34900     289.2642   -247.69136    140114.62   -41065.305    3972.3472   -45037.652    395.90155   0.98381248 
   35000    286.65569   -840.90297    139763.46   -41119.173    3936.5256   -45055.699    396.22224   0.98628435 
   35100    291.06469   -537.23457    139411.06   -41069.713    3997.0726   -45066.786    396.74164   0.98877747 
   35200    297.33959   -656.60824    139428.15   -40881.021    4083.2432   -44964.264    397.58833   0.98865627 
   35300    295.16103   -428.84339    139321.17   -40986.967     4053.326   -45040.293    398.47411   0.98941547 
   35400    289.72729   -535.04739     139932.6   -41105.712    3978.7066   -45084.419    400.75059   0.98509225 
   35500    293.92642   -466.28376    140024.31   -41074.839    4036.3716   -45111.211    401.89275   0.98444706 
   35600    290.80566   -288.72799    140062.44    -41072.62    3993.5154   -45066.135    402.88858     0.984179 
   35700    293.91053   -493.89992    140193.66    -41022.35    4036.1533   -45058.503    404.70228   0.98325786 
   35800    289.21367   -495.69995    139927.85   -41091.576    3971.6532   -45063.229     405.1592   0.98512565 
   35900    293.94261   -449.25885    140170.28   -41051.623    4036.5939   -45088.217    406.65202   0.98342188 
   36000    292.21709   -379.02368    140352.88   -41103.914    4012.8981   -45116.812    408.68039   0.98214243 
   36100    291.76122   -354.26694    140104.25    -41113.89    4006.6378   -45120.527    409.68975   0.98388536 
   36200     291.0925   -314.08148    140136.36   -41063.274    3997.4545   -45060.729    410.27374   0.98365988 
   36300    289.30129   -566.75482    140135.89   -41045.877    3972.8566   -45018.734    411.43199   0.98366317 
   36400    293.20508   -405.65687    139841.93   -40958.905    4026.4656   -44985.371    411.69374   0.98573091 
   36500    294.93403   -608.38371    140171.58   -40879.071    4050.2087    -44929.28    412.97893   0.98341272 
   36600    289.64669   -376.34322    139826.61   -41021.145    3977.5998   -44998.745     414.2645   0.98583893 
   36700    293.77587   -657.68495    139635.92   -41034.509    4034.3042   -45068.813    414.72279   0.98718524 
   36800    293.08012   -441.36531    139693.24   -41083.945    4024.7497   -45108.695    416.54412   0.98678015 
   36900    285.93502    -370.4957    139755.29   -41189.513    3926.6289   -45116.142    418.01065   0.98634202 
   37000    290.39612   -713.12753    139763.95   -41116.667    3987.8915   -45104.558    418.87745   0.98628093 
   37100    286.74029   -318.79935       139912   -41128.769    3937.6874   -45066.457    421.06441   0.98523725 
   37200     289.9652   -510.56575    140393.24   -41102.715    3981.9737   -45084.689    423.15299    0.9818601 
   37300    289.44136   -426.14856    140363.57   -41080.238    3974.7801   -45055.018     424.7468   0.98206759 
   37400    290.98519   -458.89094    140580.12   -41133.295    3995.9808   -45129.276    426.92908   0.98055487 
   37500    283.52067   -553.64246    140378.01   -41149.351    3893.4736   -45042.825     429.0364   0.98196661 
   37600    285.28063   -704.41281    140123.91   -41119.094    3917.6424   -45036.737    429.82265   0.98374731 
   37700    292.35266   -444.42378    140217.01   -41158.008    4014.7598   -45172.768    430.68443   0.98309411 
   37800    292.76645   -430.75886    140168.92   -41157.768    4020.4422    -45178.21     431.2344   0.98343141 
   37900    285.81472   -434.37377    139988.08   -41241.418    3924.9769   -45166.395     431.2447    0.9847018 
   38000    287.03579   -572.90872    140167.88   -41182.409    3941.7453   -45124.155    432.19159   0.98343867 
   38100    286.01328    -401.9519    140233.71   -41202.832    3927.7036   -45130.536    433.57107   0.98297703 
   38200    290.79508    -751.8066    140010.21   -41156.058    3993.3702   -45149.428    434.39644   0.98454615 
   38300    288.03234   -459.00482    140133.17    -41254.51    3955.4306   -45209.941      435.805   0.98368226 
   38400    291.58865   -463.42548    140445.17   -41284.484    4004.2679   -45288.752    438.45245   0.98149703 
   38500    281.78593   -221.20724    140376.33   -41333.871    3869.6511   -45203.522     439.4392   0.98197837 
   38600    282.87507   -595.86325     140516.4   -41192.135    3884.6079   -45076.743    441.05989   0.98099951 
   38700    288.25901   -518.20344    140794.79   -41202.979    3958.5433   -45161.523    442.84258   0.97905979 
   38800    295.62456   -388.77658    140714.08   -41098.079    4059.6915    -45157.77    443.80738   0.97962133 
   38900    297.98311   -494.33328    140823.85   -40998.885    4092.0805   -45090.965    445.39094   0.97885775 
   39000    294.47869   -384.33926    140618.83   -41099.501    4043.9557   -45143.457     446.2451   0.98028494 
   39100    291.39379   -436.71721    140693.22   -41100.274     4001.592   -45101.866    446.87063   0.97976657 
   39200    295.92779   -570.33924     140609.6   -41072.172    4063.8556   -45136.028    447.72082   0.98034928 
   39300    287.13218   -556.45927    140403.07   -41078.459     3943.069   -45021.528     448.3337   0.98179131 
   39400    289.59852   -667.99221    140194.04   -41077.455    3976.9383   -45054.393    448.84962   0.98325519 
   39500    295.66976    -403.3516    140023.98   -40979.412    4060.3122   -45039.724    449.85849   0.98444933 
   39600    291.74961   -597.78327    140071.37    -40965.27    4006.4784   -44971.749    451.61289   0.98411631 
   39700    286.37324   -307.63674    140438.77   -41044.352    3932.6468   -44976.999    453.38809   0.98154175 
   39800    289.14491   -511.33524       140398   -40989.983     3970.709   -44960.692    455.48324   0.98182675 
   39900    287.40549   -713.51242    140311.21   -41186.538    3946.8223    -45133.36    456.19561   0.98243408 
   40000    288.08902   -188.35906    140037.05   -41078.395    3956.2089   -45034.604      456.076    0.9843575 
   40100    292.48066   -570.96758    140445.31   -41103.552    4016.5176    -45120.07     458.7792   0.98149605 
   40200      293.247   -613.12338    140583.39     -41011.5    4027.0414   -45038.541     460.5758     0.980532 
   40300    293.55489    -348.6583    140478.68   -41018.743    4031.2694   -45050.013    462.68928   0.98126292 
   40400     289.6481   -373.71598    140596.07   -41047.417    3977.6191   -45025.036    463.86208   0.98044358 
   40500    286.74911   -510.66045    140672.16   -41050.232    3937.8085   -44988.041    464.70015   0.97991329 
   40600    290.28859   -308.23591    140818.76   -41003.221    3986.4147   -44989.636    465.70215   0.97889312 
   40700    295.28942   -674.55987    140745.75   -41041.609    4055.0891   -45096.698    466.74184   0.97940089 
   40800    294.13206   -651.48042    140357.32   -41069.379    4039.1956   -45108.575    466.71348   0.98211136 
   40900    290.15058    -689.3182    140095.42   -41108.067    3984.5195   -45092.587    466.61186   0.98394734 
   41000    291.63654   -492.15145    140003.69   -41113.895    4004.9255   -45118.821     467.4017   0.98459204 
   41100    288.16137    -352.2267    139990.04   -41116.749    3957.2025   -45073.951    469.23449   0.98468807 
   41200    293.51092   -529.45232       139970   -40980.157    4030.6657   -45010.822    469.62784   0.98482898 
   41300    283.80892   -456.39456    139909.61   -41119.211     3897.432   -45016.643    471.86395   0.98525408 
   41400    292.65446   -588.04637    139940.76   -41093.452    4018.9043   -45112.356    472.15543   0.98503477 
   41500    288.62374   -545.31452    140054.65   -41077.799     3963.552   -45041.351    473.45002   0.98423376 
   41600    290.47002   -634.68175     139886.4   -40981.316    3988.9063   -44970.222    474.21742   0.98541755 
   41700    290.08892   -611.01114    139991.44   -41133.982    3983.6728   -45117.655    475.38751   0.98467818 
   41800    288.05802   -426.01063    140160.11   -41058.996    3955.7833   -45014.779     476.8274   0.98349319 
   41900    294.64793     -470.983     139923.5   -41037.695    4046.2797   -45083.975    477.89263   0.98515627 
   42000    291.34612   -525.73088    139585.57   -41062.233    4000.9374   -45063.171    478.11354   0.98754132 
   42100    289.40867   -592.07635    139655.09   -41088.135    3974.3311   -45062.466    479.55136   0.98704973 
   42200    291.56942   -421.86472    139887.93   -41053.585    4004.0038   -45057.589    481.83544   0.98540681 
   42300    286.58579   -494.15676    139814.37   -41133.991    3935.5657   -45069.556     483.0928   0.98592526 
   42400    295.22227   -279.24339    140265.72   -41104.629     4054.167   -45158.796     485.4021   0.98275272 
   42500    288.31276   -644.82685    140243.12   -41110.795    3959.2815   -45070.077    486.49077   0.98291108 
   42600    286.79596   -200.60993    140386.59   -41155.899    3938.4518    -45094.35    488.44112    0.9819066 
   42700    285.12459   -545.32966    139814.48    -41192.61    3915.4996    -45108.11    487.98197   0.98592444 
   42800    286.74434   -410.22903    139802.37   -41246.882     3937.743   -45184.625    489.89026    0.9860099 
   42900    284.41156   -456.72764    140028.62   -41174.514    3905.7079   -45080.222     491.8191   0.98441671 
   43000    288.90749   -298.98805    140074.67   -41144.437    3967.4486   -45111.886    493.41017   0.98409307 
   43100    290.42537   -502.09148    140196.82   -41154.991     3988.293   -45143.284    495.17707   0.98323568 
   43200    289.10122     -699.599    140160.16   -41167.241     3970.109    -45137.35    496.45918   0.98349288 
   43300    287.44985   -537.01609    140319.27    -41167.63    3947.4315   -45115.062    497.67801   0.98237769 
   43400    287.52115   -302.40837    140148.17   -41204.498    3948.4106   -45152.908     498.7903   0.98357702 
   43500    290.58793    -471.0083    140258.03   -41132.709    3990.5254   -45123.234     500.2136    0.9828066 
   43600    289.84907   -476.09751    140520.72   -41145.022     3980.379   -45125.401    501.61761   0.98096933 
   43700    293.14715   -429.64492    140558.56    -41119.51    4025.6702    -45145.18    503.02272   0.98070527 
   43800    291.45203   -640.44575    140559.92   -40987.269    4002.3918   -44989.661    505.40655   0.98069575 
   43900    289.91433   -531.33875    140286.05   -41123.513    3981.2752   -45104.788    505.46469   0.98261029 
   44000    288.05018   -586.85745    140242.92   -41041.316    3955.6756   -44996.992    506.50804   0.98291245 
   44100     297.5513   -455.27596    140018.56   -40960.175    4086.1505   -45046.325    507.17792   0.98448748 
   44200    296.11827   -320.23238    140244.44   -41043.666    4066.4713   -45110.137    508.60868   0.98290183 
   44300    290.75839   -389.30035    140318.23   -41220.532    3992.8663   -45213.398    510.20423   0.98238496 
   44400    287.07062   -466.42443    140601.87   -41199.828    3942.2237   -45142.052    512.27578   0.98040317 
   44500    288.01473   -539.90778    140673.51   -41253.131    3955.1888    -45208.32    513.61061   0.97990387 
   44600    290.54583    -320.8652    140605.55   -41245.618    3989.9473   -45235.566    514.81894    0.9803775 
   44700    285.05162   -345.05001    140655.52   -41297.489    3914.4976   -45211.986    516.25292   0.98002921 
   44800    288.02839   -553.86206    140702.23   -41186.315    3955.3763   -45141.691    516.78812   0.97970383 
   44900    288.55675   -677.80238    141105.12    -41221.15    3962.6321   -45183.782    518.42116   0.97690653 
   45000    285.92225   -429.39874    141017.26   -41196.189    3926.4536   -45122.642     518.2621   0.97751518 
   45100    291.18515   -688.48308    140847.11   -41100.714    3998.7268   -45099.441    519.09981   0.97869606 
   45200    287.76562   -322.99911    140827.41   -41130.183    3951.7678   -45081.951    520.49094   0.97883303 
   45300     287.7553   -325.55911    140977.21   -41169.291    3951.6261   -45120.917    522.19069   0.97779291 
   45400    287.26958   -415.70401    141031.86   -41193.961    3944.9559   -45138.917    523.72658   0.97741405 
   45500      286.969   -575.21551    140585.47   -41105.842    3940.8282    -45046.67    523.95359   0.98051755 
   45600    290.50205   -585.30946    140534.96   -41122.195    3989.3461   -45111.541    524.02268   0.98086996 
   45700    289.22714   -292.81193    140752.17   -41035.372    3971.8383    -45007.21    524.73414   0.97935621 
   45800    286.34914   -353.41205     140930.4   -40987.052    3932.3159   -44919.368    527.30992    0.9781177 
   45900    295.08362   -747.95239    140865.71   -41006.703     4052.263   -45058.966     528.9859    0.9785669 
   46000    291.06296   -696.58109    140792.52   -41048.059    3997.0489   -45045.108    529.69906   0.97907558 
   46100    294.99857   -640.02416    140408.93   -41056.461     4051.095   -45107.556    530.24579   0.98175035 
   46200    293.36802   -541.28474    140362.26    -41086.73    4028.7033   -45115.433    531.07066    0.9820768 
   46300    292.23434    -543.9217    140189.81   -41106.635     4013.135    -45119.77    532.30765   0.98328487 
   46400     288.1409   -526.83119    140309.98   -41078.009    3956.9215   -45034.931    533.12239   0.98244269 
   46500    298.70997   -512.42775    140289.98   -41024.826    4102.0621   -45126.888    534.16874    0.9825828 
   46600    295.39315   -624.70076    140511.79   -40963.761    4056.5136   -45020.275    535.93345   0.98103166 
   46700    288.15996   -527.25902     140316.5   -40973.902    3957.1832   -44931.085    536.38683   0.98239709 
   46800     298.4409   -575.40717    140113.87   -40922.233    4098.3671     -45020.6    536.11001    0.9838178 
   46900    294.51199    -319.9758    140299.17   -40928.403     4044.413   -44972.816    538.42508   0.98251839 
   47000    292.77127    -532.4396    140759.64   -40978.693    4020.5084   -44999.201    540.14565   0.97930429 
   47100    293.68173   -623.48147     140472.6   -40962.104    4033.0114   -44995.115    540.95041   0.98130534 
   47200    288.57421    -671.7841    140527.08   -41038.163    3962.8719   -45001.035    542.79571   0.98092494 
   47300    290.60777   -480.17357    140217.58   -41007.368    3990.7979   -44998.166    543.95524   0.98309013 
   47400    293.42858   -746.18266    140351.25   -40951.308    4029.5349   -44980.843     546.9556   0.98215385 
   47500    288.32654    -568.0826    140173.03   -41050.817    3959.4708   -45010.287    548.03618   0.98340256 
   47600    294.67054   -492.10326    140024.24   -40997.217    4046.5902   -45043.808     549.3746   0.98444754 
   47700    292.56982   -391.44214    139993.92   -41075.348    4017.7419    -45093.09      549.836   0.98466072 
   47800    280.98025   -354.56583    139945.92   -41106.966    3858.5871   -44965.553    551.75162    0.9849985 
   47900    292.46291   -448.08086    139680.01    -41079.22    4016.2738   -45095.494     551.9586    0.9868736 
   48000    288.30693    -352.1492    139781.08    -41090.61    3959.2015   -45049.812    553.53162   0.98616007 
   48100     290.6234   -790.73521    139585.97   -41165.989    3991.0125   -45157.002    553.81806   0.98753848 
   48200    282.66256   -492.94502    139539.32   -41089.728    3881.6896   -44971.418    555.60215   0.98786864 
   48300    293.68109   -567.65053    139899.42   -41078.377    4033.0026    -45111.38    557.64338    0.9853259 
   48400    291.71338   -399.06353    140241.43   -41061.395    4005.9809   -45067.376    559.01432   0.98292292 
   48500    286.34877   -538.07405    140377.08   -41113.053    3932.3108   -45045.363    560.07181   0.98197311 
   48600    291.11915    -334.7324    140245.72   -41095.898    3997.8205   -45093.719    560.95257   0.98289286 
   48700    288.13134   -436.76857    140038.76   -41174.434    3956.7901   -45131.224     561.9859   0.98434543 
   48800    287.03597   -750.19741    139881.15   -41156.404    3941.7478   -45098.152    562.74129   0.98545459 
   48900    291.93754   -428.21807    139872.88   -41085.006    4009.0591   -45094.065    564.40872    0.9855128 
   49000    293.76562   -402.14298    140083.15   -41057.025    4034.1634   -45091.189    566.95901   0.98403353 
   49100    287.22863   -427.47762    139761.47   -41122.809    3944.3936   -45067.202    567.65754   0.98629839 
   49200    289.70033   -437.74181    139876.65   -41183.621    3978.3364   -45161.958      569.453   0.98548629 
   49300    290.14151   -342.47793    139803.74   -41173.959     3984.395   -45158.354    570.79611   0.98600019 
   49400    294.43771   -508.14732    140105.05   -41160.991    4043.3929   -45204.384    572.51329   0.98387972 
   49500     287.5273   -417.67621    140404.98   -41146.475     3948.495    -45094.97     576.1321   0.98177795 
   49600    293.90989   -590.47836    140547.26   -41109.477    4036.1446   -45145.622     577.5983   0.98078408 
   49700    295.36379   -420.96056    140273.29   -41086.841    4056.1104   -45142.951    577.47669   0.98269969 
   49800    292.22883   -688.02039    140306.14   -41050.294    4013.0592   -45063.353    578.26999    0.9824696 
   49900    289.27135   -655.29314    140231.25   -41133.803    3972.4454   -45106.249    579.55541   0.98299431 
   50000    292.54132    -120.4836    140168.28   -41187.678    4017.3506   -45205.029    580.30538   0.98343591 
   50100    290.85936   -407.98665    140176.89   -41202.302    3994.2529   -45196.555    581.78203   0.98337546 
   50200    291.61413   -385.88641     140250.2   -41209.611    4004.6178   -45214.228    583.17909   0.98286144 
   50300    289.86381   -335.24568    140336.59   -41146.553    3980.5814   -45127.134    585.13538   0.98225644 
   50400    291.47244   -609.59088    140309.78   -41192.972    4002.6721   -45195.644    586.49173   0.98244409 
   50500    285.01889   -463.92285    140367.18   -41206.874    3914.0482   -45120.922    588.14863   0.98204238 
   50600    284.63762   -440.81959    140177.51   -41214.575    3908.8123   -45123.388    588.58271   0.98337115 
   50700    294.60615   -530.83742     140216.5   -41064.107    4045.7061   -45109.813    589.25858   0.98309771 
   50800    294.98379   -528.68282    140284.99   -41001.181    4050.8919   -45052.073    590.90494   0.98261774 
   50900    292.18876   -269.10883    140278.26   -41067.919     4012.509   -45080.428    592.15939   0.98266486 
   51000    289.84295   -404.24344    140337.35   -41113.831     3980.295   -45094.126    594.19553   0.98225107 
   51100    291.64687   -627.97005       140250   -41094.537    4005.0674   -45099.604    595.48103   0.98286286 
   51200    294.80277   -674.65505    140008.53   -40995.923    4048.4062   -45044.329    596.15234   0.98455802 
   51300    293.72663   -345.91765     140022.6   -40993.812    4033.6279    -45027.44     597.3598   0.98445906 
   51400    290.05943   -577.95517       139902    -41163.65    3983.2677   -45146.918    598.10978   0.98530771 
   51500     289.9629   -676.36536    140084.57   -41246.171    3981.9421   -45228.113    600.09235   0.98402358 
   51600    291.35801   -452.21873    140065.18   -41190.492    4001.1006   -45191.593    601.44279   0.98415977 
   51700     296.5645   -449.87864    140129.41   -41126.088    4072.5992   -45198.687     602.1209    0.9837087 
   51800    286.87099   -728.65543    140137.27   -41229.743    3939.4822   -45169.226    603.67986    0.9836535 
   51900    292.36184   -602.44159    139971.69   -41276.968    4014.8858   -45291.854    604.80186   0.98481709 
   52000    290.31341   -719.82137    140202.52   -41224.017    3986.7555   -45210.772    607.17902   0.98319575 
   52100    287.98278    -571.9773    140322.43   -41205.081      3954.75   -45159.831    609.04848   0.98235551 
   52200    288.50474   -437.64236    140585.18   -41183.643    3961.9178   -45145.561     611.2991   0.98051952 
   52300    292.81121   -362.87586    140695.53   -41142.403    4021.0569   -45163.459    612.54627   0.97975049 
   52400    291.31093   -552.21564    141192.06   -41027.291    4000.4541   -45027.746     615.3684   0.97630499 
   52500    295.15456   -312.67354    140791.03    -41036.69    4053.2371   -45089.927    615.89839   0.97908593 
   52600    291.32817   -598.66888    140722.67   -41161.406    4000.6909   -45162.097    616.56935   0.97956153 
   52700     287.2451   -592.45953    140794.79   -41178.386    3944.6197   -45123.006    617.13356   0.97905978 
   52800    287.55082   -468.74808    140696.99   -41191.044     3948.818   -45139.862    618.26073   0.97974034 
   52900    283.11752   -701.83494    140772.62   -41263.087    3887.9373   -45151.024    619.70797   0.97921395 
   53000    285.08241   -674.23304    140802.85   -41314.326    3914.9205   -45229.247    621.10712   0.97900371 
   53100    285.03273   -578.54787    140426.18   -41302.322    3914.2381    -45216.56    621.02724   0.98162978 
   53200     285.9734    -549.3344    140448.87   -41129.482     3927.156   -45056.638    621.90847    0.9814712 
   53300    290.50546   -577.67467    140120.94   -41137.781    3989.3929   -45127.174    622.06525   0.98376814 
   53400    296.90621   -515.75626    140475.52   -41006.308    4077.2918     -45083.6    623.98168   0.98128494 
   53500    294.38892   -658.05708    140213.08   -40999.511    4042.7229   -45042.234    624.70695   0.98312165 
   53600    290.49376    -314.3344    140513.21   -40983.443    3989.2322   -44972.675    626.42292   0.98102174 
   53700    296.32425   -452.52578    140345.87   -41038.086       4069.3   -45107.386    626.93731   0.98219149 
   53800    291.04334   -519.36058    140373.11   -41156.167    3996.7794   -45152.946    628.92148   0.98200087 
   53900    287.54153   -422.82618    140501.63    -41149.64    3948.6904    -45098.33      629.942   0.98110265 
   54000    289.26462   -659.05519    140614.02    -41094.09     3972.353   -45066.443    631.16466   0.98031842 
   54100    289.41224   -406.64079    140323.35   -41062.036    3974.3801   -45036.416    631.60835   0.98234908 
   54200    286.99516   -748.46353    140010.12   -41106.325    3941.1874   -45047.513    632.33009   0.98454678 
   54300    292.13464   -711.91371    140029.19   -41024.319    4011.7657   -45036.084    632.70812   0.98441275 
   54400    285.94688   -728.71862    140117.28       -41108    3926.7918   -45034.791    633.84191   0.98379383 
   54500    289.92096   -471.68921    140073.87   -41073.527    3981.3662   -45054.894    635.18166   0.98409869 
   54600    286.85567   -319.87737    139938.89   -41076.435    3939.2719   -45015.707    635.51895   0.98504794 
   54700    287.90755   -466.25038    139783.43    -41113.88    3953.7169   -45067.597    636.13571   0.98614344 
   54800    284.93634   -500.78169    139571.39   -41083.865    3912.9144   -44996.779    636.86977   0.98764167 
   54900    293.63159   -591.71709    139450.55   -40981.453    4032.3228   -45013.775    637.63815   0.98849747 
   55000    296.92431   -501.94438    139621.19   -40952.168    4077.5403   -45029.709    639.65867    0.9872894 
   55100    298.02902   -508.70245    139965.23   -40978.685    4092.7109   -45071.396    641.92146   0.98486256 
   55200    290.45352   -470.33101    140350.57   -41012.047    3988.6796   -45000.727    644.82944   0.98215859 
   55300    292.85426   -899.28617    140045.27   -41000.699    4021.6481   -45022.347    645.25473   0.98429972 
   55400    296.29672   -544.19178    140146.21   -40971.204    4068.9219   -45040.126    647.68839   0.98359077 
   55500    289.99023   -437.33156    139960.78   -41002.093    3982.3174    -44984.41    648.29331   0.98489386 
   55600    296.87561   -411.13419    140327.61   -40941.578    4076.8716   -45018.449    650.26266    0.9823193 
   55700    295.05799   -837.77411    140143.38   -40969.334     4051.911   -45021.245    650.66612   0.98361059 
   55800    295.32263    -683.3434    140144.25   -41088.525    4055.5451    -45144.07    651.68237   0.98360452 
   55900    287.26019   -758.63714    139739.37   -41181.283     3944.827    -45126.11    651.66826   0.98645442 
   56000    284.32279   -554.74646    139854.81    -41244.06    3904.4888   -45148.549    653.16959   0.98564016 
   56100    286.77729   -514.01451    139966.75   -41170.177    3938.1955   -45108.373    654.24688    0.9848519 
   56200    291.67783    -511.5148    140271.31   -41138.713    4005.4926   -45144.206    656.40256   0.98271357 
   56300    287.86354   -567.60196    140270.55   -41062.507    3953.1125    -45015.62    657.69963   0.98271885 
   56400    294.48385   -454.59811    140166.28   -40949.134    4044.0266   -44993.161    658.35545   0.98344989 
   56500    291.38513   -166.87687    140422.93   -41048.173    4001.4731   -45049.646    660.53606   0.98165246 
   56600     294.5478   -393.87062    140797.84   -40998.502    4044.9048   -45043.407     662.5348   0.97903857 
   56700    295.40887   -551.52134    140910.39   -41033.085    4056.7295   -45089.815    664.02564   0.97825662 
   56800    288.44382   -383.98596    140974.15   -40975.973    3961.0813   -44937.054      664.549   0.97781414 
   56900    288.27722   -749.89734    140509.02   -41080.649    3958.7934   -45039.443    663.59071   0.98105102 
   57000    289.81689   -394.98774    140467.83   -41117.739    3979.9371   -45097.676    664.72975   0.98133866 
   57100    286.17608   -457.11306    140336.26   -41173.893    3929.9393   -45103.832    664.20155   0.98225876 
   57200     289.5831   -694.82158    140205.91   -41276.172    3976.7266   -45252.899    665.22014   0.98317192 
   57300    286.34806   -162.67562    140422.65     -41221.7    3932.3011   -45154.001    667.19516   0.98165442 
   57400    287.85516   -533.92308    140630.45   -41232.043    3952.9975    -45185.04    668.27469    0.9802039 
   57500    290.54904    -419.8722    140383.26   -41181.391    3989.9914   -45171.383    668.37504   0.98192985 
   57600    286.20856   -852.96404    140263.41   -41229.967    3930.3853   -45160.353    669.64196   0.98276887 
   57700    286.58236   -678.60978    140160.43   -41192.354    3935.5186   -45127.873    670.57374   0.98349096 
   57800    293.56985   -391.86472    140487.04   -41063.723     4031.475   -45095.198    673.16979   0.98120449 
   57900     283.5383   -421.31858    140403.27   -41138.423    3893.7158   -45032.139    674.19089   0.98178994 
   58000    282.22006   -564.32858    140519.92   -41143.442     3875.613   -45019.055    675.57654   0.98097488 
   58100    289.19284   -470.03189    140276.19   -41041.543    3971.3672    -45012.91    676.13402   0.98267934 
   58200    289.66877   -676.96788    140343.55   -41151.563    3977.9031   -45129.466    676.46391   0.98220774 
   58300    287.45226   -525.59707    140444.57   -41157.035    3947.4646     -45104.5    677.95913   0.98150122 
   58400    291.74172   -391.80054    140396.95   -41093.537      4006.37   -45099.907    679.30239   0.98183414 
   58500    293.00581   -364.52778    140341.52   -40995.456    4023.7292   -45019.185    679.78686   0.98222194 
   58600    294.18633   -759.45953    140369.25   -41098.821    4039.9408   -45138.762    681.57673   0.98202791 
   58700     292.0546   -506.42417    140205.44   -41045.654    4010.6666   -45056.321    683.19401   0.98317522 
   58800    289.83579   -312.81434    140290.03   -41034.419    3980.1966   -45014.616    684.17823   0.98258239 
   58900    287.89506   -327.16848    140394.64   -40979.388    3953.5453   -44932.933    686.39163   0.98185031 
   59000    291.86973   -536.24696    140415.21   -41050.076    4008.1279   -45058.203    686.05444   0.98170642 
   59100    291.78604   -311.14649    140527.43   -41021.106    4006.9787   -45028.084    687.51588    0.9809225 
   59200    288.08399   -175.78515    140541.77   -41087.071    3956.1398   -45043.211     688.3255   0.98082241 
   59300    290.18916   -813.84418    140273.63   -41080.384    3985.0493   -45065.434    688.40931   0.98269731 
   59400    293.82751   -377.21157    140271.95    -41032.89    4035.0132   -45067.903    689.31451   0.98270908 
   59500    291.71053   -650.48866    140190.12   -41059.688    4005.9417    -45065.63    689.67055   0.98328266 
   59600    295.84896   -395.58679    140536.57   -40969.572    4062.7731   -45032.345    691.72862   0.98085868 
   59700    291.35513   -693.80885    140268.39    -41029.86     4001.061   -45030.921    692.75549   0.98273401 
   59800     291.6302   -377.45614    140174.02   -41005.416    4004.8385   -45010.255    693.68517   0.98339561 
   59900    289.76931   -265.22898    140416.85   -41069.217    3979.2837   -45048.501    695.85745   0.98169497 
   60000    288.66021   -477.10467    140158.42   -41055.365    3964.0529   -45019.418    695.93689   0.98350505 
   60100    294.24598   -452.80383    140109.23   -41063.716      4040.76   -45104.476    697.27719   0.98385039 
   60200     289.4464   -667.33967    139911.96   -41206.644    3974.8493   -45181.493    697.15294   0.98523753 
   60300    293.25542   -567.32114    140095.28   -41144.368     4027.157   -45171.525    699.38927   0.98394833 
   60400    292.76751   -486.60266    140123.88   -41152.007    4020.4568   -45172.464    699.86728   0.98374751 
   60500    283.88849   -411.23994    139923.34    -41237.43    3898.5248   -45135.955    701.13397   0.98515741 
   60600    285.77706   -611.24573    140077.75   -41184.833    3924.4598   -45109.293    702.89126   0.98407144 
   60700    287.52351   -484.74109    139929.57   -41207.117     3948.443    -45155.56    702.59236   0.98511353 
   60800    289.46879   -677.10701    139618.82   -41150.434    3975.1567   -45125.591    702.34697    0.9873061 
   60900    291.66257   -397.04689    139816.04   -41075.933    4005.2831   -45081.216    703.92422   0.98591344 
   61000    297.21526   -537.43796    139890.66    -40997.82    4081.5358   -45079.356    705.22003   0.98538754 
   61100    296.36679   -564.58693    139921.51   -40919.905    4069.8842    -44989.79    706.32629   0.98517033 
   61200    295.33398   -616.20709    139796.05   -40972.894     4055.701   -45028.595    706.89883   0.98605447 
   61300    296.61135   -458.21996    139907.46    -40952.78    4073.2426   -45026.023     708.9461   0.98526922 
   61400    296.24471   -614.58621    139926.65   -40849.914    4068.2077   -44918.122     711.3852    0.9851341 
   61500    301.21712   -280.57951    139914.98   -40875.594    4136.4917   -45012.086    713.83998   0.98521626 
   61600    294.88198   -755.22852    140290.82   -40980.828    4049.4939   -45030.322    715.92529    0.9825769 
   61700    289.95493   -557.65891    140089.57   -41030.676    3981.8327   -45012.508     715.2772   0.98398842 
   61800    289.07306   -574.71393    139890.72   -41056.049    3969.7224   -45025.772    715.29959   0.98538714 
   61900     293.6218   -581.52631    140186.88   -40977.851    4032.1884    -45010.04    718.21605   0.98330544 
   62000    293.03506   -564.80152    140143.58   -41068.814    4024.1309   -45092.944    718.90175   0.98360919 
   62100    288.53542   -541.54269    139938.61   -41072.581    3962.3392    -45034.92    718.86595   0.98504994 
   62200     285.8751   -372.71661    139774.39   -41081.438    3925.8061   -45007.244    719.71287   0.98620722 
   62300    290.27194   -587.52217    139643.69   -41097.609    3986.1861   -45083.795    720.51459   0.98713029 
   62400    288.57852   -152.66093    139729.25   -41137.386    3962.9311   -45100.317    722.43384   0.98652582 
   62500    294.04253   -487.98619    139896.27   -41105.136    4037.9661   -45143.102    723.61234   0.98534807 
   62600    290.46405   -511.43364    140081.55   -41083.766    3988.8242    -45072.59    725.26196   0.98404476 
   62700     292.8694   -470.91877    140187.43   -41053.758     4021.856   -45075.614    726.72663   0.98330151 
   62800    285.11962   -354.06444    140391.27   -41099.128    3915.4314    -45014.56    727.80672   0.98187385 
   62900    294.75634   -598.25675    140503.25   -41039.205    4047.7685   -45086.973    730.34711   0.98109133 
   63000    287.80049   -368.44025    140546.17   -41073.816    3952.2467   -45026.063     730.9754   0.98079171 
   63100    295.43785     -424.987    140814.69   -41063.238    4057.1274   -45120.365    733.47372   0.97892143 
   63200    288.44106   -478.52778    140773.27   -41028.807    3961.0434    -44989.85    735.50178   0.97920945 
   63300    284.82915   -519.91949    140515.64   -41130.261    3911.4425   -45041.703    735.54716   0.98100482 
   63400    289.27821   -486.55793    140518.98   -41161.145    3972.5396   -45133.685    736.43012   0.98098148 
   63500    289.08035   -451.26691    140461.78   -41061.291    3969.8224   -45031.114    737.78503     0.981381 
   63600    292.27203   -705.12917    140761.52   -41044.777    4013.6525   -45058.429    739.67617   0.97929122 
   63700    286.70542   -515.39561    140702.42   -41152.552    3937.2086   -45089.761    739.71393   0.97970256 
   63800    285.25972   -511.05012    140522.27    -41170.22    3917.3553   -45087.575    739.42867   0.98095853 
   63900    288.94515   -420.60335    140558.73    -41097.15    3967.9659   -45065.116    739.59266   0.98070403 
   64000    284.08282   -687.76302    140378.95    -41145.91    3901.1934   -45047.104    739.21772   0.98196003 
   64100    290.10776   -485.62918    140212.57   -41126.836    3983.9315   -45110.767     739.9393   0.98312525 
   64200     286.2368   -660.23442    139990.43   -41109.156    3930.7731   -45039.929    739.31833    0.9846853 
   64300     289.5645   -595.51166    139762.66   -41149.117    3976.4711   -45125.588    739.31087   0.98629004 
   64400    290.94212   -550.80452    139617.06    -41187.84    3995.3894    -45183.23    740.28452    0.9873186 
   64500    286.37439   -390.29926    139715.21   -41226.238    3932.6626     -45158.9    742.69628   0.98662497 
   64600    283.10888   -462.69029     139642.5   -41167.334    3887.8187   -45055.153     744.3357    0.9871387 
   64700    287.67714   -390.21892    139797.59   -41082.748    3950.5527   -45033.301    745.69203   0.98604359 
   64800    293.64208   -700.40625    139993.45   -40951.321    4032.4668   -44983.788    749.11276   0.98466407 
   64900    295.56443   -590.48975     139982.9   -40994.978    4058.8657   -45053.844    751.32382   0.98473824 
   65000    288.88234   -657.99575    139797.01   -41069.059    3967.1033   -45036.162    752.55376   0.98604766 
   65100    290.04139   -189.98871    139717.04   -41183.922    3983.0201   -45166.942     753.4097   0.98661209 
   65200    290.03315    -439.1288    139965.93   -41141.538    3982.9069   -45124.445    755.58336   0.98485767 
   65300     283.0652    -352.7712    139856.36   -41170.222    3887.2189   -45057.441    756.44541   0.98562924 
   65400    284.97227   -424.13902    140062.32   -41217.914    3913.4079   -45131.322    758.73205   0.98417987 
   65500    290.57823   -408.28557    140379.23   -41108.674    3990.3922   -45099.067    761.15095   0.98195805 
   65600    298.33976   -271.70814    140863.83   -41033.087    4096.9781   -45130.065     764.0614   0.97857992 
   65700    291.66926    -582.6298    140898.63    -41023.37    4005.3749   -45028.745    765.44443   0.97833821 
   65800    291.92332   -567.31533    140822.18    -41102.24    4008.8639   -45111.104    767.07986   0.97886933 
   65900     289.0734   -587.90775    141160.72   -41067.258     3969.727   -45036.985    768.56781   0.97652176 
   66000    287.34296   -581.55155    140766.62    -41110.64    3945.9636   -45056.603    768.07376   0.97925571 
   66100    292.81961   -368.21191    140852.74   -41096.422    4021.1722   -45117.595    768.28702   0.97865695 
   66200    294.67507   -632.93416    140845.79   -41019.329    4046.6525   -45065.981    769.16409   0.97870525 
[...]
   84600    286.24628   -592.22171    140430.03   -41173.283    3930.9034   -45104.186     980.6573   0.98160282 
   84700    285.90577   -583.73437    140363.78    -41248.67    3926.2273   -45174.897    980.21784   0.98206614 
   84800    287.88915   -491.57946    140080.14    -41185.67    3953.4642   -45139.134    979.30088   0.98405467 
   84900    287.08619   -642.67906    140208.37   -41147.539    3942.4375   -45089.976    981.18996   0.98315471 
   85000    288.93497   -408.84084    140407.43   -41131.072    3967.8261   -45098.898    982.47458   0.98176083 
   85100    288.10596     -606.253     140355.7   -41096.383    3956.4416   -45052.825    984.26103   0.98212271 
   85200    291.33416   -388.71304    140390.84   -41060.311    4000.7731   -45061.085    984.94449   0.98187684 
   85300    292.42477   -467.27363    140483.77   -41066.273    4015.7501   -45082.024    985.69043   0.98122734 
   85400    287.08033    -549.4506    140248.65   -41067.064     3942.357   -45009.421    985.15042   0.98287236 
   85500    290.71439   -573.54091    139864.37   -41097.941    3992.2621   -45090.203    984.48397   0.98557275 
   85600    289.71856   -682.26712    139714.76   -41080.582    3978.5868   -45059.169    985.30689   0.98662816 
   85700    289.58183   -562.52728    140162.15   -41095.301    3976.7091    -45072.01    988.44414   0.98347889 
   85800    289.84115   -443.85479    140376.41   -41079.921    3980.2703   -45060.192    990.79932   0.98197776 
   85900    286.75488     -334.786    140336.69   -41059.959    3937.8877   -44997.847    992.88728   0.98225574 
   86000    289.94918   -560.70704    140416.09   -41076.322    3981.7537   -45058.075    993.91439   0.98170027 
   86100    291.54004   -466.01194    140493.67   -41108.879    4003.6004   -45112.479    995.54178    0.9811582 
   86200    287.00933   -476.26163    140422.72   -41089.323     3941.382   -45030.704    996.57904   0.98165391 
   86300    292.42256   -687.61644    140395.45    -41119.96    4015.7197    -45135.68    998.41673    0.9818446 
   86400    293.06173   -505.88155    140026.93   -41098.331    4024.4972   -45122.828    998.35822   0.98442861 
   86500    293.58334     -438.248    140240.14   -41044.709    4031.6602   -45076.369    999.69037   0.98293199 
   86600    284.79071   -369.96855    140406.84   -41094.448    3910.9146   -45005.362    1002.1865   0.98176494 
   86700    289.51607   -436.09802    140406.02   -41075.898    3975.8061   -45051.704    1003.1049   0.98177069 
   86800     288.2065    -371.1742    140114.56   -41060.653    3957.8222   -45018.475    1003.0639   0.98381294 
   86900    289.48613    -809.3175    140080.15   -41048.679    3975.3949   -45024.074    1003.3645   0.98405457 
   87000    289.35678    -577.2635    140125.86    -41106.47    3973.6185   -45080.089    1004.3892   0.98373359 
   87100    292.40412   -100.45941    140125.65   -41110.068    4015.4665   -45125.535     1005.184   0.98373507 
   87200     289.5843   -550.51976    140422.95   -41128.035     3976.743   -45104.779    1007.9707   0.98165233 
   87300    289.86021   -589.45372    140495.65    -40991.57    3980.5319   -44972.102    1009.3654   0.98114435 
   87400    291.26786   -740.29424    140138.39   -41071.889    3999.8626   -45071.752    1009.5253   0.98364563 
   87500    291.79892   -444.66133    140258.15   -41107.389    4007.1555   -45114.544      1011.72   0.98280574 
   87600    285.49958     -483.258    140349.18   -41137.852    3920.6492   -45058.501    1012.1269   0.98216834 
   87700    296.03141   -353.16212    140295.93   -41115.763    4065.2785   -45181.041    1013.2826   0.98254109 
   87800     290.4207   -554.63262    140474.69   -41003.175    3988.2289   -44991.404    1014.9577   0.98129077 
   87900    290.79359   -434.42929    140224.72   -41007.113    3993.3497   -45000.463    1015.5151   0.98304005 
   88000    289.18941   -586.31541    140286.88   -41009.404    3971.3201   -44980.724    1016.4137   0.98260449 
   88100    290.19703   -496.61799     140176.8   -41016.611    3985.1574   -45001.768    1017.2307   0.98337608 
   88200    296.43665   -728.30514    140060.01    -40964.34    4070.8436   -45035.184    1018.3856   0.98419612 
   88300    292.60573   -391.64642    140149.35   -41035.974     4018.235   -45054.209    1019.2747   0.98356873 
   88400    285.89991   -571.72884     139895.5   -41118.213    3926.1468    -45044.36    1019.4435   0.98535345 
   88500    289.09349   -497.99907    139545.83   -41132.263     3970.003   -45102.266     1019.694   0.98782253 
   88600     289.3049    -396.5118    139581.48   -41072.229    3972.9061   -45045.135    1021.9381   0.98757023 
   88700     293.3844   -470.09149    139649.83   -41062.835    4028.9282   -45091.763    1023.7472   0.98708688 
   88800    289.04567   -611.41779    139884.26   -41064.314    3969.3463    -45033.66    1025.4208   0.98543267 
   88900    287.37578   -452.13282    139931.57   -41098.223    3946.4143   -45044.638     1025.841   0.98509946 
   89000    289.98984   -174.15679    140167.29   -41018.501    3982.3121   -45000.813    1028.2225   0.98344282 
   89100    291.93718   -602.48137    140029.01   -40965.331    4009.0542   -44974.385    1028.4335   0.98441402 
   89200    287.64038   -460.67614    139862.83   -41084.053    3950.0479   -45034.101    1028.8909   0.98558365 
   89300    288.04005   -417.50549    140400.55   -41069.068    3955.5364   -45024.604     1031.019   0.98180895 
   89400    292.87672   -427.35897    140264.09   -41040.332    4021.9565   -45062.288    1032.1256   0.98276414 
   89500    289.68388   -734.59017    140415.08   -41138.194    3978.1105   -45116.305    1033.8592   0.98170737 
   89600    295.13025   -653.56592    140259.83   -41092.038    4052.9033   -45144.941    1033.6834   0.98279395 
   89700    290.09087   -582.34906    140257.63   -41080.278    3983.6995   -45063.977    1035.7795   0.98280943 
   89800    290.33481   -402.45986    140258.03   -41100.373    3987.0495   -45087.423      1037.21   0.98280659 
   89900    287.84476   -365.06648    140443.73   -41118.753    3952.8546   -45071.608    1039.5711   0.98150711 
   90000    290.95988   -503.73495    140252.11   -41092.911    3995.6333   -45088.544    1039.5966   0.98284809 
   90100    289.38165   -532.11102    140244.68   -41063.444    3973.9601   -45037.404    1040.4338   0.98290011 
   90200    289.64155   -629.38691    140253.28   -41219.036    3977.5293   -45196.565    1040.5942   0.98283986 
   90300    289.43186   -292.40843    140194.55   -41220.647    3974.6496   -45195.296    1040.5982    0.9832516 
   90400    285.99342   -820.28215    140364.37   -41128.153     3927.431   -45055.584    1042.4384   0.98206202 
   90500    286.58029    -468.3127    140491.51   -41031.945    3935.4902   -44967.435    1043.5534   0.98117328 
   90600    292.37671   -612.03738    140703.34    -41017.39    4015.0901    -45032.48    1045.8667   0.97969615 
   90700    291.69738   -558.56075    140421.28   -41018.746     4005.761   -45024.507    1045.3847   0.98166402 
   90800    290.11698   -673.74999    140500.27   -40968.872     3984.058    -44952.93     1046.755   0.98111212 
   90900    287.79374   -696.97551    140476.48   -41114.378    3952.1539   -45066.531      1047.92   0.98127828 
   91000    291.58966   -546.68826    140168.69   -41082.801    4004.2819   -45087.083    1046.8809     0.983433 
   91100    290.78344   -457.43861    140014.73    -41038.88    3993.2103    -45032.09    1047.8729   0.98451437 
   91200    287.63198   -569.78525    140124.37   -41083.129    3949.9325   -45033.061    1050.0478   0.98374408 
   91300    291.22548   -531.46198    140175.79   -41116.893    3999.2806   -45116.174    1050.7246   0.98338323 
   91400     290.7148   -536.73149    139845.35   -41165.139    3992.2677   -45157.406    1050.6541   0.98570681 
   91500    289.95054   -337.43509    139814.29   -41159.713    3981.7724   -45141.485    1051.4852   0.98592582 
   91600    289.65484   -485.99249    139917.33   -41120.315    3977.7118   -45098.027     1052.232   0.98519975 
   91700    285.95229    -376.4639     140033.2    -41204.58    3926.8661   -45131.446    1053.0018    0.9843845 
   91800     286.4554   -426.24667    140311.71   -41266.326    3933.7751   -45200.101       1056.1   0.98243058 
   91900    291.70403    -538.8648    140256.99   -41212.922    4005.8523   -45218.775    1056.2029   0.98281387 
   92000    289.08796   -562.95342    140359.56   -41116.113     3969.927    -45086.04    1058.0219   0.98209567 
   92100     288.4928   -366.31662    140008.38   -41088.594     3961.754   -45050.348     1058.114   0.98455904 
   92200    292.43746   -374.31136    140357.59   -41020.839    4015.9243   -45036.764    1062.3532   0.98210942 
   92300    291.40152   -573.47451    140036.03   -41053.043    4001.6981   -45054.741    1061.9117   0.98436462 
   92400    291.62384   -374.46966     140257.5   -41096.853    4004.7512   -45101.605    1064.5843   0.98281032 
   92500    293.47633   -186.77792    140519.84   -41029.033    4030.1906   -45059.224    1067.2615   0.98097546 
   92600    294.61836   -388.13099    140838.71   -41006.453    4045.8737   -45052.327    1070.7609   0.97875445 
   92700    289.19424   -730.51143    140739.53   -41074.513    3971.3864   -45045.899    1071.4805   0.97944423 
   92800    287.78192   -537.33124     140750.9   -41086.706    3951.9916   -45038.698    1073.7871   0.97936506 
   92900    290.93746   -377.41601    140638.23    -41039.72    3995.3254   -45035.045    1073.7489    0.9801497 
   93000    295.05891   -363.49387    140701.36   -41040.328    4051.9236   -45092.252     1074.388   0.97970994 
   93100    293.26352   -511.53529    141050.18   -41045.852    4027.2683   -45073.121    1078.4683   0.97728706 
   93200    289.96321   -719.55575    140813.23   -41031.729    3981.9464   -45013.676    1078.7362   0.97893157 
   93300    295.74472   -694.63699    140571.26    -40953.74    4061.3416   -45015.082    1077.2448   0.98061663 
   93400    292.42209    -697.0646    140629.96   -41051.225    4015.7133   -45066.938    1077.8719   0.98020736 
   93500    289.37983   -534.62191    140682.86   -41075.481    3973.9351   -45049.416    1078.7675   0.97983871 
   93600    290.47709   -319.88956    140674.72   -41104.598    3989.0034   -45093.602    1080.4464   0.97989543 
   93700    289.39591   -383.65613     140173.7    -41113.81     3974.156   -45087.966    1078.5077   0.98339785 
   93800    293.30783   -442.68142    140066.54   -41013.648    4027.8767   -45041.524    1078.3106   0.98415024 
   93900    290.39776   -570.11104       139997    -41085.84    3987.9139   -45073.753     1079.075   0.98463909 
   94000    287.93075   -403.04358    139765.83   -41098.589    3954.0354   -45052.624    1078.6431   0.98626762 
   94100    288.72772   -520.33798    139645.97   -41178.556    3964.9799   -45143.536    1079.8809   0.98711418 
   94200    292.55699   -347.64206    139747.85    -41146.68    4017.5658   -45164.245    1080.9303   0.98639457 
   94300    288.69522   -456.66962    139836.04   -41136.991    3964.5336   -45101.525    1081.7425   0.98577246 
   94400    287.87674    -914.4862    139914.03   -41131.685    3953.2938   -45084.979    1083.1078   0.98522301 
   94500    289.12472   -497.13477    139527.06   -41152.749    3970.4318   -45123.181    1081.7288   0.98795546 
   94600    285.96469   -585.77473    139828.79   -41250.692    3927.0363   -45177.728     1083.738   0.98582356 
   94700    291.37634   -495.46765    140014.02   -41126.018    4001.3524   -45127.371    1086.7176   0.98451939 
   94800    288.55522   -601.32305    140178.59   -41097.398    3962.6111   -45060.009    1089.1669   0.98336355 
   94900    294.94961   -602.42778    140214.04   -41100.461    4050.4226   -45150.884    1090.2604   0.98311495 
   95000    290.62263    -316.6205    140333.43   -41061.156     3991.002   -45052.158    1091.0697   0.98227852 
   95100    295.83771   -465.47915    140294.87    -41061.69    4062.6186   -45124.309    1091.8332   0.98254849 
   95200    291.30803   -540.19831    140287.03   -41083.499    4000.4143   -45083.913    1092.6829    0.9826034 
   95300    290.78377   -571.04273    140117.22   -41129.399    3993.2148   -45122.613    1093.6545   0.98379425 
   95400    293.33675   -544.22469    139731.21   -41141.365    4028.2739   -45169.639     1093.229   0.98651198 
   95500    290.67157   -361.34265    139778.66   -41133.999    3991.6741   -45125.674    1094.9604   0.98617712 
   95600    284.87138   -403.62974    140008.92   -41243.242    3912.0224   -45155.265    1096.6864   0.98455522 
   95700    286.35468   -509.23406    140064.98   -41166.573     3932.392   -45098.965    1098.9976   0.98416119 
   95800    287.52656   -322.03387    140126.12   -41120.465    3948.4849    -45068.95    1098.5669   0.98373178 
   95900    287.62656   -266.47002    140563.96   -41101.775    3949.8581   -45051.633    1101.3292   0.98066757 
   96000    292.66198   -386.11454    140768.16   -41053.334    4019.0075   -45072.341     1103.652   0.97924502 
   96100    292.59869   -798.66504    140730.03   -41050.649    4018.1383   -45068.787    1103.5396   0.97951033 
   96200    289.90496   -557.85065    140316.34    -41063.73    3981.1465   -45044.876    1103.6036   0.98239819 
   96300    294.95176   -504.09394    140092.12   -41056.254    4050.4522   -45106.706     1103.288   0.98397055 
   96400     289.6294   -501.99947     140533.4   -41097.503    3977.3623   -45074.866    1106.5271   0.98088082 
   96500    289.98332   -484.55519    140563.05   -41075.162    3982.2225   -45057.385    1108.1007    0.9806739 
   96600    291.54515   -707.42979    140586.69   -41020.458    4003.6706   -45024.128    1110.1704   0.98050903 
   96700    292.79722   -572.01997    140040.95    -40995.97    4020.8647   -45016.834    1107.3711   0.98433004 
   96800    293.62782   -295.65057     140164.8   -40990.111     4032.271   -45022.382    1108.9251    0.9834603 
   96900    287.51577   -582.95706    140491.67   -41041.655    3948.3367   -44989.992    1111.7529   0.98117218 
   97000    290.29013   -671.40921    140519.68   -41007.278    3986.4359   -44993.714    1115.3201   0.98097659 
   97100    291.97725   -523.79868    140453.39   -41018.353    4009.6045   -45027.957    1115.9644   0.98143961 
   97200    287.16022   -775.65683    140127.96    -41038.22    3943.4541   -44981.674    1114.8926   0.98371884 
   97300    295.74799   -429.02084    139958.45   -41095.966    4061.3865   -45157.353    1115.9171   0.98491031 
   97400    290.98631   -468.47392    139818.72   -41093.358    3995.9962   -45089.354    1116.9311   0.98589457 
   97500    296.36345   -386.49311    139941.18   -41123.995    4069.8383   -45193.833    1119.7311   0.98503183 
   97600     290.5912   -490.32693    140097.87   -41113.534    3990.5703   -45104.104    1121.3433   0.98393016 
   97700     288.5921    -347.7975    140323.03    -41131.03    3963.1175   -45094.148    1123.3499   0.98235132 
   97800    295.88376   -299.91423    140316.87   -41115.677    4063.2509   -45178.928    1124.0305   0.98239444 
   97900    292.15024   -415.55123    140528.86   -41054.962      4011.98   -45066.942    1126.0013   0.98091254 
   98000     296.4371   -451.08648    140636.23   -41002.344    4070.8498   -45073.194    1127.0898   0.98016361 
   98100    291.37985   -471.16868    140722.83   -41089.094    4001.4006   -45090.494     1129.917   0.97956045 
   98200    294.41633   -669.97937    140429.64   -41048.589    4043.0994   -45091.688    1129.7531   0.98160554 
   98300    293.41674    -443.1715    140316.57   -40997.916    4029.3724   -45027.288     1130.194   0.98239659 
   98400    295.02334   -375.50481    140015.23   -41035.035    4051.4351    -45086.47    1129.1643   0.98451091 
   98500    295.06311   -486.03463    139887.63   -41073.603    4051.9813   -45125.584    1129.8132   0.98540891 
   98600    293.05317   -295.34877    139931.16   -41107.779    4024.3796   -45132.159    1131.2443   0.98510237 
   98700    289.49751   -326.40989    140250.93   -41116.072    3975.5511   -45091.623    1133.9309   0.98285632 
   98800    294.17213   -593.79822    140287.68     -41091.3    4039.7458   -45131.046    1134.5391    0.9825989 
   98900    288.86008   -478.11598    140107.89   -41083.651    3966.7976   -45050.448     1136.221   0.98385978 
   99000    294.33346   -306.95781    140013.14   -40998.752    4041.9613   -45040.713    1136.6496    0.9845256 
   99100    291.24494   -254.01386    140090.27   -41040.853    3999.5479   -45040.401     1138.372   0.98398355 
   99200    289.41678   -449.41385    140261.41    -41072.04    3974.4426   -45046.482    1138.7711   0.98278289 
   99300    294.24903   -581.52722    140179.32   -41075.864    4040.8018   -45116.666    1138.7219   0.98335845 
   99400    291.62695   -325.12682    140259.75   -41024.218     4004.794   -45029.012       1140.3   0.98279453 
   99500    293.27738   -521.95182    140452.32   -41065.247    4027.4585   -45092.705    1141.8629   0.98144709 
   99600    286.48894   -499.15583    139951.81   -41164.019    3934.2357   -45098.255    1140.0542     0.984957 
   99700    289.20944   -529.69994    140074.64    -41081.73    3971.5952   -45053.325    1142.7542   0.98409328 
   99800    288.75433   -594.23726    140057.12   -41078.973    3965.3453   -45044.318    1144.0782    0.9842164 
   99900    291.28491   -582.08064    139910.46   -41040.916    4000.0968   -45041.013    1144.9217   0.98524808 
  100000    296.05473   -309.04976    139953.26   -41057.947    4065.5987   -45123.545    1145.6005   0.98494679 
  100100     289.8297   -496.29596    139746.71   -41112.826     3980.113   -45092.939     1145.695    0.9864026 
  100200    291.38743    -474.7169    139863.12   -41096.083    4001.5046   -45097.588     1147.729   0.98558158 
  100300     293.2053   -479.06087     140015.4   -41127.264    4026.4688   -45153.732    1148.6054    0.9845097 
  100400     290.0387   -266.96558    139808.35    -41167.36    3982.9831   -45150.343    1149.1112   0.98596773 
  100500    288.26509   -474.32224    139926.28   -41181.239    3958.6268   -45139.865    1149.9876   0.98513669 
  100600     291.0027   -588.28639    139784.38   -41231.084    3996.2214   -45227.305    1150.0645   0.98613679 
  100668    290.54379   -475.50606    139787.11   -41138.426    3989.9193   -45128.346    1151.2622   0.98611749 
Loop time of 117.714 on 6 procs for 100000 steps with 4608 atoms

Performance: 366.992 ns/day, 0.065 hours/ns, 849.519 timesteps/s
98.9% CPU use with 6 MPI tasks x no OpenMP threads

MPI task timing breakdown:
Section |  min time  |  avg time  |  max time  |%varavg| %total
---------------------------------------------------------------
Pair    | 98.422     | 99.24      | 101.11     |   9.1 | 84.31
Neigh   | 6.9842     | 7.1176     | 7.2938     |   3.9 |  6.05
Comm    | 6.8156     | 8.553      | 9.3917     |  30.0 |  7.27
Output  | 0.17965    | 0.1808     | 0.18633    |   0.6 |  0.15
Modify  | 1.8882     | 1.9655     | 2.0451     |   3.3 |  1.67
Other   |            | 0.6565     |            |       |  0.56

Nlocal:        768.000 ave         779 max         758 min
Histogram: 1 1 0 0 2 0 0 1 0 1
Nghost:        1556.00 ave        1568 max        1533 min
Histogram: 1 0 0 0 0 1 1 1 0 2
Neighs:        0.00000 ave           0 max           0 min
Histogram: 6 0 0 0 0 0 0 0 0 0
FullNghs:      22001.0 ave       22462 max       21331 min
Histogram: 1 0 0 0 1 1 0 0 2 1

Total # of neighbors = 132006
Ave neighs/atom = 28.647135
Neighbor list builds = 7040
Dangerous builds = 0

undump              1
unfix               2
unfix               3
unfix               4


################################################
#######         Run Simulation         #########
################################################

reset_timestep      0
log                 log.run_${NAME}
log                 log.run_liq_291K_-500atm_ML
