

read_data data.ice_${TEMP}K_${PRES}atm_ML group ice
read_data data.ice_291K_${PRES}atm_ML group ice
read_data data.ice_291K_-500atm_ML group ice
Reading data file ...
  orthogonal box = (-0.047484181 -0.042208161 -0.042208161) to (57.317994 50.949328 50.949328)
  3 by 1 by 2 MPI processor grid
  reading atoms ...
  4608 atoms
  reading velocities ...
  4608 velocities
  read_data CPU = 0.013 seconds
read_data data.liq_${TEMP}K_${PRES}atm_ML add append shift ${X_HI} ${YZ_LO} ${YZ_LO} group water
read_data data.liq_291K_${PRES}atm_ML add append shift ${X_HI} ${YZ_LO} ${YZ_LO} group water
read_data data.liq_291K_-500atm_ML add append shift ${X_HI} ${YZ_LO} ${YZ_LO} group water
read_data data.liq_291K_-500atm_ML add append shift 50.9493281612736 ${YZ_LO} ${YZ_LO} group water
read_data data.liq_291K_-500atm_ML add append shift 50.9493281612736 0.0422081612732867 ${YZ_LO} group water
read_data data.liq_291K_-500atm_ML add append shift 50.9493281612736 0.0422081612732867 0.0422081612732867 group water
Reading data file ...
  orthogonal box = (-0.047484181 -0.057394676 -0.057394676) to (104.45613 51.048931 51.048931)
  3 by 1 by 2 MPI processor grid
  reading atoms ...
  4608 atoms
  reading velocities ...
  4608 velocities
  read_data CPU = 0.010 seconds

write_data data.icewater_test
System init for write_data ...
WARNING: Communication cutoff is 0.0. No ghost atoms will be generated. Atoms may get lost. (../comm_brick.cpp:167)

# Define potential
#
pair_style sw
pair_coeff * * /data/emrosky-sim/Freezing_Simulations/Melting/MLmW_fancy/ML_mW.sw mW
Reading sw potential file /data/emrosky-sim/Freezing_Simulations/Melting/MLmW_fancy/ML_mW.sw with DATE: 2019-02-27

# Delete water and ice atoms that are overlapping
#
delete_atoms overlap 2.5 water ice
System init for delete_atoms ...
Neighbor list info ...
  update every 1 steps, delay 10 steps, check yes
  max neighbors/atom: 2000, page size: 100000
  master list distance cutoff = 6.0032907
  ghost atom cutoff = 6.0032907
  binsize = 3.0016454, bins = 35 18 18
  2 neighbor lists, perpetual/occasional/extra = 1 1 0
  (1) command delete_atoms, occasional, copy from (2)
      attributes: full, newton on
      pair build: copy
      stencil: none
      bin: none
  (2) pair sw, perpetual
      attributes: full, newton on
      pair build: full/bin/atomonly
      stencil: full/bin/3d
      bin: standard
Deleted 692 atoms, new total = 8524

# set timestep
#
timestep 10.0

# Define output
#
compute 1 all msd
thermo 50
thermo_style custom step temp press vol etotal ke pe c_1[4]

# Neighbor lists
#
neigh_modify delay 0 every 1 check yes

# Set fixes
#
fix 1 all momentum 10 linear 1 1 1 rescale
fix 2 all nph iso ${PRES} ${PRES} ${PCOUPL}
fix 2 all nph iso -500 ${PRES} ${PCOUPL}
fix 2 all nph iso -500 -500 ${PCOUPL}
fix 2 all nph iso -500 -500 10000.0
fix 3 all temp/csvr ${TEMP} ${TEMP} ${TCOUPL} 837492
fix 3 all temp/csvr 291 ${TEMP} ${TCOUPL} 837492
fix 3 all temp/csvr 291 291 ${TCOUPL} 837492
fix 3 all temp/csvr 291 291 5000.0 837492


# Fix ice atoms in place
#
velocity ice set 0.0 0.0 0.0
fix 4 ice setforce 0.0 0.0 0.0

# Run 1.0 ns equilibration of water
#
dump 1 all atom 1000 eq.all.${NAME}.dump
dump 1 all atom 1000 eq.all.coexist_291K_-500atm_ML.dump
run 100000
Neighbor list info ...
  update every 1 steps, delay 0 steps, check yes
  max neighbors/atom: 2000, page size: 100000
  master list distance cutoff = 6.0032907
  ghost atom cutoff = 6.0032907
  binsize = 3.0016454, bins = 35 18 18
  1 neighbor lists, perpetual/occasional/extra = 1 0 0
  (1) pair sw, perpetual
      attributes: full, newton on
      pair build: full/bin/atomonly
      stencil: full/bin/3d
      bin: standard
Per MPI rank memory allocation (min/avg/max) = 4.591 | 4.598 | 4.605 Mbytes
Step Temp Press Volume TotEng KinEng PotEng c_1[4] 
       0    133.33477   -1048.6293    272948.44   -84277.046     3387.429   -87664.475            0 
      50    157.53227     -688.518    272087.61   -83911.709    4002.1773   -87913.886   0.85167496 
     100    163.29459   -476.30867     270638.9   -83605.778    4148.5717   -87754.349    1.7511467 
     150    171.43122   -274.07857     269500.6   -83279.002    4355.2863   -87634.288    2.6663264 
     200    174.20593   -230.38626    269510.57   -82971.459    4425.7791   -87397.238    3.6593915 
     250    182.53553   -577.01963       270775   -82679.903    4637.3962   -87317.299    4.7810165 
     300    182.31535   -683.06169    271718.84   -82372.071    4631.8024   -87003.873    5.9906887 
     350    190.26584   -474.43178    271656.59   -82059.238    4833.7882   -86893.026    7.2075418 
     400    192.31985    -498.4014    271255.06   -81864.163    4885.9712   -86750.134    8.6631765 
     450    197.85394   -504.70244     270972.5   -81638.078    5026.5672   -86664.646    10.214598 
     500    201.43962    -604.4974    271224.31   -81417.421    5117.6629   -86535.084    11.913485 
     550    204.04602   -827.58085    271662.41   -81223.129    5183.8797   -86407.008    13.528139 
     600    210.12208   -353.88747    271746.07   -81011.059    5338.2448   -86349.304    15.181124 
     650    216.02934   -613.69593    272062.62   -80841.161    5488.3213   -86329.482    16.956425 
     700    217.39863   -544.28016    272151.46   -80606.984    5523.1087   -86130.093    18.702624 
     750    216.86252   -285.07144    272332.52   -80445.094    5509.4886   -85954.582     20.37852 
     800    219.66016   -546.12249    272863.54   -80265.153    5580.5638   -85845.717    22.286573 
     850    223.86444   -638.14938    273258.58   -80125.981    5687.3755   -85813.357    24.521667 
     900    226.28303   -529.95045    273413.64   -79974.264     5748.821   -85723.085    26.730276 
     950    231.06867     -631.601    273412.18   -79828.468    5870.4023    -85698.87    28.780744 
    1000    235.61952   -362.68133    273460.38   -79643.592    5986.0185   -85629.611    30.890361 
    1050    234.15845   -565.87885    273740.07   -79519.545    5948.8995   -85468.445    33.177392 
    1100    241.65294   -560.79774    273631.66   -79354.947    6139.3002   -85494.247    35.674935 
    1150    244.24513   -471.94018    273360.49   -79192.712     6205.156   -85397.868    38.045893 
    1200    244.76838   -208.72769     273431.9   -79112.667    6218.4495   -85331.117     40.55268 
    1250    243.34485   -497.82342    274036.89   -78996.974    6182.2839   -85179.258    42.587908 
    1300    242.55081   -721.66739    274603.79   -78917.354    6162.1109   -85079.465    44.921393 
    1350    248.48448   -838.25766    274491.36   -78752.335    6312.8586   -85065.193    47.361381 
    1400    249.58981   -263.34925    273826.27    -78646.15    6340.9399   -84987.089    49.654875 
    1450    255.60159   -188.86847    273723.49   -78520.663     6493.672   -85014.335     52.18154 
    1500    250.06994   -426.68146    274364.83   -78474.064    6353.1379   -84827.202    54.837224 
    1550     254.7273   -610.16943    275018.47   -78355.907    6471.4601   -84827.367    57.349131 
    1600    261.97123   -533.46872    275127.84   -78272.102    6655.4954   -84927.597    60.045027 
    1650    259.27294   -546.17865    275007.42   -78207.486    6586.9443    -84794.43    63.409297 
    1700    259.74664   -627.47998    274665.36   -78139.073    6598.9787   -84738.051    66.346537 
    1750    261.63853   -498.32338    274490.16   -78035.043    6647.0431   -84682.087    68.651786 
    1800    264.44224   -499.14584     274674.3   -78004.616    6718.2725   -84722.888    71.485949 
    1850    263.56804   -480.70866    275179.46   -77893.252    6696.0631   -84589.315    74.613034 
    1900     265.2972   -660.06198    275854.96   -77829.804    6739.9931   -84569.797    78.175176 
    1950    269.46836   -842.55789    275913.99   -77755.079    6845.9633   -84601.042     81.16733 
    2000    269.76661   -625.79424    275448.21    -77654.95    6853.5406    -84508.49    84.142495 
    2050    274.10382   -598.12573    275046.93   -77621.794    6963.7293   -84585.523    86.820706 
    2100    272.34179   -278.62678    275117.91   -77575.484    6918.9641   -84494.448    89.595215 
    2150    276.40173   -245.95813    275511.59   -77476.481    7022.1087   -84498.589    92.506306 
    2200     275.5565   -607.20143    276039.35   -77407.561    7000.6353   -84408.196    95.731212 
    2250    276.24704   -468.60483       276042   -77383.168    7018.1787   -84401.346    98.906821 
    2300    274.24439    -525.2734    275977.79   -77359.466    6967.3006   -84326.766     101.9184 
    2350    277.51155   -588.76906    275994.42   -77290.402    7050.3042   -84340.707    104.83159 
    2400    274.84003   -439.19525    275951.83   -77298.574     6982.433   -84281.006     108.0509 
    2450    276.04157   -412.83631    275909.56   -77316.271    7012.9586    -84329.23    111.39317 
    2500    278.55304   -12.956963    275911.46   -77320.186    7076.7636   -84396.949    114.27043 
    2550    277.33345   -724.48154    276195.93   -77232.406    7045.7795   -84278.186    117.28136 
    2600    275.71972   -432.12495     276222.6   -77235.205    7004.7818   -84239.987    120.49389 
    2650    279.33927   -471.35304    276004.81   -77238.073    7096.7383   -84334.812    123.49406 
    2700    278.35774   -314.08832    275641.46   -77192.889     7071.802   -84264.691    125.75468 
    2750    280.59574   -485.73779    275557.36   -77145.039    7128.6594   -84273.698     128.7436 
    2800    278.98903   -387.94472     275869.7   -77174.401    7087.8401   -84262.241    131.40595 
    2850     281.0351   -526.58843    276309.05   -77129.047    7139.8215   -84268.869    134.63373 
    2900    279.79162   -785.40881    276709.92   -77083.839    7108.2303   -84192.069    137.51844 
    2950    283.67775   -784.41832    276543.29   -77074.081    7206.9593    -84281.04    140.22074 
    3000    281.62952   -270.31081    275884.17   -77076.224     7154.923   -84231.147     143.7043 
    3050    282.93199    93.350998     275286.7   -77056.283    7188.0127   -84244.296    146.25918 
    3100    287.07224   -647.54645    275725.18   -76979.851    7293.1977   -84273.049    149.80039 
    3150    285.29384   -639.46378    276327.04   -76928.201    7248.0168   -84176.218    152.60112 
    3200    280.36381   -493.81738    276775.57   -76880.925    7122.7671   -84003.692    155.73897 
    3250    282.16492   -736.27876    276910.03   -76845.397    7168.5251   -84013.922    158.44733 
    3300    284.76094   -394.49425    276319.31   -76866.793    7234.4782   -84101.271    161.26594 
    3350    288.41495   -431.52328    275820.61   -76893.608    7327.3098   -84220.918    163.45307 
    3400    282.07892   -339.79109    276032.84   -76899.473    7166.3402   -84065.813    166.75352 
    3450    284.71075   -621.59465    276456.55    -76956.24    7233.2031   -84189.443    170.49173 
    3500    281.16673   -501.26646    276438.28   -76951.169    7143.1657   -84094.334    173.82507 
    3550    281.27593   -230.48584    276110.42   -76933.753      7145.94   -84079.693    177.21108 
    3600    283.68421   -635.15456    275916.11   -76914.615    7207.1234   -84121.738    180.29472 
    3650    289.84828    -732.1086    276100.79   -76888.188    7363.7243   -84251.913    183.97107 
    3700    286.70259   -595.14634    276335.38   -76842.828    7283.8066   -84126.635    187.28088 
    3750    285.25654   -563.87973    276555.71   -76732.243     7247.069   -83979.312    190.81882 
    3800    286.41914   -570.71326     276419.6   -76727.712    7276.6055   -84004.317    194.19129 
    3850     287.0292   -310.44088       276194    -76683.44    7292.1042   -83975.544    196.86563 
    3900    293.57856   -319.40137     276382.7   -76658.255    7458.4937   -84116.749    200.38973 
    3950    292.05836   -510.45584    276775.81   -76650.987    7419.8722   -84070.859    204.08678 
    4000    285.21665   -258.97979    276876.29   -76704.533    7246.0556   -83950.589    207.06225 
    4050    293.29445   -584.81565    276858.47   -76707.576    7451.2758   -84158.852    210.74877 
    4100    292.58069   -467.60211    276624.92   -76698.307    7433.1422   -84131.449    213.85237 
    4150    284.42302   -704.43719    276758.04   -76729.806     7225.893   -83955.699    216.21877 
    4200    292.38822   -546.40171    276756.95   -76703.538    7428.2527   -84131.791    218.96795 
    4250    291.50602   -350.13119    276522.76   -76681.063      7405.84   -84086.903    221.39092 
    4300     290.3316   -425.15004    276400.33   -76660.178    7376.0032   -84036.181    224.41942 
    4350     283.2475   -427.59638    276532.14   -76650.356    7196.0284   -83846.385     227.1047 
    4400    289.30433   -670.22914     277013.1   -76660.276     7349.905   -84010.181    229.40465 
    4450    286.84955   -582.98613    277020.64   -76634.758    7287.5402   -83922.298    232.27126 
    4500    290.85434   -511.77966    276732.33    -76616.99    7389.2837   -84006.273    234.39742 
    4550    291.69714   -346.42429    276613.28   -76615.712    7410.6955   -84026.408    237.78491 
    4600     291.3133   -605.91654    276742.85    -76584.52    7400.9437   -83985.464    241.48465 
    4650    287.92029   -466.86745    277011.89   -76589.873    7314.7429   -83904.616    244.90607 
    4700    290.31118   -743.99204    276959.64   -76582.454    7375.4845   -83957.939    247.48677 
    4750    291.02949   -446.43728    276526.58   -76617.696    7393.7333    -84011.43    249.99976 
    4800    289.30518   -551.41713    276194.73   -76584.434    7349.9266   -83934.361    253.06491 
    4850    294.46074   -132.43594     276296.5   -76545.211    7480.9058   -84026.117    255.92975 
    4900    292.72058   -455.42847    276946.48   -76552.744    7436.6964   -83989.441    259.11412 
    4950    286.74423   -806.48023    277487.57   -76551.696    7284.8645    -83836.56    262.22836 
    5000    291.86853   -770.27056    277258.75   -76552.972    7415.0495   -83968.022    265.37491 
    5050    289.77097   -668.42169    276484.87   -76571.422    7361.7603   -83933.182    268.76994 
    5100    290.34308    -334.9203    275706.17   -76549.904     7376.295   -83926.199    271.69183 
    5150    291.54852   -327.61091    275957.24   -76588.043    7406.9197   -83994.963    275.43311 
    5200    292.40969   -359.37467    276863.33    -76531.93    7428.7981   -83960.728    279.13816 
    5250    285.06063    -607.9955    277503.31   -76497.377     7242.092   -83739.469    282.58364 
    5300     291.9996    -449.0287    277181.98   -76450.761    7418.3795    -83869.14    285.71717 
    5350    294.90301   -37.654779    276357.99   -76446.505    7492.1419   -83938.647    288.00768 
    5400    295.54318   -126.65425    276180.41   -76460.335    7508.4057    -83968.74    290.91405 
    5450      292.914   -406.48527    276870.64   -76437.789    7441.6102   -83879.399    294.68935 
    5500    289.72286   -689.74552    277388.73   -76433.539    7360.5379   -83794.077    298.68959 
    5550    289.36235   -666.46464    277237.14   -76476.578    7351.3789   -83827.957    302.39461 
    5600    296.73476   -513.90728    276763.54   -76448.575    7538.6783   -83987.253    304.00786 
    5650    296.75113   -322.00034    276401.24   -76449.171    7539.0943   -83988.266    307.14668 
    5700    291.50758   -273.05622    276628.15    -76391.04    7405.8794   -83796.919    309.88674 
    5750    293.94384   -635.42268    277060.53   -76407.885    7467.7738   -83875.658    312.66359 
    5800    286.44135   -519.13457    277197.61   -76419.633    7277.1696   -83696.803    315.38494 
    5850    294.76962   -748.19103    277136.68   -76413.509    7488.7531   -83902.262    318.22621 
    5900    293.08631   -223.54412    276816.56   -76377.055    7445.9879   -83823.043    320.66913 
    5950    301.46147   -590.34265    276591.32   -76356.998    7658.7624   -84015.761     322.6176 
    6000    294.63056   -519.31976     276439.3   -76406.605    7485.2202   -83891.825     324.7231 
    6050    292.84688   -351.73211    276498.66   -76455.495    7439.9051   -83895.401    328.50327 
    6100    292.97263   -217.94359    276930.74   -76452.168    7443.0998   -83895.268    332.18554 
    6150    291.89631   -646.98538    277331.94   -76418.255    7415.7554   -83834.011    334.99988 
    6200    295.16532   -654.59007     277273.5    -76413.01    7498.8059   -83911.816    336.54608 
    6250    294.81722    -493.6161    276860.09   -76373.589    7489.9625   -83863.551    339.41347 
    6300    290.73878   -548.39796    276668.17   -76371.229    7386.3478   -83757.576    341.59222 
    6350    298.91554   -504.82501    276728.01   -76409.432     7594.082   -84003.514    344.51745 
    6400    293.12315   -450.31916    276775.66   -76344.114    7446.9238   -83791.038    347.88237 
    6450    295.23293   -464.63556    276568.78   -76339.505    7500.5237   -83840.028    350.18856 
    6500    295.33501   -522.12979    276549.74   -76334.639     7503.117   -83837.756    353.35991 
    6550    293.27465    -550.5195    276916.56   -76333.079    7450.7728   -83783.852    358.29706 
    6600    288.57786   -506.20212    277187.71   -76422.799    7331.4487   -83754.247    361.61778 
    6650    294.06961   -628.19751    277330.54   -76452.469    7470.9691   -83923.438    365.13096 
    6700    294.11826   -453.43167    276843.63   -76469.046     7472.205   -83941.251    368.15835 
    6750    287.80806   -261.71634    276319.06   -76506.311    7311.8916   -83818.202    370.31457 
    6800    292.05644   -186.04585    276085.51   -76522.023    7419.8236   -83941.847    372.58249 
    6850     291.7756   -614.91192    276367.91   -76524.921    7412.6886   -83937.609    375.66215 
    6900    285.40348   -657.68747    276742.69   -76539.206    7250.8021   -83790.008    379.10248 
    6950    293.37864    -553.8159     277107.7   -76523.186    7453.4146   -83976.601     383.2836 
    7000    288.58994   -663.69136     277098.7   -76501.772    7331.7555   -83833.527    386.68111 
    7050    293.98433   -198.80212    276715.59   -76489.143    7468.8024   -83957.945    388.87747 
    7100    285.12587   -293.76528    276637.42   -76440.166    7243.7492   -83683.916    391.53752 
    7150    293.20655   -250.33954    277050.24   -76448.065    7449.0426   -83897.107     394.4832 
    7200     285.6777   -466.33007    277581.17   -76410.206    7257.7687   -83667.975    398.13576 
    7250    298.09571   -774.39704    277378.18    -76374.07    7573.2538   -83947.324    400.22601 
    7300    294.25889   -576.23179    276614.94   -76372.074    7475.7778   -83847.851    402.17014 
    7350    299.18067   -74.459912    276034.77   -76402.051    7600.8177   -84002.869    404.31035 
    7400    293.56984   -374.07794    276481.29   -76405.255    7458.2722   -83863.527    406.83629 
    7450     293.1304   -619.12958    277134.53   -76373.271     7447.108   -83820.379    410.21781 
    7500    294.61299    -856.7156    277562.81   -76398.357    7484.7738   -83883.131    412.96187 
    7550     298.2353   -842.92839    277358.85   -76451.722    7576.8001   -84028.522    415.83651 
    7600     292.3349   -411.04958    276607.95   -76465.513     7426.898   -83892.411     418.3639 
    7650    293.65249   -341.55682    276208.83   -76442.377    7460.3718   -83902.749    421.05339 
    7700    293.59816   -800.96492    276470.53    -76440.12    7458.9916   -83899.112    424.53569 
    7750     290.8316   -494.08814    277062.35   -76457.184     7388.706    -83845.89    427.32873 
    7800    290.74388    -898.0195    277468.83   -76493.667    7386.4774   -83880.144    430.30583 
    7850    290.51106   -668.89527    277296.69   -76475.032    7380.5625   -83855.595    433.23607 
    7900    291.99026   -224.60777    276568.23    -76439.53    7418.1423   -83857.673    435.55481 
    7950    295.73467   -250.81782    276119.97    -76462.79    7513.2705   -83976.061    436.65014 
    8000    291.19626   -335.20663    276263.14   -76455.752    7397.9704   -83853.723    438.87916 
    8050    291.77481   -450.42755    276980.52   -76470.011    7412.6687   -83882.679    440.98939 
    8100    294.15632   -735.48995    277437.51   -76504.927    7473.1719   -83978.099    443.79814 
    8150    293.21806   -394.35211    277030.64   -76554.777    7449.3351   -84004.112    446.20411 
    8200    290.54423    -498.5651    276605.15   -76519.201    7381.4051   -83900.606    448.29804 
    8250     291.1182   -557.22277    276573.03   -76524.248    7395.9871   -83920.235     450.0614 
    8300    294.23552   -471.33927    276669.62   -76503.655     7475.184   -83978.839    454.07155 
    8350    287.01136   -460.79535    276734.15   -76566.921    7291.6512   -83858.572    457.41613 
    8400    285.10088   -249.55439    276890.21   -76576.427    7243.1145   -83819.542    460.00027 
    8450    288.68817   -393.90024    276982.98   -76571.789    7334.2513    -83906.04    461.48511 
    8500    292.80036   -381.19545    276882.02   -76519.318    7438.7231   -83958.041    463.99007 
    8550     290.3416   -597.08193     276848.6   -76467.384    7376.2573   -83843.641    465.58236 
    8600     292.9284   -491.33674    276594.53   -76470.958    7441.9761   -83912.934    467.32209 
    8650    297.02437   -340.67676    276370.31   -76428.756    7546.0361   -83974.792    468.85653 
    8700     298.2334   -371.61411    276645.49   -76404.147    7576.7521   -83980.899    470.52596 
    8750    297.07719   -688.31946    277327.42   -76378.115     7547.378   -83925.493     473.0327 
    8800     296.8414   -686.30999     277499.9    -76365.77    7541.3877   -83907.158    475.00899 
    8850    293.63838   -660.84487    277298.64   -76337.464    7460.0135   -83797.478    477.71425 
    8900    296.74273   -574.92038    277004.87   -76349.062    7538.8807   -83887.943    479.77099 
    8950    298.82553    -419.5079    276760.93   -76329.779    7591.7952   -83921.574    483.10582 
    9000    292.54189    -283.9952    276677.24   -76343.215    7432.1566   -83775.372    485.74449 
    9050    293.68876   -154.89717    276970.02   -76319.771    7461.2935   -83781.065    488.31909 
    9100    298.99118   -473.61684    277390.49    -76333.48    7596.0036   -83929.484    491.25106 
    9150     293.8946   -435.66777    277621.05   -76349.312    7466.5228   -83815.835     494.2322 
    9200    292.25601   -495.80282       277627   -76302.959    7424.8936   -83727.852    497.91579 
    9250    297.33347   -675.26422    277326.47   -76293.179    7553.8888   -83847.068     500.6847 
    9300    295.60699   -176.79329    276612.49   -76359.724     7510.027   -83869.751    502.50394 
    9350    294.09108   -393.12148     276353.5   -76358.939    7471.5144   -83830.454    504.51495 
    9400     293.5856    -346.4113    276595.94   -76407.838    7458.6725    -83866.51    510.10857 
    9450    292.55332    -537.9267    277111.36   -76409.611    7432.4469   -83842.058    513.56361 
    9500    292.85907   -786.50952    277401.79   -76396.391    7440.2147   -83836.605     517.7027 
    9550     295.1548   -454.02185    277051.37   -76399.678    7498.5387   -83898.217    519.30281 
    9600    294.41474    -530.2995    276727.64    -76408.74    7479.7373   -83888.477    522.06339 
    9650    296.31914   -341.52186    276758.61   -76378.022    7528.1194   -83906.142    524.08303 
    9700    297.17636   -775.85602    276984.65   -76376.202    7549.8973   -83926.099    527.14986 
    9750    292.39845   -627.68229    276972.35   -76460.713    7428.5124   -83889.226    530.11651 
    9800     289.3121   -619.96075    276872.56   -76436.268    7350.1023   -83786.371    532.14429 
    9850    290.33779    -520.9474     276779.4   -76438.499    7376.1605    -83814.66    535.21014 
    9900    295.05933   -456.86446    276746.38   -76397.492    7496.1132   -83893.605    537.29133 
    9950    293.15008   -664.64409    276935.22   -76401.445    7447.6081   -83849.053    540.86196 
   10000    292.65537   -564.37194     277002.4   -76413.205    7435.0396   -83848.245    543.01583 
   10050    294.33812    -758.8077    277119.24   -76414.286    7477.7907   -83892.077    545.52097 
   10100     294.6636    -330.0028    276997.02   -76405.039    7486.0597   -83891.099    548.64879 
   10150    292.45956   -468.14378    276792.01   -76405.833    7430.0651   -83835.898    550.20136 
   10200    296.41407   -600.02848    276671.74   -76440.262    7530.5311   -83970.793    552.01953 
   10250     294.4536    -722.2136    276316.84   -76391.559    7480.7244   -83872.283    555.19148 
   10300    297.57365   -209.37526     275969.2   -76367.867    7559.9907   -83927.858    557.71364 
   10350    292.69564   -416.01792    276372.71   -76391.967    7436.0626    -83828.03    560.13671 
   10400    295.09574   -437.53509    276948.74   -76413.793    7497.0384   -83910.831    563.05787 
   10450    293.15749   -887.14066    277475.49   -76389.039    7447.7962   -83836.835    566.44962 
   10500    295.87184   -665.54333    277362.28   -76377.737    7516.7554   -83894.493     569.0119 
   10550    295.96388    -616.9088     276755.7   -76354.396    7519.0937    -83873.49    571.94969 
   10600    292.21034   -462.49844    276117.25   -76350.781    7423.7335   -83774.514     573.5461 
   10650     293.4452   -304.33713    276159.78   -76382.891    7455.1057   -83837.997    576.09062 
   10700    294.33651   -722.64769    276961.21   -76429.839    7477.7496   -83907.588    579.24518 
   10750    292.04925   -754.59577    277642.74   -76410.407    7419.6409   -83830.048    583.02265 
   10800    290.08831   -606.75446    277488.28    -76417.72    7369.8223   -83787.543    585.53914 
   10850    294.22864   -510.22874     276513.9    -76433.75    7475.0091   -83908.759    586.47559 
   10900    293.72123   -79.091642    275639.52   -76439.913    7462.1182   -83902.031    587.48326 
   10950    297.03946   -258.66948    276008.79   -76480.916    7546.4195   -84027.335    590.66834 
   11000    289.62915   -602.27296    276800.71    -76499.87    7358.1573   -83858.027    594.70651 
   11050     291.0538   -662.65805    277398.08   -76481.205    7394.3511   -83875.556    598.56847 
   11100    293.17519   -585.29228    277421.58   -76518.879     7448.246   -83967.125    601.41891 
   11150    292.00609   -569.46257    277054.47   -76520.113    7418.5444   -83938.658    603.09402 
   11200    286.15046    -329.0592    276569.28   -76532.845    7269.7796   -83802.625    603.97174 
   11250    296.92708    -478.9497    276299.57   -76535.771    7543.5644   -84079.335    605.16729 
   11300    287.87827   -474.98108    276437.75    -76553.24    7313.6754   -83866.916    608.11574 
   11350    291.49077   -622.74965    276986.41   -76561.152    7405.4523   -83966.604    611.75806 
   11400    287.62986    -944.3433    277353.55   -76564.387    7307.3642   -83871.751     614.0005 
   11450    295.58464   -485.02423    276812.68   -76526.536    7509.4591   -84035.995    614.86683 
   11500    293.92784   -292.34335    276384.08   -76460.458    7467.3673   -83927.826    616.97402 
   11550    297.48636    -275.9816    276261.74   -76453.997    7557.7732    -84011.77    619.74944 
   11600    294.99855   -405.28076    276421.68   -76499.043    7494.5692   -83993.612    622.26758 
   11650    289.92736   -590.70617    276897.22   -76577.484    7365.7333   -83943.217    626.28252 
   11700    289.23122   -687.71368     277241.8   -76546.492    7348.0475   -83894.539    630.97608 
   11750    290.02784   -606.20921    277040.79   -76584.241    7368.2861   -83952.527    634.15263 
   11800    291.56834   -427.76894    276445.63   -76630.514    7407.4232   -84037.937    635.52618 
   11850    290.80844   -433.51466    275839.66   -76642.937    7388.1174   -84031.054    638.22836 
   11900    289.90557   -468.65152    276108.44   -76629.872    7365.1797   -83995.052    640.53301 
   11950    285.82772   -569.38901    277015.67   -76604.478    7261.5802   -83866.059    645.18817 
   12000    286.71192   -952.41262    277431.05   -76624.848    7284.0437   -83908.892    649.65382 
   12050     284.8232   -474.27749    277018.71    -76648.06      7236.06    -83884.12    650.54185 
   12100    288.37019   -232.31681     276277.4   -76623.299    7326.1728   -83949.472    651.34358 
   12150    291.91392   -103.45173     275948.5   -76581.622    7416.2028   -83997.825    653.78104 
   12200    291.02973   -433.43335     276446.7   -76542.071    7393.7395   -83935.811    658.51488 
   12250     290.9479   -689.15826       277116   -76576.471    7391.6607   -83968.132    662.66414 
   12300    290.94164   -615.18283    277317.63   -76475.774    7391.5015   -83867.275    666.27882 
   12350    293.43373   -792.68441    277077.19   -76514.645    7454.8142   -83969.459    668.16331 
   12400    293.76278   -231.24077    276362.27   -76497.981     7463.174   -83961.155    668.37477 
   12450    293.55979    -571.9623    276304.54   -76475.274    7458.0167   -83933.291    671.83846 
   12500    290.19578   -560.07631    276625.11   -76495.699    7372.5528   -83868.252    676.22107 
   12550    291.75187    -625.6889    277075.77   -76485.204    7412.0859    -83897.29    679.32101 
   12600    291.30385   -778.88569     277318.1   -76507.298    7400.7037   -83908.002    683.10984 
   12650    293.40445    -613.7534    277004.42    -76518.08    7454.0703    -83972.15    685.47592 
   12700    291.45743   -325.19723    276526.12   -76537.271    7404.6054   -83941.876    687.06044 
   12750    298.31534   -436.26007    276225.06   -76535.432    7578.8336   -84114.265    689.86781 
   12800    294.84025   -245.80237    276545.72   -76562.174    7490.5474   -84052.721    692.95234 
   12850    289.58825   -833.26682    277276.51   -76599.062    7357.1181    -83956.18    696.61477 
   12900    288.78859    -684.0442    277364.94   -76565.623    7336.8024   -83902.425    700.70732 
   12950    290.27708   -332.60249       276926   -76566.244     7374.618   -83940.863      702.719 
   13000    288.31194   -519.08018    276594.21   -76529.408    7324.6928   -83854.101    704.73128 
   13050    288.88344    -208.2239    276238.65   -76504.081     7339.212   -83843.293    706.42059 
   13100    293.68077    -37.00499    276222.09   -76464.938    7461.0903   -83926.029    711.94476 
   13150    291.46883   -618.23978    276900.03   -76482.119    7404.8951   -83887.015    716.75575 
   13200    290.23887   -681.60164     277285.7   -76493.426    7373.6475   -83867.074    719.65277 
   13250    296.30312   -724.92725    277169.74   -76471.188    7527.7124     -83998.9    721.67524 
   13300    292.83234    -614.2823    276712.58   -76475.811    7439.5357   -83915.346    723.02622 
   13350    288.10902   -403.55453    276474.76   -76471.304    7319.5377   -83790.842    725.43556 
   13400    291.59217   -596.63753    276756.56   -76515.501    7408.0285    -83923.53    728.21442 
   13450    294.69739   -541.12336    276882.42   -76480.898    7486.9181   -83967.816     731.4869 
   13500    295.87625   -726.44561    276738.27   -76473.889    7516.8674   -83990.756    734.66052 
   13550    293.86854   -482.03296    276401.49   -76461.911    7465.8606   -83927.772    735.78974 
   13600    295.58636   -189.26963    276226.96   -76480.589    7509.5027   -83990.092    738.64837 
   13650    289.99851   -679.94712     276700.7   -76495.233    7367.5409   -83862.774    742.43608 
   13700    294.34257   -841.04902    277163.31   -76502.551    7477.9038   -83980.454    746.10834 
   13750    296.26721   -513.53305    277182.79   -76496.449       7526.8   -84023.249    747.80117 
   13800    296.58525   -564.72208    276972.11    -76473.04    7534.8801    -84007.92     750.0314 
   13850    290.30173   -240.10278    276519.73    -76460.48    7375.2444   -83835.724    751.66601 
   13900    290.67793   -377.06023    276484.26   -76490.742    7384.8019   -83875.543     754.1707 
   13950    290.48914   -571.68349    276634.09   -76502.486    7380.0055   -83882.491     757.9769 
   14000    291.94096   -887.00142    276710.81    -76506.98    7416.8898    -83923.87    760.29501 
   14050    292.07554   -505.80953    276616.33   -76508.727    7420.3088   -83929.036    762.64663 
   14100    289.26357   -690.27866    276619.65   -76473.465    7348.8694   -83822.335     764.2492 
   14150    290.98277   -294.04502    276584.01    -76488.26    7392.5466   -83880.807    766.76017 
   14200    292.04895   -714.30922    276803.12   -76521.826    7419.6332   -83941.459    770.23039 
   14250    292.79694   -627.77198    276616.44   -76561.534    7438.6362    -84000.17     772.7447 
   14300    295.68849   -319.52725    276515.65   -76567.792    7512.0974    -84079.89    773.91117 
   14350    293.41084   -728.76254    276696.11   -76590.127    7454.2326    -84044.36    776.49947 
   14400    290.08087    -427.8282    276909.55   -76580.864    7369.6333   -83950.498    779.01434 
   14450    289.82453   -610.02138    277072.51   -76571.322     7363.121   -83934.443    781.89166 
   14500    292.96869   -240.22667    276732.79   -76533.818    7442.9995   -83976.818    784.12952 
   14550    288.58402   -268.78945    276660.76   -76551.827    7331.6052   -83883.433    786.87916 
   14600    289.62004   -616.91643    276817.69    -76568.16    7357.9258   -83926.085    790.66876 
   14650    290.16269    -580.4351    276912.55   -76549.186    7371.7121   -83920.898     792.3052 
   14700    293.90388   -444.88475    276822.29   -76503.845    7466.7586   -83970.604     794.9159 
   14750    291.48151   -344.45895    276721.84   -76524.908    7405.2171   -83930.125     797.1302 
   14800    289.18507   -213.82404    276908.55   -76516.733    7346.8752   -83863.608    798.72454 
   14850    292.34609   -375.32507    276899.78   -76530.331    7427.1823   -83957.513    800.47356 
   14900    291.79982   -546.35037    276861.61   -76523.597     7413.304   -83936.901    803.52112 
   14950    292.78643   -606.16068    276610.24    -76589.21    7438.3694   -84027.579    806.61351 
   15000    292.31894   -393.38825    276489.25   -76594.051    7426.4924   -84020.543    809.97068 
   15050    291.69108   -155.92418    276595.95   -76640.224    7410.5413   -84050.765    812.68164 
   15100    288.11872   -599.24518    277010.82    -76642.38    7319.7841   -83962.164    815.74355 
   15150    287.50337   -828.53863     277198.2   -76655.584    7304.1507   -83959.735     818.9956 
   15200    285.80764   -736.51506    276847.01   -76696.366      7261.07   -83957.436    822.00869 
   15250    284.53589   -185.02005    276043.99   -76682.802    7228.7605   -83911.563    821.71694 
   15300    292.62357   -399.37884    275713.08   -76689.052    7434.2318   -84123.284    823.45598 
   15350    286.12747   -360.51611     276443.2   -76684.714    7269.1955   -83953.909     827.6506 
   15400    285.00715   -792.86286     277202.1   -76693.644    7240.7332   -83934.378    832.65777 
   15450     286.6492   -462.86034    276984.15   -76797.393    7282.4503   -84079.844    834.99852 
   15500    287.29733   -491.93489    276532.07   -76807.826    7298.9162   -84106.742    836.34823 
   15550    285.54713   -692.49508    276273.48   -76829.842    7254.4517   -84084.293    837.01413 
   15600    282.88953   -54.807334    276032.32   -76779.279    7186.9341   -83966.213    839.39612 
   15650    286.90468   -492.46529    276537.33    -76718.91    7288.9409   -84007.851    843.08934 
   15700    290.72858   -690.63291    277187.91   -76668.063    7386.0888   -84054.152    846.10306 
   15750    291.42113   -671.82086    277307.54   -76625.491    7403.6833   -84029.174    848.15457 
   15800    287.10328   -554.67432    276833.03   -76637.277    7293.9864   -83931.264    850.33861 
   15850    291.97661   -494.25832    276301.96   -76651.307    7417.7955   -84069.103    851.52065 
   15900    292.87099   -449.83806    276121.37   -76657.427    7440.5175   -84097.944    855.54436 
   15950     285.0594   -447.21743       276530   -76668.491    7242.0605   -83910.551    860.25008 
   16000    286.88996   -716.46708    277095.81   -76625.812    7288.5668   -83914.378    864.63496 
   16050    286.04211   -729.91449    277092.22   -76636.126    7267.0267   -83903.153    867.92418 
   16100    291.81302   -356.69803    276724.68   -76640.688    7413.6394   -84054.328    868.87675 
   16150    284.92448   -115.03865    276415.35    -76620.29    7238.6329   -83858.923    869.53274 
   16200    293.67946   -510.87702     276333.8   -76543.661    7461.0571   -84004.718    872.12442 
   16250    296.88752   -631.75086    276379.01    -76536.51    7542.5594   -84079.069    874.08222 
   16300    293.17637   -598.01929    276595.02   -76507.826    7448.2759   -83956.102    877.19037 
   16350    293.97611   -692.01158    276958.09    -76474.16    7468.5937   -83942.754    881.26908 
   16400    291.86113   -661.71818    277133.99   -76511.719    7414.8616   -83926.581    884.64729 
   16450    290.53419    -679.0026    277074.89   -76492.118    7381.1502   -83873.268    889.23595 
   16500    285.38169   -251.97222    276690.28   -76495.782    7250.2486   -83746.031    892.03671 
   16550    291.58595   -633.79729    276606.32   -76573.248    7407.8705   -83981.119    894.75201 
   16600    293.58467   -560.25543    276761.46   -76557.268     7458.649   -84015.917    896.58199 
   16650    289.09522   -420.56808    276763.08   -76600.221    7344.5925   -83944.814    898.25033 
   16700     290.9684   -413.73212    276615.12   -76575.563    7392.1815   -83967.745    899.70336 
   16750    290.39689   -403.20217    276525.23   -76542.767     7377.662   -83920.429    903.46516 
   16800    293.86542   -242.23319    276657.79   -76513.192    7465.7814   -83978.974    906.98675 
   16850    294.27947   -594.67333    277281.74   -76490.737    7476.3007   -83967.037    912.17994 
   16900    289.92125   -587.88908    277708.75   -76504.105    7365.5782   -83869.683    915.72484 
   16950    290.03622   -924.27534    277455.01   -76500.974    7368.4988   -83869.473    918.48791 
   17000    294.37335    -555.1954    276702.92   -76525.715    7478.6858   -84004.401    917.76138 
   17050    293.52133   -170.13564    275952.38    -76506.34    7457.0398   -83963.379    919.66528 
   17100    297.88755   -389.87317     275838.6   -76506.606    7567.9654   -84074.571    922.31006 
   17150    291.04106   -424.41559       276426   -76518.307    7394.0275   -83912.334    926.95877 
   17200    290.69635   -739.87777    277086.22   -76528.865    7385.2699   -83914.135    930.72159 
   17250    292.45417   -571.80086    277309.77   -76541.476     7429.928   -83971.404    932.23178 
   17300    287.45903   -600.68453    277057.17   -76559.242    7303.0243   -83862.266     934.1966 
   17350    288.74841   -594.96362    276781.42   -76592.439    7335.7815    -83928.22    936.00921 
   17400     286.4621   -388.63299    276706.95   -76606.655    7277.6968   -83884.352    938.40484 
   17450    285.69663   -314.89661    276548.26     -76597.1    7258.2499    -83855.35    941.29806 
   17500    288.30479   -597.04697    276597.24   -76660.896    7324.5112   -83985.407    943.87655 
   17550    290.21292   -687.56971    276583.38   -76658.237    7372.9881   -84031.225    946.96053 
   17600    287.77175    -293.1285     276572.9    -76665.08    7310.9691   -83976.049     949.1693 
   17650    288.04547   -383.83371    276588.34   -76637.411     7317.923   -83955.334    952.90012 
   17700    288.72864   -540.88124    276696.61   -76664.361    7335.2794    -83999.64    954.21869 
   17750    289.07583   -575.22149    276419.59   -76678.497    7344.0998   -84022.597    953.92669 
   17800    291.24585   -587.46443    276086.17   -76705.559    7399.2302   -84104.789    956.06758 
   17850    287.62472   -556.49082    276224.71   -76735.652    7307.2338   -84042.886    957.71907 
   17900    285.10953   -391.94999    276457.98   -76680.372    7243.3341   -83923.706    961.86561 
   17950    289.22916   -527.51479    276784.22   -76716.354    7347.9951   -84064.349    964.51612 
   18000    288.69709   -857.02287    276867.19   -76710.039    7334.4778   -84044.517    966.95527 
   18050    288.55961   -459.30901    276539.09   -76751.524    7330.9851    -84082.51    967.66106 
   18100    293.15334   -588.28757    276380.63   -76759.675    7447.6907   -84207.365    969.51775 
   18150    284.47318   -713.21323    276574.34    -76765.24    7227.1675   -83992.408      972.388 
   18200    284.08135   -348.32868    276435.72   -76763.408    7217.2128   -83980.621    976.09614 
   18250    287.62318   -409.18411    276382.71   -76802.212    7307.1945   -84109.406    978.97865 
   18300    288.87081   -541.65565    276594.71   -76773.797    7338.8911   -84112.688    981.75526 
   18350    286.49507   -601.70747    276734.21   -76737.911    7278.5344   -84016.445    984.77097 
   18400    285.65162   -479.87862    276617.26   -76763.981    7257.1063   -84021.087     987.1642 
   18450     287.9692     -592.239    276485.56   -76746.489    7315.9853   -84062.474    989.41004 
   18500     289.4412   -263.49271    276356.61   -76719.574    7353.3823   -84072.957    991.69532 
   18550    291.34115   -448.07999    276408.77   -76696.197    7401.6513   -84097.848    994.96659 
   18600    286.10693   -524.03519    276357.29   -76697.054    7268.6735   -83965.728    997.96112 
   18650    287.29385   -519.65081    276234.08   -76670.524    7298.8279   -83969.352    1000.2526 
   18700    293.13661   -276.44687    276359.53   -76612.256    7447.2658   -84059.521    1003.5779 
   18750    288.14106   -399.94741    276875.39   -76596.021    7320.3517   -83916.373    1007.4336 
   18800    287.70849   -736.19737    277289.58   -76528.729    7309.3621   -83838.091    1010.0745 
   18850    286.70688   -684.22724     277079.8   -76535.016    7283.9156   -83818.931    1011.0787 
   18900    290.46821   -372.24877    276345.34   -76587.453    7379.4739   -83966.927    1011.4877 
   18950    287.53681   -127.35827    275990.25   -76642.249    7305.0003   -83947.249    1013.1954 
   19000     289.2415   -504.14198    276417.13   -76611.696    7348.3088   -83960.005    1018.2138 
   19050    290.16467   -900.59335    277257.85   -76628.335    7371.7622   -84000.097    1023.4231 
   19100    289.76154   -739.74957    277375.61    -76608.69    7361.5207   -83970.211    1026.0255 
   19150    290.68218   -265.08018    276901.56   -76589.608    7384.9098   -83974.517     1027.504 
   19200    294.30917    -401.6993    276247.98   -76584.072    7477.0551   -84061.127    1028.2866 
   19250    295.00252   -127.26423    275839.19   -76579.213    7494.6701   -84073.883    1029.0224 
   19300    295.67983   -524.25449    276147.17   -76579.794    7511.8774   -84091.672    1031.7889 
   19350     288.8448   -862.19637     276997.4    -76559.31    7338.2304   -83897.541    1036.0255 
   19400      291.107   -776.61258    277485.96   -76533.621    7395.7027   -83929.323    1039.2466 
   19450    294.33232   -476.41827    277054.57   -76515.972    7477.6433   -83993.615    1039.5895 
   19500    293.26886   -290.48851     276481.6   -76511.498    7450.6257   -83962.124    1039.0947 
   19550    291.71143   -319.82023    276225.15   -76559.524    7411.0583   -83970.583    1039.7787 
   19600    290.10879   -384.96336    276310.96    -76574.99    7370.3425   -83945.333    1043.2828 
   19650    295.26547   -550.51153    276673.95   -76558.209    7501.3505   -84059.559    1047.7262 
   19700    291.46818   -705.40235    276887.34   -76561.504    7404.8787   -83966.383    1050.4337 
   19750     293.4517    -521.6026    276923.17   -76544.589    7455.2708    -83999.86    1051.8797 
   19800    291.92873   -575.92706    276678.25   -76533.797    7416.5791   -83950.376    1053.6533 
   19850    287.50875   -508.04984    276503.37    -76540.16    7304.2873   -83844.447     1054.968 
   19900    293.75531   -335.16347    276462.15   -76522.708    7462.9841   -83985.692     1057.394 
   19950    293.11081   -489.53287    276829.27   -76518.545    7446.6102   -83965.156    1058.6948 
   20000     290.4903   -581.52817    277332.86   -76525.065     7380.035     -83905.1    1059.6427 
   20050    296.53473   -885.40491    277397.52   -76544.392    7533.5965   -84077.988    1062.5278 
   20100     296.2733   -250.04091    276962.98   -76564.738    7526.9547   -84091.693     1063.793 
   20150    290.37197   -622.62315    276406.68   -76619.824    7377.0289   -83996.853     1064.712 
   20200    291.44069   -487.89335    276166.03   -76608.993    7404.1802   -84013.173    1066.0226 
   20250    291.18593   -337.43037    276221.36   -76612.799    7397.7078   -84010.507    1068.3827 
   20300    292.70739   -578.49255    276766.15   -76608.789    7436.3613   -84045.151      1072.85 
   20350    291.59855   -657.94511    277203.47   -76564.978    7408.1906   -83973.169    1076.8439 
   20400    288.79861   -493.68323    277142.32   -76562.581    7337.0569   -83899.638    1078.9705 
   20450    289.16164   -560.57707    276936.71   -76577.367    7346.2799   -83923.647    1079.4728 
   20500    287.91303   -494.42168    276490.41   -76595.837    7314.5584   -83910.395    1080.7025 
   20550    290.87867   -571.11153    276191.59    -76573.91    7389.9017   -83963.812    1082.8631 
   20600    291.38001   -449.16675    276201.02   -76565.453    7402.6386   -83968.091    1086.1922 
   20650    282.96391   -441.64025    276718.07    -76582.06    7188.8238   -83770.884    1090.7868 
   20700    290.99347   -807.10851    277323.61   -76589.055    7392.8184   -83981.873    1096.1659 
   20750    292.48106   -816.39415    277233.79   -76543.707    7430.6112   -83974.318    1099.3564 
   20800    291.33915   -306.51918    276409.69   -76582.015    7401.6004   -83983.615    1099.9322 
   20850     293.1703     -460.446     276017.9   -76557.483    7448.1216   -84005.604    1102.5925 
   20900    291.80062   -443.30764    276258.98   -76557.328    7413.3244   -83970.652    1106.0731 
   20950    290.55596   -701.55938    276667.56   -76593.439    7381.7032   -83975.142    1109.9206 
   21000    290.73858    -591.1597     276948.1     -76568.9    7386.3426   -83955.243    1113.1791 
   21050    288.91249   -610.20416    277093.73   -76585.212    7339.9501   -83925.162    1116.9934 
   21100    286.72979   -568.53218    276756.95   -76595.245    7284.4977   -83879.743    1119.8312 
   21150    293.76978   -468.54236    276324.51   -76596.482    7463.3517   -84059.833    1121.9231 
   21200    290.27614   -554.15903    276347.75   -76569.621    7374.5943   -83944.215    1125.3599 
   21250    292.01488   -357.60691    276618.62    -76584.17    7418.7678   -84002.937    1129.1111 
   21300    288.32746   -581.76201    276951.72   -76565.465    7325.0871   -83890.552     1134.002 
   21350    291.46696   -681.59394    276969.83   -76576.875    7404.8476   -83981.723     1136.944 
   21400    292.18666   -691.86726    276501.89   -76566.225    7423.1319   -83989.357    1139.6739 
   21450    293.29191   -532.75332     276116.8   -76526.196    7451.2111   -83977.407    1141.3463 
   21500     295.3596   -628.23505     276493.2   -76528.176    7503.7418   -84031.918    1144.4937 
   21550    290.52415   -723.26799    277135.13   -76509.682    7380.8951   -83890.577    1147.5415 
   21600    288.50065   -289.38626    277145.59   -76489.658    7329.4872   -83819.145     1149.958 
   21650    293.23398   -295.82633    276813.05   -76456.247    7449.7395   -83905.987     1152.935 
   21700     291.0164   -593.24195    276514.57   -76417.937     7393.401   -83811.338    1154.0634 
   21750    293.32176   -442.49504    276630.89   -76456.004    7451.9695   -83907.973    1156.5881 
   21800    295.00574   -469.77918    277026.08   -76422.791    7494.7518   -83917.543    1162.3567 
   21850    292.72069   -397.72451    277115.69   -76403.635    7436.6992   -83840.334    1166.2567 
   21900    295.08237   -569.41343    277173.28   -76424.979    7496.6987   -83921.678    1169.1991 
   21950    296.27378    -534.7292    277159.49   -76433.344    7526.9669   -83960.311    1171.4486 
   22000    293.10945    -584.3489    276873.31   -76438.976    7446.5756   -83885.552    1171.7821 
   22050    295.79642   -577.07309    276819.74   -76410.934    7514.8394   -83925.774    1173.3608 
   22100    294.20913   -245.09764    276638.28   -76399.136    7474.5136   -83873.649    1174.8337 
   22150    296.70607   -683.54082    276764.86   -76425.202    7537.9495   -83963.152    1178.2918 
   22200    296.72028   -200.59483    276743.45   -76373.853    7538.3106   -83912.163    1180.1376 
   22250    295.88734    -308.9666    277095.93   -76374.875    7517.1494   -83892.025    1183.9452 
   22300    291.97191   -672.88438    277415.54    -76302.26    7417.6761   -83719.936     1186.704 
   22350    291.39975   -801.72752    277567.28   -76304.688      7403.14   -83707.828    1190.0931 
   22400    299.56114   -583.35695    277335.67   -76344.832    7610.4839   -83955.316    1193.7204 
   22450    294.98031   -357.46012    276825.99   -76347.568    7494.1058   -83841.674    1196.0273 
   22500    295.41493   -610.23847    276746.41   -76320.708    7505.1474   -83825.855    1198.7881 
   22550    298.27186   -514.10492    276750.45   -76332.058    7577.7291   -83909.787    1201.1915 
   22600    292.82612   -684.94251    276915.34   -76377.894    7439.3775   -83817.271    1205.0695 
   22650    295.77461   -717.34243    276791.62   -76343.148    7514.2854   -83857.434    1208.2657 
   22700    291.77977   -282.49081    276819.46    -76368.69    7412.7946   -83781.484     1211.044 
   22750    295.22828   -475.18368    276823.64   -76355.938    7500.4055   -83856.343    1213.1141 
   22800    293.94508   -559.36788    276930.61   -76373.155    7467.8052    -83840.96    1216.4977 
   22850    298.00526   -703.71842    277043.31   -76379.447    7570.9559   -83950.403    1217.7938 
   22900    294.58347   -684.33821     276967.1   -76402.382    7484.0238   -83886.406    1218.4364 
   22950    293.71132   -841.98274    276932.36   -76422.864    7461.8665   -83884.731     1222.525 
   23000    290.85766   -189.05507    276736.51   -76455.475    7389.3679   -83844.843    1225.5644 
   23050    295.69495   -467.25396    276699.99    -76405.86    7512.2614   -83918.121    1227.8996 
   23100    290.36526   -571.33597    276617.72   -76374.121    7376.8584   -83750.979    1228.9686 
   23150    298.55948   -674.25297    276879.67   -76393.832    7585.0361   -83978.868     1232.434 
   23200    294.99985   -462.74396    277061.35   -76390.397    7494.6023       -83885    1236.3479 
   23250    292.65389   -399.17021    277008.18   -76406.062     7435.002   -83841.064    1239.4628 
   23300    288.61235   -318.74121    276685.32   -76422.314    7332.3248   -83754.639    1240.8007 
   23350    295.70526     -529.042    276612.33   -76435.024    7512.5233   -83947.547      1243.97 
   23400    292.68942   -544.19293    276739.16   -76444.668    7435.9046   -83880.573    1246.4806 
   23450    293.20631   -662.35944    276883.87   -76451.645    7449.0366   -83900.682    1250.1223 
   23500    295.51395   -591.81408       276860   -76505.832    7507.6632   -84013.495    1253.7924 
   23550    295.17375   -584.66495     276561.4   -76508.966    7499.0203   -84007.987    1255.2179 
   23600    296.47992   -261.15881    276385.35   -76479.377    7532.2041   -84011.581    1257.6906 
   23650     290.1677   -480.66749    276791.47   -76444.431    7371.8392    -83816.27    1264.0546 
   23700    297.14868   -822.84883    277130.14   -76392.957    7549.1942   -83942.152    1267.7747 
   23750    295.82219   -330.45615    277028.28   -76398.337    7515.4942   -83913.832    1269.1009 
   23800    292.88563   -560.57471    276980.59    -76368.18    7440.8896    -83809.07    1272.8402 
   23850    293.67519   -360.40277    276770.57   -76389.335    7460.9486   -83850.283    1274.3456 
   23900    290.67925   -280.48807    276790.02   -76409.535    7384.8355   -83794.371    1275.8143 
   23950    297.10296   -427.67558    277078.77   -76463.801    7548.0327   -84011.834    1276.3569 
   24000    291.23896   -638.57799    277318.63   -76467.648     7399.055   -83866.703    1278.6892 
   24050    289.59435   -464.32051    276998.03    -76431.41    7357.2731   -83788.684    1280.2878 
   24100     294.4503    -641.8666     276436.8   -76393.099    7480.6407    -83873.74    1281.0068 
   24150    293.69182   -175.98833    276193.45   -76414.579    7461.3711    -83875.95    1282.8823 
   24200    297.45953   -402.07632    276700.14   -76445.945    7557.0915   -84003.037    1288.3384 
   24250    291.61526   -810.84887    277381.02    -76470.58    7408.6151   -83879.195    1292.5831 
   24300    295.51664   -671.98808    277391.29   -76442.246    7507.7315   -83949.978      1295.03 
   24350    294.41443   -503.94079    276747.55   -76463.368    7479.7293   -83943.098    1294.4827 
   24400    292.10514   -419.56769    276230.61   -76429.865    7421.0608   -83850.926    1294.7288 
   24450    294.83687   -324.30792    275995.65   -76505.378    7490.4617    -83995.84    1295.9493 
   24500    288.95729   -266.53553    276321.38   -76509.515    7341.0884   -83850.603    1299.8805 
   24550    295.88724   -555.88321    276831.01   -76485.446    7517.1468   -84002.593    1304.4492 
   24600    291.93787   -725.57904    277530.42   -76463.685    7416.8112   -83880.496    1310.3543 
   24650    290.47688   -635.66065    277874.43   -76444.781    7379.6942   -83824.476    1312.5039 
   24700    291.04455   -858.55173     277559.6   -76398.246     7394.116   -83792.362    1313.0183 
   24750    290.61298   -326.85167    276759.24   -76386.624    7383.1518   -83769.775    1312.0084 
   24800    297.49498   -266.29115    276533.18   -76324.209    7557.9922   -83882.201    1315.4199 
   24850    294.97043   -490.08252    276764.57    -76296.75    7493.8549   -83790.605    1320.0106 
   24900    296.46138   -179.62627    277064.24   -76276.054     7531.733   -83807.787    1322.6154 
   24950     295.0953   -707.06532    277483.13    -76309.08    7497.0271   -83806.108    1327.4202 
   25000    295.66804   -599.43937    277415.22    -76339.98    7511.5778   -83851.558    1328.7165 
   25050    294.37504   -347.27185     276945.7   -76370.413    7478.7286   -83849.142    1330.9442 
   25100    297.67381   -475.25242    276721.42   -76333.075    7562.5354    -83895.61    1332.4765 
   25150    290.66591   -630.79598    276789.31   -76355.873    7384.4966   -83740.369    1336.4341 
   25200    294.59038   -165.30761    277035.69   -76389.348    7484.1993   -83873.547    1342.3526 
   25250    290.47376   -775.79056    277599.42   -76430.548    7379.6148   -83810.163    1346.6529 
   25300      293.296   -495.67465    277285.93    -76477.84    7451.3151   -83929.155     1348.384 
   25350    289.32235   -476.80933    276638.05   -76522.511    7350.3627   -83872.874    1349.3082 
   25400    288.40691   -399.47581     276241.3   -76538.302    7327.1056   -83865.408    1349.3649 
   25450    289.61759   -169.22185    276306.42   -76483.768    7357.8635   -83841.632     1354.204 
   25500    292.87739   -649.15448    277237.86   -76483.439    7440.6801   -83924.119    1359.8193 
   25550    287.13043   -924.22202    277848.69   -76511.621    7294.6761   -83806.297    1365.8476 
   25600    290.03472    -534.2585    277393.89   -76528.118    7368.4608   -83896.579    1368.1943 
   25650    291.02438   -187.04726    276518.55   -76551.196    7393.6036     -83944.8    1368.6957 
   25700    294.60338    -325.9812    276086.49   -76534.068    7484.5298   -84018.597    1369.8866 
   25750    290.29182   -615.02317    276435.13   -76527.021    7374.9926   -83902.014    1374.3575 
   25800    294.56023   -443.90847    276985.61   -76525.916    7483.4333    -84009.35    1378.5288 
   25850    291.32873   -880.59898    277311.19   -76511.378    7401.3357   -83912.714    1382.0995 
   25900    290.96999   -77.009236    277018.01   -76466.371    7392.2217   -83858.593    1384.9865 
   25950    292.89308   -592.91805    276812.38   -76499.092    7441.0787   -83940.171    1386.4755 
   26000    290.60622    -658.3383    276674.26   -76479.593    7382.9801   -83862.573    1387.3285 
   26050    289.82667   -477.66055    276507.62   -76560.807    7363.1753   -83923.982    1389.0757 
   26100    287.64406   -540.20294    276502.33   -76592.057    7307.7251   -83899.782     1391.443 
   26150    288.51545   -438.54845    276758.67   -76590.981     7329.863   -83920.844    1394.3966 
   26200    289.78285   -603.53059    276854.37   -76583.681    7362.0621   -83945.743    1398.3903 
   26250    288.63709    -437.3891    276803.85   -76572.047    7332.9534   -83905.001    1402.2494 
   26300    288.21257   -630.18719    276948.18   -76598.551    7322.1684   -83920.719    1404.1793 
   26350    288.55317   -740.27309    276871.68   -76610.533    7330.8213   -83941.354      1405.24 
   26400     288.2485   -410.94635    276480.47   -76609.662     7323.081   -83932.743    1407.0399 
   26450    290.59517    -457.6727     276350.5    -76569.09    7382.6994   -83951.789    1407.8594 
   26500    290.55108   -605.54184    276568.19   -76580.638    7381.5792   -83962.217    1410.8081 
   26550    291.77292   -372.46774    276468.83   -76575.888    7412.6206   -83988.509    1414.0627 
   26600    295.96957   -545.22154    276519.11   -76589.071    7519.2385   -84108.309    1417.4268 
   26650    281.77293    -415.2709    276842.07     -76568.6    7158.5664   -83727.167    1423.6633 
   26700    291.21914   -515.33859    277115.24   -76534.838    7398.5517    -83933.39     1427.035 
   26750    290.46477   -466.59312    276819.15   -76545.773    7379.3865    -83925.16    1430.2403 
   26800    295.14378   -605.03504    276585.24   -76600.779    7498.2587   -84099.037    1433.3916 
   26850    288.98849   -390.85596    276507.94   -76589.165    7341.8809   -83931.046    1435.1162 
   26900    291.38035    -357.1337    276627.76   -76548.701    7402.6473   -83951.349    1436.9597 
   26950    293.59168   -654.50957    277117.11   -76572.337     7458.827   -84031.164    1439.6986 
   27000    287.38616    -611.8654    277380.16   -76568.877    7301.1731   -83870.051    1441.5276 
   27050    287.08142   -582.06895    276842.22   -76584.788     7293.431   -83878.219    1442.6592 
   27100     294.4921   -464.82564    276220.01   -76559.089    7481.7027   -84040.792    1445.7913 
   27150    287.93223   -101.25912    276025.93   -76586.551     7315.046   -83901.597    1449.2802 
   27200    293.73554   -459.77311    276411.44   -76571.334    7462.4818   -84033.816    1451.9697 
   27250    285.92086   -574.55642    277143.93   -76543.495    7263.9464   -83807.441    1456.1409 
   27300    292.62711   -675.09225    277483.08   -76540.218    7434.3216    -83974.54    1461.8524 
   27350    292.07499   -593.88278    277365.31   -76518.341    7420.2948   -83938.636    1464.4784 
   27400    294.96232   -654.07373    277117.97   -76482.002    7493.6488   -83975.651    1464.3981 
   27450    290.84625    -577.2848    276751.71   -76516.439    7389.0782   -83905.517    1466.6511 
   27500    293.14761   -556.18145    276495.96   -76501.628    7447.5451   -83949.173    1468.7446 
   27550    291.76353   -211.18727    276426.26   -76508.899    7412.3819   -83921.281    1470.2283 
   27600    294.93421   -285.88587    276634.59   -76511.549    7492.9345   -84004.484       1471.5 
   27650    288.74834   -433.20166    276955.98   -76528.847    7335.7797   -83864.627    1475.1275 
   27700    290.55185   -477.34692    276993.46   -76553.742    7381.5987   -83935.341    1477.4148 
   27750     291.0089   -570.05709    276927.79   -76515.767    7393.2104   -83908.977    1480.1743 
   27800    292.56869   -450.92565    276603.65   -76528.846    7432.8374   -83961.683    1479.4517 
   27850     293.9822   -636.80128     276601.4   -76494.186    7468.7484   -83962.934    1482.6414 
   27900    291.50955    -493.7709    276671.97   -76511.865    7405.9296   -83917.794    1486.3083 
   27950    292.12432   -335.23488    276610.59   -76528.362     7421.548    -83949.91    1487.0544 
   28000    291.18127   -667.37799    276706.61   -76524.259    7397.5896   -83921.848    1488.6902 
   28050    289.20308   -531.99119     276727.7   -76507.907    7347.3327    -83855.24    1492.1802 
   28100    290.81828   -524.91248    276809.97   -76528.538    7388.3676   -83916.906    1494.9881 
   28150    289.66914   -312.80652    276651.38    -76517.86    7359.1732   -83877.033    1495.8092 
   28200    294.50365   -498.35681    276536.91    -76526.16     7481.996   -84008.156      1498.98 
   28250    292.59269   -537.82338    276657.56   -76583.329    7433.4472   -84016.776    1503.8942 
   28300    294.09616   -614.80036    276600.76   -76573.252    7471.6435   -84044.896    1507.4858 
   28350    292.18972   -263.13888     276706.3    -76564.04    7423.2095   -83987.249    1511.1982 
   28400     290.7849   -335.22574    276922.86   -76514.873    7387.5195   -83902.393    1513.8602 
   28450    294.71472   -805.86257    277097.47   -76512.491    7487.3584   -83999.849    1517.0778 
   28500    291.49522   -483.01468    276836.64   -76524.796    7405.5654   -83930.361    1518.9951 
   28550    291.77978   -486.62268    276652.82   -76555.239    7412.7948   -83968.034    1519.8896 
   28600    291.32278   -395.83711    276811.23   -76536.683    7401.1845   -83937.867    1523.7455 
   28650    288.34089   -470.81394    277075.51   -76546.816    7325.4284   -83872.244    1526.3074 
   28700    287.94411   -741.86901    277101.77   -76558.711    7315.3479   -83874.059    1528.7537 
   28750     291.2683   -88.151327    276406.02   -76563.511    7399.8005   -83963.312    1528.8668 
   28800    287.63381    -477.9323    275969.67   -76576.424    7307.4647   -83883.889    1530.8739 
   28850    291.44783    -366.3657    276195.14   -76553.913    7404.3615   -83958.275    1534.4994 
   28900    287.66719   -735.81026    276875.92   -76595.265    7308.3127   -83903.578    1540.0167 
   28950    285.71779   -537.86101    277203.43   -76602.826    7258.7873   -83861.613    1544.2962 
   29000    287.74797   -396.25242    276964.14   -76631.654    7310.3649   -83942.019    1545.5854 
   29050    290.48177   -512.79147    276330.25   -76627.454    7379.8184   -84007.273    1545.4716 
   29100    290.05901   -16.760496    276029.73   -76662.582    7369.0779    -84031.66     1546.073 
   29150    284.55447   -500.04702    276475.73   -76652.364    7229.2326   -83881.596    1549.2475 
   29200    285.24729   -466.35569    276781.84   -76659.316    7246.8341    -83906.15    1552.3834 
   29250    288.05573   -383.66028    276878.65   -76659.624    7318.1837   -83977.807    1553.3372 
   29300    286.61777   -539.72439    276754.64   -76682.451    7281.6518   -83964.103    1553.3823 
   29350    282.11205   -487.50766    276607.98   -76675.661     7167.182   -83842.843    1555.3854 
   29400     287.9312   -346.88785    276459.66   -76652.732    7315.0199   -83967.752    1556.0561 
   29450     291.5171   -573.24835    276469.25   -76629.351    7406.1215   -84035.473    1558.0392 
   29500    286.34287   -281.96062    276567.71   -76603.425    7274.6678   -83878.093    1559.9429 
   29550    294.93927   -364.02381    276726.97   -76556.805    7493.0631   -84049.868    1562.0051 
   29600    293.14835   -463.18881    277026.06   -76557.965     7447.564   -84005.529    1566.1764 
   29650    290.26384   -385.97829    276985.59   -76532.208    7374.2817    -83906.49    1569.0819 
   29700    290.36156    -486.0269    276653.72   -76541.283    7376.7643   -83918.047    1571.6986 
   29750    290.91134   -176.71206    276405.31   -76502.285    7390.7317   -83893.016    1572.5117 
   29800     297.4218   -479.39119    276498.78   -76475.355     7556.133   -84031.488    1573.4651 
   29850    294.30981   -439.52692    276608.99   -76436.015    7477.0713   -83913.086    1574.1167 
   29900    294.35109   -576.88485     276823.1    -76446.72    7478.1202    -83924.84    1577.1803 
   29950    293.90262   -696.19235    276942.54   -76446.515    7466.7265   -83913.242    1581.1268 
   30000    288.66676   -501.24105    276740.44   -76426.566    7333.7073   -83760.273    1583.3605 
   30050    298.54952   -559.44088    276582.16   -76420.506    7584.7833   -84005.289      1584.77 
   30100    292.88683   -264.65931     276632.2   -76435.239      7440.92   -83876.159    1586.5952 
   30150    296.38086   -409.36193    276800.01    -76423.05    7529.6874   -83952.737    1588.0824 
   30200    287.23767   -529.84479    276975.82   -76451.021    7297.4005   -83748.421    1590.3898 
   30250    291.27995   -239.57565    277018.81   -76468.619    7400.0964   -83868.715     1594.694 
   30300    290.04633   -526.71848     276940.1   -76527.722    7368.7559   -83896.478    1598.8261 
   30350    288.17053   -562.45094    276976.71   -76544.686    7321.1003   -83865.786    1598.6225 
   30400    289.86859   -565.98835    276829.84   -76575.101    7364.2402   -83939.341    1599.6214 
   30450    290.55949   -448.37036    276586.24   -76608.987     7381.793    -83990.78    1600.5881 
   30500     296.1796   -616.44205    276368.49   -76606.605    7524.5742   -84131.179    1600.8012 
   30550    292.55666   -163.95714    276394.92   -76533.179    7432.5319   -83965.711    1603.5259 
   30600    294.11391    -594.6546    276924.35   -76496.665    7472.0945    -83968.76    1607.9675 
   30650    290.18268   -532.96254    277290.45   -76448.779    7372.2199   -83820.998    1612.1612 
   30700    289.50114   -591.90077    277351.59   -76444.749    7354.9051   -83799.654    1615.6084 
   30750    290.22498   -477.33295    276768.29   -76436.891    7373.2944   -83810.185    1617.1616 
   30800    294.04318   -280.31286    276200.67   -76446.274    7470.2977   -83916.572    1617.7455 
   30850    290.63015   -288.21574    276424.03   -76408.068    7383.5879   -83791.656    1621.6753 
   30900    290.74211   -727.47226    277125.07    -76383.87    7386.4325   -83770.302    1624.1118 
   30950    295.79169   -742.57391    277452.07   -76410.116    7514.7193   -83924.835     1626.715 
   31000    290.92905   -653.04515     277128.4   -76420.928    7391.1817    -83812.11    1626.8376 
   31050    297.17624   -817.62139    276713.73   -76461.443    7549.8943   -84011.337    1627.1977 
   31100    293.94157   -700.66342     276818.7   -76426.088     7467.716   -83893.804    1630.1699 
   31150    290.78685   -798.75576    277213.67   -76390.184    7387.5691   -83777.753     1632.924 
   31200    292.77818   -546.75766     277151.2   -76416.307    7438.1596   -83854.466      1636.09 
   31250    294.38751   -490.21115    276577.51   -76441.343    7479.0454   -83920.388    1636.8642 
   31300    292.40967   -414.90459    276281.95   -76432.603    7428.7974     -83861.4    1638.7677 
   31350    292.23795   -117.15223    276433.71   -76451.968     7424.435   -83876.403    1645.4878 
   31400    292.21504   -525.76093    277107.92   -76451.667    7423.8528    -83875.52    1650.4035 
   31450    289.73266   -391.96613    277201.63   -76454.604    7360.7869   -83815.391    1653.0144 
   31500    286.35186   -354.35384    277037.14    -76503.25    7274.8962   -83778.147    1655.8066 
   31550    289.12592    -554.5819    276947.68   -76572.655    7345.3724   -83918.028    1656.4432 
   31600    291.01937   -599.41784    276797.88   -76517.143    7393.4762   -83910.619    1660.1002 
   31650    290.82106   -452.44467    276860.58   -76496.524    7388.4381   -83884.962    1662.8863 
   31700    297.95448   -771.53728     277089.2   -76462.716    7569.6659   -84032.382    1665.7416 
   31750     288.5056   -680.60444    277119.46   -76435.035    7329.6128   -83764.648    1668.3705 
   31800    294.67907     -628.278    276946.07   -76488.626    7486.4526   -83975.079    1669.4961 
   31850    291.96311   -576.86818    276778.44   -76469.449    7417.4524   -83886.902    1670.2294 
   31900    296.92828   -421.18552    276627.84   -76460.428    7543.5949   -84004.023    1670.5951 
   31950    288.13198   -564.84261    276988.32   -76437.235    7320.1209   -83757.356    1673.3477 
   32000    295.58988   -494.19765    277335.07   -76425.128    7509.5921    -83934.72    1676.0396 
   32050    294.84071   -732.98177    277435.76   -76443.873    7490.5591   -83934.432    1677.3149 
   32100    293.46065    -652.5103    276910.23   -76463.174    7455.4981   -83918.672    1674.8494 
   32150     290.2914   -424.32072    276418.46   -76506.458    7374.9819    -83881.44    1674.6821 
   32200    291.23507   -424.05886     276310.3   -76514.502    7398.9562   -83913.459    1677.0313 
   32250    288.61809   -422.71589    276676.47   -76442.062    7332.4707   -83774.533    1683.0568 
   32300    295.35679   -782.71674    277031.44   -76440.493    7503.6705   -83944.163    1687.2116 
   32350    290.68991   -398.65253     276916.1   -76474.345    7385.1062   -83859.452    1689.3948 
   32400    291.95252   -574.45039    276790.34   -76517.665    7417.1834   -83934.848    1690.4908 
   32450    294.46543   -408.19427    276635.08   -76475.009    7481.0251   -83956.034    1691.9489 
   32500    289.29414   -427.57948    276734.23   -76446.816    7349.6462   -83796.462    1694.9225 
   32550     289.8131   -525.49997    277080.12   -76433.286    7362.8305   -83796.117    1698.8173 
   32600     296.2304   -910.47347    277419.05   -76453.146    7525.8649   -83979.011    1705.4088 
   32650    289.23346   -243.08982    276989.25   -76448.699    7348.1045   -83796.804    1705.7799 
   32700    289.03206   -400.64899    276612.06   -76454.551    7342.9879   -83797.539    1707.5566 
   32750     292.9453    62.557167    276492.28    -76470.24    7442.4055   -83912.646    1710.6777 
   32800    292.18884   -481.63771    276783.56   -76442.778    7423.1871   -83865.965    1714.8465 
   32850    292.97093   -522.86128    276970.11   -76433.975    7443.0567   -83877.031    1714.8262 
   32900    299.41823   -525.51157    276782.95   -76417.348    7606.8532   -84024.202    1715.8851 
   32950    297.03002   -393.08467    276749.63   -76439.669    7546.1796   -83985.849    1716.8713 
   33000    292.41362    -402.7836    276949.13   -76446.492    7428.8978    -83875.39    1719.4991 
   33050    294.06707   -630.65619    277083.51   -76436.145    7470.9045    -83907.05    1721.7855 
   33100    292.20214   -586.12121    276957.24   -76439.469     7423.525   -83862.994    1725.0191 
   33150    293.09149   -288.47626    276818.31   -76428.365    7446.1193   -83874.484    1726.8792 
   33200    291.76401    -554.7008    276790.68   -76454.731    7412.3943   -83867.125    1729.1963 
   33250    294.17384   -496.80436    276736.94   -76418.417    7473.6169   -83892.034    1730.3204 
   33300    294.68785   -570.37852    276640.62   -76396.205    7486.6757    -83882.88    1734.8531 
   33350    292.59986   -324.69046    276872.78   -76388.672    7433.6294   -83822.301    1737.9354 
   33400    293.38559   -453.84169    277097.57   -76392.725    7453.5913   -83846.316    1739.8577 
   33450    296.67261    -246.2964    277058.51   -76363.906    7537.0994   -83901.006     1741.655 
   33500     296.8335   -628.48466    277294.61    -76322.46    7541.1869   -83863.647    1744.3623 
   33550    294.66939   -465.38232       277396    -76266.85    7486.2067   -83753.056    1745.9984 
   33600     293.0769   -438.51953    277267.37   -76279.377    7445.7488   -83725.126    1748.7272 
   33650    299.19089   -587.58846    276780.74   -76277.742    7601.0775    -83878.82    1750.2307 
   33700     293.5733   -115.92083       276485   -76292.288    7458.3601   -83750.648    1751.4296 
   33750    291.29868   -361.10795    277124.13   -76329.523    7400.5724   -83730.095    1756.2572 
   33800    294.11142   -457.13501    277614.02   -76357.734    7472.0311   -83829.765    1759.0628 
   33850    295.12056   -870.25819    277769.74   -76399.056     7497.669   -83896.725    1762.9448 
   33900    293.64523   -444.92859    277179.86   -76399.617    7460.1874   -83859.804     1762.563 
   33950    294.07507   -273.05481    276502.55   -76404.283    7471.1078   -83875.391     1760.945 
   34000    294.06703     -173.411    276230.76    -76405.31    7470.9034   -83876.214    1761.4284 
   34050    297.80503   -421.76485    276671.66   -76454.216    7565.8691   -84020.085      1765.24 
   34100    295.19414   -809.30326    277299.36   -76457.291    7499.5382   -83956.829    1768.8566 
   34150    288.75411   -584.91747     277393.2    -76479.04    7335.9263   -83814.966    1770.8468 
   34200    296.98957   -829.80648     277071.2   -76469.097    7545.1518   -84014.249    1771.4979 
   34250    292.95462   -382.81064    276560.69   -76551.564    7442.6421   -83994.206    1774.1657 
   34300    293.16611   -630.23565    276343.14    -76581.59    7448.0152   -84029.605    1776.8898 
   34350    289.92123   -580.70497    276478.51   -76563.265    7365.5775   -83928.842    1781.8064 
   34400    288.50281   -597.00135    276816.91   -76608.032     7329.542   -83937.574    1786.6902 
   34450    289.87872   -597.90521    277373.72   -76570.963    7364.4977   -83935.461     1789.953 
   34500    291.39425   -764.11945    277430.66   -76601.207    7403.0003   -84004.207     1790.306 
   34550    292.02383    -544.7045    276647.37   -76564.183    7418.9952   -83983.178    1788.1212 
   34600    286.57124   -432.53177    275878.98   -76544.244    7280.4696   -83824.714    1787.3664 
   34650    295.47041   -447.58715    275888.46   -76550.681    7506.5569   -84057.238    1791.4403 
   34700     291.8455    -350.0013    276738.97   -76522.556    7414.4645   -83937.021    1799.0968 
   34750    289.69283   -908.36756     277712.8   -76605.152     7359.775   -83964.927    1804.8149 
   34800    291.61076   -771.74604     277377.3   -76595.334    7408.5009   -84003.835    1805.2881 
   34850    293.12914   -459.82782    276333.69    -76635.52    7447.0759   -84082.596    1802.3477 
   34900    291.91042   -220.24739    275791.47   -76620.085    7416.1138   -84036.199    1801.7722 
   34950    291.57555   -583.79589    276351.26   -76649.067    7407.6064   -84056.673    1807.1784 
   35000    288.56966   -953.74934    277169.87   -76618.566    7331.2404   -83949.807    1812.3835 
   35050    284.81514   -477.11042    277218.61   -76648.612     7235.855   -83884.467    1816.1431 
   35100    292.56326   -511.47249    276837.75   -76652.745    7432.6996   -84085.445    1818.1045 
   35150    291.68673   -419.54835    276298.78    -76646.91    7410.4308   -84057.341    1817.4725 
   35200     287.5713   -486.30876    276043.71    -76612.91    7305.8767   -83918.787    1818.3929 
   35250    295.63479    -617.9301    276033.12   -76629.595     7510.733   -84140.329      1820.81 
   35300    290.72966   -600.11859    276535.46   -76556.538     7386.116   -83942.654    1824.6609 
   35350    288.54918   -528.50526    277159.07   -76553.502    7330.7201   -83884.222     1829.749 
   35400     295.7231   -857.64976    277132.07   -76522.556    7512.9766   -84035.532    1834.2491 
   35450    291.72192   -426.89545    276447.77   -76559.979     7411.325   -83971.304    1834.6254 
   35500    285.26022   -275.44701    276124.21   -76561.933    7247.1626   -83809.096    1833.9875 
   35550    287.37842   -372.27557    276693.21   -76561.931    7300.9765   -83862.908    1837.2074 
   35600    293.05439    -775.9363    277472.81   -76509.172    7445.1769   -83954.349    1842.0115 
   35650    291.02343   -810.43365       277543   -76507.231    7393.5795    -83900.81    1842.2191 
   35700    292.36549   -233.31645    276827.34   -76523.997     7427.675   -83951.672    1841.9245 
   35750    294.64234   -637.06807    276363.54   -76507.156    7485.5195   -83992.676    1839.4851 
   35800    298.36635   -526.18704    276385.74    -76511.55    7580.1297    -84091.68      1839.98 
   35850    292.99963   -555.14233    276793.38   -76512.453    7443.7857   -83956.239    1845.2226 
   35900    293.71309   -606.46242    277239.14   -76469.385    7461.9115   -83931.297    1849.7382 
   35950    292.26049   -655.98742    277431.87   -76494.362    7425.0076    -83919.37    1852.7056 
   36000    297.63513   -686.02216    277184.14   -76497.299    7561.5526   -84058.852    1853.1502 
   36050    292.46897   -517.91549    276671.75   -76555.763    7430.3039   -83986.067     1852.603 
   36100    289.23347   -460.22428    276350.79   -76512.334    7348.1048   -83860.438    1854.1086 
   36150    292.52636   -415.44833    276409.56   -76525.278     7431.762    -83957.04    1857.3834 
   36200    293.85951   -432.27284    276689.69   -76551.173    7465.6315   -84016.804    1862.4397 
   36250    285.27749     -507.045    276828.36   -76566.612    7247.6012   -83814.214    1867.8323 
   36300    291.03624    -708.4422    276732.63   -76578.549    7393.9048   -83972.454     1868.695 
   36350    292.46002   -549.36041    276494.74   -76601.719    7430.0767   -84031.796    1870.7233 
   36400    290.14747   -654.89554    276590.87    -76604.21    7371.3254   -83975.536    1874.7275 
   36450    294.83182   -746.64679    276816.94   -76548.569    7490.3333   -84038.902    1879.0131 
   36500    289.26086   -399.90714    276765.46   -76483.046    7348.8006   -83831.847    1883.8385 
   36550    292.50664     -493.086    276776.96   -76497.208    7431.2611   -83928.469    1887.0311 
   36600    292.22978   -490.59072    276918.13   -76558.486    7424.2273   -83982.714       1891.1 
   36650    290.87786   -569.55605    277045.59   -76567.919    7389.8813     -83957.8    1892.6003 
   36700    291.35651   -519.50618    276810.16   -76609.506    7402.0416   -84011.547    1896.0982 
   36750    292.68059    -270.2458    276293.35     -76605.1    7435.6803    -84040.78    1895.5388 
   36800    291.14164   -426.25808    276368.47   -76609.693    7396.5827   -84006.275    1895.7718 
   36850    290.90956   -529.93567    277076.44   -76591.195    7390.6864   -83981.881    1901.0592 
   36900    285.31995   -868.36793    277527.31   -76572.254    7248.6801   -83820.934    1903.9308 
   36950    288.53485   -543.17115    277090.38   -76585.811     7330.356   -83916.167     1904.287 
   37000    291.93995   -375.15638    276268.55   -76603.083    7416.8641   -84019.947    1900.3571 
   37050    291.33414    -227.6558    276055.13   -76601.402    7401.4733   -84002.875    1902.5447 
   37100    291.10959   -437.36508    276440.91   -76525.617    7395.7683   -83921.385    1905.6899 
   37150    291.57221   -658.53468    277076.59   -76510.754    7407.5215   -83918.275    1909.9457 
   37200    298.91908   -626.38303    277264.77   -76529.468     7594.172    -84123.64    1912.3354 
   37250    287.98033   -600.33547    277270.29   -76544.119    7316.2682   -83860.387    1914.6276 
   37300    292.60682   -450.21098    276806.11   -76577.642    7433.8062   -84011.448    1913.8982 
   37350    288.72658   -425.42931    276355.24   -76552.775    7335.2269   -83888.002    1913.8616 
   37400    290.92586   -575.41393    276265.16   -76521.834    7391.1006   -83912.934    1915.6334 
   37450    290.71008   -409.99678    276632.85   -76508.101    7385.6186    -83893.72    1921.3864 
   37500    300.07193   -785.55242    277281.42   -76470.976    7623.4606   -84094.437    1926.8172 
   37550    289.54078   -774.08441    277443.54   -76528.591    7355.9121   -83884.503    1931.9002 
   37600    288.12993    -461.5962    277217.96   -76547.627    7320.0689   -83867.696    1934.8123 
   37650    289.81068   -437.30875    276827.54    -76552.18    7362.7691   -83914.949    1935.3104 
[...]
   90850    292.16122   -393.15462    276884.75   -76627.347    7422.4855   -84049.833    4738.3436 
   90900    293.92096   -596.42252    276830.99   -76617.392    7467.1926   -84084.585    4738.5494 
   90950    289.95368   -633.82066    276521.37   -76628.615    7366.4019   -83995.017    4738.0238 
   91000     282.9269   -544.80021    276066.97   -76652.606    7187.8835    -83840.49    4734.7417 
   91050    292.49977   -332.58119    275939.17   -76690.469    7431.0865   -84121.555    4736.6546 
   91100    292.90312   -360.82866    276436.75   -76635.482    7441.3339   -84076.816    4743.2002 
   91150    286.37619   -559.17705    277151.75   -76585.739    7275.5143   -83861.254    4756.7012 
   91200    289.92308   -844.15721    277394.48   -76604.791    7365.6246   -83970.415    4759.2827 
   91250    293.79663   -506.58947    276874.85   -76577.216    7464.0337    -84041.25    4754.7689 
   91300    293.57009   -232.15922    276151.89   -76588.897    7458.2784   -84047.176    4748.1391 
   91350    289.03257   -143.85576    276103.57   -76602.775    7343.0007   -83945.776    4750.4051 
   91400    287.06693   -611.82744    276578.13   -76623.187    7293.0629    -83916.25    4756.0054 
   91450     292.1969   -279.92926    276836.43   -76579.162    7423.3919   -84002.554    4759.4219 
   91500    290.37476   -480.67801     276945.2   -76628.993    7377.0998   -84006.093    4760.8287 
   91550    292.19269   -748.96499    276987.29   -76591.574    7423.2849   -84014.859    4763.5776 
   91600    290.31852   -424.84326     276820.8   -76605.148    7375.6709   -83980.819    4765.8245 
   91650    289.88133   -487.86489    276425.95   -76587.678    7364.5638   -83952.242    4763.7583 
   91700     290.9684   -371.48719    276327.86   -76604.219    7392.1814     -83996.4    4766.2021 
   91750    293.25453    -430.1055    276447.95   -76586.208    7450.2615   -84036.469     4769.831 
   91800    286.41588   -560.32778     276730.5   -76595.077    7276.5225     -83871.6    4776.9861 
   91850    288.61973    -521.1855    276887.85   -76598.795    7332.5124   -83931.307    4780.4549 
   91900    291.46524   -557.59135     276875.4   -76575.092    7404.8037   -83979.896    4779.1118 
   91950     288.1559   -478.58531    276744.24   -76556.847    7320.7286   -83877.576    4779.3347 
   92000    289.40368   -222.05319    276417.86   -76624.307    7352.4291   -83976.736    4778.4872 
   92050    290.25145   -467.24475     276516.1   -76635.401    7373.9669   -84009.368    4780.3685 
   92100    289.64218   -386.15187    276755.19   -76606.562    7358.4881    -83965.05    4788.1743 
   92150    289.56728   -620.42594     277001.1   -76638.647    7356.5855   -83995.232    4794.0517 
   92200     287.9078   -642.65753    277032.73   -76605.852    7314.4255   -83920.277    4795.7669 
   92250    290.48487   -283.51749     276736.5    -76578.22    7379.8971   -83958.118    4795.0672 
   92300    292.60246   -500.18173    276385.74   -76574.874    7433.6955    -84008.57    4793.5906 
   92350     293.3814   -325.09327    276298.16    -76539.34    7453.4847   -83992.825    4794.2124 
   92400    295.18212   -435.63997    276674.22   -76562.934    7499.2328   -84062.167    4800.0455 
   92450    290.70894   -553.06963    277237.49   -76561.815    7385.5896   -83947.404    4809.6348 
   92500    292.08308   -635.67732    277035.82   -76613.324    7420.5005   -84033.825    4810.7636 
   92550    292.80125   -529.43561    276452.97   -76653.861    7438.7459   -84092.607    4803.8076 
   92600    291.18726    -656.3938    276155.53   -76629.315    7397.7417   -84027.056    4799.7339 
   92650     292.6264   -120.22807    275821.11   -76603.426    7434.3035   -84037.729    4798.4389 
   92700     294.0496   -593.07706    276452.43   -76602.428    7470.4607   -84072.888    4803.7991 
   92750    287.19776   -572.81047    277143.17   -76568.238    7296.3866   -83864.625    4815.1471 
   92800     292.3753   -381.50304    277278.44   -76562.054    7427.9244   -83989.979    4818.4548 
   92850    289.76831   -530.50126     277226.8    -76515.32    7361.6925   -83877.012    4823.2252 
   92900    294.12283   -438.37586    277024.03    -76500.67    7472.3211   -83972.991    4822.6239 
   92950    293.58055    -525.8449    276654.36   -76477.144    7458.5441   -83935.689    4818.3914 
   93000    292.56905   -224.09297    276428.08   -76411.945    7432.8467   -83844.792    4819.4011 
   93050     295.1867    -393.0556    276895.03   -76382.148    7499.3492   -83881.497    4829.0032 
   93100    292.27452   -564.89158    277560.82   -76405.986     7425.364    -83831.35    4839.4979 
   93150    287.70681   -865.73221    277776.45   -76431.482    7309.3194   -83740.801     4845.367 
   93200    291.99567   -405.12841    276986.93   -76488.743    7418.2797   -83907.023    4840.2103 
   93250    294.91663   -332.12182    276317.85   -76491.097     7492.488   -83983.585    4832.7854 
   93300    291.82122   -271.51051    276182.75   -76483.647    7413.8477   -83897.495    4835.0918 
   93350    292.75106   -455.87697     276554.8   -76496.441    7437.4707   -83933.912    4840.4944 
   93400    292.57859   -478.27599    277011.63   -76451.885    7433.0891   -83884.974    4850.2604 
   93450    295.56569   -734.36805    277350.51   -76462.359    7508.9776   -83971.336    4858.3677 
   93500    287.90456   -427.57849    277148.83   -76491.717    7314.3431    -83806.06    4858.9205 
   93550    291.24764   -533.47929    276738.32   -76442.336    7399.2756   -83841.612    4859.3585 
   93600    293.62351   -142.08938    276396.94   -76436.356    7459.6357   -83895.991    4859.2284 
   93650    290.33261   -501.71986    276747.29   -76414.213    7376.0289   -83790.242      4865.84 
   93700    291.92747    -355.8014    277125.52   -76378.101    7416.5471   -83794.648    4874.4108 
   93750    290.05037    -849.0441    277321.64   -76419.737    7368.8585   -83788.596    4879.8738 
   93800    293.03205    -260.0664    276979.24   -76449.868    7444.6095   -83894.478    4879.7771 
   93850     290.2022   -455.99892    276841.32   -76447.976    7372.7157   -83820.692     4878.934 
   93900    291.22627   -593.45956    276692.35   -76438.619    7398.7326   -83837.352    4879.1756 
   93950    293.67366   -555.10109    276572.74   -76444.797    7460.9097   -83905.706     4881.553 
   94000    294.13904   -562.16699    276666.69   -76500.441     7472.733   -83973.175    4887.3493 
   94050    289.31045    -618.3834    276692.56   -76562.802    7350.0604   -83912.862    4889.2231 
   94100    287.32789   -526.63686     276603.1   -76574.257    7299.6927    -83873.95    4892.0166 
   94150    293.76266   -402.09852    276553.76    -76614.07    7463.1708   -84077.241    4892.6563 
   94200    289.30211   -552.50504    276632.18   -76579.422    7349.8485    -83929.27    4901.3082 
   94250    289.37567   -400.87209    276435.37   -76527.269    7351.7174   -83878.986    4903.9545 
   94300    291.64876   -393.44451    276414.29   -76524.842    7409.4662   -83934.309    4903.9005 
   94350    292.31153   -522.42375    276835.26   -76546.278    7426.3042   -83972.582    4910.3183 
   94400    291.01225   -719.44308    277502.21   -76548.945    7393.2954    -83942.24    4921.1372 
   94450    289.70189   -661.41055    277616.18   -76540.378    7360.0052   -83900.383    4922.7901 
   94500    290.49556   -404.03217    276813.41   -76567.739    7380.1687   -83947.907    4912.3999 
   94550    290.88656   -313.04745    276088.39   -76557.349    7390.1022   -83947.452    4905.5767 
   94600    286.52087    -145.4111    275902.91   -76549.193      7279.19   -83828.383    4909.4188 
   94650    288.81074   -288.18236    276349.77   -76570.079    7337.3652   -83907.444    4917.8918 
   94700    293.24902   -707.26672    277253.13   -76551.572    7450.1216   -84001.694    4930.4704 
   94750    283.82047   -745.04394    277589.94   -76584.249    7210.5852   -83794.834    4936.7641 
   94800    292.19441   -550.35784    276997.89   -76636.245    7423.3289   -84059.574    4932.2438 
   94850    288.27069    -413.9065    276243.68   -76678.957    7323.6448   -84002.602    4924.2194 
   94900    287.45977   -310.44597    275973.73   -76679.141    7303.0431   -83982.184    4924.0095 
   94950    293.58617   -635.18842    276356.81   -76637.482     7458.687   -84096.169    4930.3727 
   95000    286.03778   -230.69656    276672.06   -76697.805    7266.9169   -83964.722    4936.6902 
   95050    288.85422   -732.39713    277141.15    -76710.49    7338.4698    -84048.96    4943.9194 
   95100    284.75624   -697.67069    276941.35   -76671.572    7234.3588    -83905.93    4944.0332 
   95150    291.11088   -453.21871    276294.29   -76648.729    7395.8012   -84044.531    4941.5955 
   95200     288.2664   -326.74436    275904.08   -76669.454    7323.5359    -83992.99     4939.038 
   95250    285.32458   -557.43008    276406.04   -76685.144    7248.7976   -83933.941    4951.2488 
   95300    285.12964   -400.30128    276856.56       -76701    7243.8451   -83944.846    4958.3582 
   95350    288.90137   -820.72054    276972.83   -76698.606    7339.6677   -84038.274    4959.7782 
   95400     287.2762   -374.62839    276563.81   -76643.582    7298.3795   -83941.962    4958.3261 
   95450    290.00296   -549.69431    276415.81    -76637.48    7367.6539   -84005.134    4959.9748 
   95500     291.3871   -421.41538    276402.24   -76620.406    7402.8187   -84023.225    4964.6979 
   95550    286.22844   -374.21511    276699.41   -76559.315    7271.7606   -83831.076    4971.7607 
   95600     290.9129   -777.62188    277091.62   -76565.458    7390.7715    -83956.23    4978.3506 
   95650    287.83941   -554.69141    277062.42   -76531.366    7312.6879   -83844.054     4982.553 
   95700    290.09718   -602.35872    276843.75   -76525.237    7370.0477   -83895.284    4981.9934 
   95750    290.89817   -284.11306    276707.05   -76521.121    7390.3971   -83911.518    4982.6134 
   95800    292.81517   -402.83245    276817.44   -76509.902    7439.0993   -83949.002    4986.3936 
   95850    292.56262   -470.30646    277018.34   -76499.342    7432.6833   -83932.026    4994.6975 
   95900    289.79279   -256.64374    277013.73   -76506.141    7362.3145   -83868.455    5000.8266 
   95950    288.76218   -641.09356       277107   -76482.018    7336.1313   -83818.149    5006.2373 
   96000    289.11017   -393.99786     277000.9   -76469.233    7344.9721   -83814.205    5009.4717 
   96050    291.19491   -670.50416    276917.38   -76467.653    7397.9361    -83865.59     5008.481 
   96100    293.86516    -457.4761    276717.15   -76537.039    7465.7748   -84002.814    5011.4203 
   96150    289.15525   -445.42754    276842.76   -76553.345    7346.1174   -83899.462    5015.6116 
   96200     293.3307   -511.46224    277068.97   -76543.689    7452.1966   -83995.886    5018.1562 
   96250     292.5216     -624.438    277193.82   -76564.678    7431.6412   -83996.319     5024.076 
   96300    289.46974   -656.13961    277140.81   -76526.801    7354.1073   -83880.908    5024.8864 
   96350    288.34362   -208.87703    276589.02   -76558.363    7325.4978   -83883.861    5017.9281 
   96400    293.45438   -657.58369    276487.04   -76589.519    7455.3388   -84044.858    5016.7031 
   96450    286.10485   -227.62907    276736.94   -76544.135    7268.6208   -83812.755     5024.881 
   96500     289.0961   -622.88679    277220.56   -76520.095    7344.6148    -83864.71    5031.9928 
   96550    291.84308   -678.82732    277394.29   -76547.134     7414.403   -83961.537    5032.5254 
   96600     283.9897   -517.79035    276716.91   -76612.714    7214.8845   -83827.598    5025.0502 
   96650    288.89998   -330.73514    275862.66   -76639.714    7339.6323   -83979.347    5014.5376 
   96700    287.78823   -369.95946     275733.3   -76647.862    7311.3877    -83959.25    5013.9183 
   96750    287.52151   -602.80627     276361.5   -76682.782    7304.6115   -83987.394    5021.0558 
   96800    286.38722   -740.52119    277259.47   -76695.464    7275.7945   -83971.259    5032.9664 
   96850    289.05773   -636.98194    277541.08   -76678.963    7343.6399   -84022.603    5036.0968 
   96900    291.17125   -564.89521    276944.88   -76659.446    7397.3348    -84056.78     5031.343 
   96950    286.96229   -462.25335     276179.9   -76656.986    7290.4043    -83947.39    5025.5292 
   97000    289.55368   -268.10569    275719.68   -76585.439    7356.2398   -83941.679    5021.7975 
   97050     293.0525   -331.98112       276063   -76589.435     7445.129   -84034.564     5025.563 
   97100    289.49755   -668.11823    277049.43   -76590.625    7354.8138   -83945.439    5037.5401 
   97150    292.13671   -1080.5717     277823.9   -76619.874    7421.8629   -84041.737    5045.8669 
   97200    290.73761   -1071.1586     277496.3   -76593.956     7386.318   -83980.274     5040.696 
   97250     289.9157   -430.69976    276368.44   -76601.119    7365.4371   -83966.556    5031.1157 
   97300    295.65637   -286.00125     275853.9   -76552.888    7511.2813    -84064.17    5028.5399 
   97350    293.15727   -111.35251    276408.22   -76513.546    7447.7907   -83961.337    5033.0955 
   97400    291.82691   -785.36986    277242.77   -76483.336    7413.9922   -83897.329    5043.4637 
   97450    287.02112   -569.42875    277489.28   -76475.145    7291.8991   -83767.044    5048.5966 
   97500    291.70056   -877.72521    277218.94   -76487.086    7410.7822   -83897.868    5045.5548 
   97550    288.72906   -507.20026    276675.77   -76490.288    7335.2901   -83825.578    5037.0358 
   97600    292.20818   -318.14505    276209.65   -76477.655    7423.6787   -83901.333    5035.4785 
   97650    295.38915   -310.62634    276261.04   -76458.864    7504.4926   -83963.356    5038.0333 
   97700    292.03593   -520.92332    276785.48   -76459.406    7419.3025   -83878.708    5047.4974 
   97750    291.58254   -662.02826    277258.57   -76449.886     7407.784    -83857.67    5054.1656 
   97800    287.96218   -595.59522     277391.2   -76464.105    7315.8071   -83779.912    5059.1416 
   97850    294.03055   -560.43763    277016.03   -76493.185    7469.9768   -83963.162    5057.3608 
   97900    290.93289   -341.22272    276392.92   -76485.765    7391.2793   -83877.044    5051.7833 
   97950    295.84974   -616.96518    276460.72   -76484.236    7516.1941    -84000.43    5053.2478 
   98000    289.62634   -251.58853    276933.66   -76456.374    7358.0859    -83814.46    5060.2543 
   98050    292.15283   -870.77184    277454.65   -76465.181    7422.2724   -83887.454    5066.5037 
   98100    293.18858   -466.56502    277243.22   -76466.081     7448.586   -83914.667    5064.4598 
   98150    293.14609   -621.40304    276642.09   -76492.879    7447.5065   -83940.386    5060.7662 
   98200    289.33722   -367.25464    276400.42   -76462.233    7350.7407   -83812.974    5059.7861 
   98250    295.54951   -614.30081    276493.09   -76414.954    7508.5664    -83923.52    5060.9528 
   98300    296.19026   -315.19269    277030.26   -76408.055     7524.845     -83932.9    5070.5186 
   98350    297.58814   -881.33139    277602.05   -76359.639    7560.3589   -83919.998    5077.5376 
   98400    295.42223   -799.75342    277390.42   -76388.732     7505.333   -83894.065    5076.9335 
   98450    292.23211   -328.42436    276719.12   -76418.018    7424.2866   -83842.304    5067.9791 
   98500    289.18808   -476.41726     276648.8   -76467.537    7346.9516   -83814.489    5067.0731 
   98550    289.32462   -763.63564     277137.9   -76460.153    7350.4204   -83810.573    5072.5827 
   98600    294.66669   -1046.5212    277327.68   -76448.232     7486.138    -83934.37    5077.0923 
   98650    292.32431   -455.31131    276744.06   -76399.209    7426.6289   -83825.838    5073.2968 
   98700    300.82001   -290.37203    276337.89   -76422.084     7642.466    -84064.55    5070.1354 
   98750    298.43546    -492.8924    276471.81   -76391.127    7581.8853   -83973.012    5074.5887 
   98800    296.77675   -742.61393    276971.01   -76417.679     7539.745   -83957.424     5081.657 
   98850    293.27988   -542.15649    277569.93   -76428.904    7450.9056    -83879.81    5094.2164 
   98900    293.46609   -797.17582    277603.73   -76418.685    7455.6363   -83874.322    5097.2624 
   98950    297.08085   -768.11598    277125.99    -76404.52     7547.471   -83951.991    5094.5168 
   99000    291.96143   -45.213758    276263.68    -76419.84    7417.4097    -83837.25    5085.0332 
   99050    297.27063   -194.58103     276089.9   -76481.335    7552.2923   -84033.627    5084.5099 
   99100     288.7381   -314.65364    276742.31   -76435.783    7335.5196   -83771.302    5095.1515 
   99150    292.07819   -795.57847    277761.94   -76492.109     7420.376   -83912.485     5111.311 
   99200    286.88586   -1023.3896    277950.05   -76543.981    7288.4626   -83832.444     5117.107 
   99250    285.84553   -338.67855    276810.59   -76587.178    7262.0326    -83849.21    5104.9532 
   99300     291.4144   -314.58782    275881.31   -76610.486    7403.5122   -84013.998    5091.9321 
   99350    293.23731   -178.31179    275670.97   -76657.006     7449.824    -84106.83    5094.1168 
   99400    285.23737   -176.61742    276228.86    -76690.17     7246.582   -83936.752    5101.0657 
   99450     285.2559   -676.74755    277055.66   -76677.836    7247.0529   -83924.889    5114.1597 
   99500    283.77002   -752.73791    277266.36   -76668.719    7209.3034   -83878.023    5118.3342 
   99550    288.78068   -499.89441    276891.24   -76703.855    7336.6015   -84040.457    5113.5219 
   99600    292.03135   -421.81708    276612.46   -76721.669    7419.1861   -84140.855    5116.8015 
   99650    291.41695   -300.60542    276444.87   -76668.414     7403.577   -84071.991    5113.9298 
   99700    288.18967   -339.45319    276539.43     -76648.1    7321.5865   -83969.686    5118.2696 
   99750    287.34529   -589.76631    276648.61   -76618.818    7300.1347   -83918.953    5122.5936 
   99800    288.14118   -338.99654     276725.2    -76639.87    7320.3547   -83960.225    5121.6722 
   99850    289.39162   -363.39645    276704.89   -76679.381    7352.1226   -84031.503    5123.7985 
   99900    291.38576   -476.82485     276535.7   -76654.203    7402.7847   -84056.987    5123.6013 
   99950    290.60619   -416.37432    276504.92   -76634.183    7382.9793   -84017.163    5126.7305 
  100000    288.80938   -386.50708    276743.58   -76635.568    7337.3305   -83972.898     5132.978 
Loop time of 249.208 on 6 procs for 100000 steps with 8524 atoms

Performance: 346.699 ns/day, 0.069 hours/ns, 401.272 timesteps/s
99.4% CPU use with 6 MPI tasks x no OpenMP threads

MPI task timing breakdown:
Section |  min time  |  avg time  |  max time  |%varavg| %total
---------------------------------------------------------------
Pair    | 71.127     | 128.73     | 195        | 446.7 | 51.66
Neigh   | 31.033     | 36.286     | 39.701     |  59.7 | 14.56
Comm    | 8.1214     | 77.732     | 140.63     | 611.9 | 31.19
Output  | 0.16449    | 0.16746    | 0.18018    |   1.4 |  0.07
Modify  | 5.1442     | 5.2082     | 5.2874     |   2.0 |  2.09
Other   |            | 1.082      |            |       |  0.43

Nlocal:        1420.67 ave        1444 max        1384 min
Histogram: 2 0 0 0 0 0 0 0 2 2
Nghost:        2073.00 ave        2109 max        2050 min
Histogram: 1 2 0 0 0 2 0 0 0 1
Neighs:        0.00000 ave           0 max           0 min
Histogram: 6 0 0 0 0 0 0 0 0 0
FullNghs:      39565.7 ave       40238 max       39125 min
Histogram: 2 1 0 0 1 0 0 1 0 1

Total # of neighbors = 237394
Ave neighs/atom = 27.850070
Neighbor list builds = 20731
Dangerous builds = 0

# Create data file for import to other simulations
#
write_data data.${NAME}
write_data data.coexist_291K_-500atm_ML
System init for write_data ...

Total wall time: 0:04:09
