
# Import phase coexistance setup
#
read_data           data.coexist_${TEMP}K_${PRES}atm_ML
read_data           data.coexist_291K_${PRES}atm_ML
read_data           data.coexist_291K_-500atm_ML
Reading data file ...
  orthogonal box = (-0.28854426 -0.17528242 -0.17528242) to (104.69719 51.166819 51.166819)
  3 by 1 by 2 MPI processor grid
  reading atoms ...
  8524 atoms
  reading velocities ...
  8524 velocities
  read_data CPU = 0.037 seconds

# Define potential
#
pair_style 	    sw
pair_coeff	    * * /data/emrosky-sim/Freezing_Simulations/Melting/MLmW_fancy/ML_mW.sw mW
Reading sw potential file /data/emrosky-sim/Freezing_Simulations/Melting/MLmW_fancy/ML_mW.sw with DATE: 2019-02-27

# Reset velocity/set timestep
#
velocity	    all create ${TEMP} 120598 rot yes dist gaussian
velocity	    all create 291 120598 rot yes dist gaussian
timestep	    10.0

# Define output
#
compute	            1 all msd
compute             2 all orientorder/atom nnn NULL degrees 2 4 12
thermo              1000
thermo_style        custom step temp press vol etotal ke pe c_1[4]

# Neighbor lists
#
neigh_modify        delay 0 every 1 check yes

# Set fixes
#
fix                 1 all momentum 10 linear 1 1 1 rescale
fix                 2 all nph iso ${PRES} ${PRES} ${PCOUPL}
fix                 2 all nph iso -500 ${PRES} ${PCOUPL}
fix                 2 all nph iso -500 -500 ${PCOUPL}
fix                 2 all nph iso -500 -500 10000.0
fix                 3 all temp/csvr ${TEMP} ${TEMP} ${TCOUPL} 837492
fix                 3 all temp/csvr 291 ${TEMP} ${TCOUPL} 837492
fix                 3 all temp/csvr 291 291 ${TCOUPL} 837492
fix                 3 all temp/csvr 291 291 5000.0 837492

# Run very short equilibration
#
dump		    1 all atom 50 eq.${NAME}.dump
dump		    1 all atom 50 eq.melt_291K_-500atm_ML.dump
run	            500
Neighbor list info ...
  update every 1 steps, delay 0 steps, check yes
  max neighbors/atom: 2000, page size: 100000
  master list distance cutoff = 6.0032907
  ghost atom cutoff = 6.0032907
  binsize = 3.0016454, bins = 35 18 18
  2 neighbor lists, perpetual/occasional/extra = 1 1 0
  (1) pair sw, perpetual
      attributes: full, newton on
      pair build: full/bin/atomonly
      stencil: full/bin/3d
      bin: standard
  (2) compute orientorder/atom, occasional, copy from (1)
      attributes: full, newton on
      pair build: copy
      stencil: none
      bin: none
Per MPI rank memory allocation (min/avg/max) = 4.601 | 4.601 | 4.603 Mbytes
Step Temp Press Volume TotEng KinEng PotEng c_1[4] 
       0          291   -377.31425    276743.58   -76579.914    7392.9842   -83972.898            0 
     500    330.92215    -102.9262    271122.18   -78164.842    8407.2241   -86572.066    16.248583 
Loop time of 1.2096 on 6 procs for 500 steps with 8524 atoms

Performance: 357.144 ns/day, 0.067 hours/ns, 413.361 timesteps/s
99.5% CPU use with 6 MPI tasks x no OpenMP threads

MPI task timing breakdown:
Section |  min time  |  avg time  |  max time  |%varavg| %total
---------------------------------------------------------------
Pair    | 0.39101    | 0.66033    | 0.95293    |  27.7 | 54.59
Neigh   | 0.12186    | 0.14671    | 0.16282    |   4.2 | 12.13
Comm    | 0.053591   | 0.36224    | 0.65641    |  39.7 | 29.95
Output  | 0.009116   | 0.009703   | 0.010265   |   0.4 |  0.80
Modify  | 0.023922   | 0.025129   | 0.026287   |   0.5 |  2.08
Other   |            | 0.005499   |            |       |  0.45

Nlocal:        1420.67 ave        1443 max        1388 min
Histogram: 1 0 1 0 0 0 1 1 0 2
Nghost:        2072.33 ave        2084 max        2048 min
Histogram: 1 0 0 0 1 0 0 0 3 1
Neighs:        0.00000 ave           0 max           0 min
Histogram: 6 0 0 0 0 0 0 0 0 0
FullNghs:      39994.7 ave       40796 max       38882 min
Histogram: 1 0 0 1 0 1 0 1 1 1

Total # of neighbors = 239968
Ave neighs/atom = 28.152041
Neighbor list builds = 84
Dangerous builds = 0

reset_timestep      0
undump              1
unfix               2
unfix               3


################################################
#######         Run Simulation         #########
################################################

log                 log.run_${NAME}
log                 log.run_melt_291K_-500atm_ML
