
# Define the lattice
#
variable	    lattice_constant equal 6.36339
lattice		    diamond ${lattice_constant} orient x 0 0 1 orient y 0 1 0 orient z -1 0 0
lattice		    diamond 6.36339 orient x 0 0 1 orient y 0 1 0 orient z -1 0 0
Lattice spacing in x,y,z = 6.3633900 6.3633900 6.3633900

# Define region
# multiples of lattice spacing
#
region 		    simbox block 0 9 0 8 0 8

# Create Atoms
#
create_box          1 simbox
Created orthogonal box = (0.0000000 0.0000000 0.0000000) to (57.270510 50.907120 50.907120)
  3 by 1 by 2 MPI processor grid
create_atoms        1 box
Created 4608 atoms
  create_atoms CPU = 0.001 seconds
mass                1 18.015

# Define potential
#
pair_style          sw
pair_coeff          * * /data/emrosky-sim/Freezing_Simulations/Melting/MLmW_fancy/ML_mW.sw mW
Reading sw potential file /data/emrosky-sim/Freezing_Simulations/Melting/MLmW_fancy/ML_mW.sw with DATE: 2019-02-27

# Add velocity/set timestep
#
velocity            all create ${TEMP} 120598 rot yes dist gaussian
velocity            all create 291 120598 rot yes dist gaussian
timestep            5.0

# Define output
#
compute	            1 all msd
thermo              100
thermo_style        custom step temp press vol etotal ke pe c_1[4]

# Neighbor lists
#
neigh_modify        delay 0 every 1 check yes

# Set fixes
#
fix                 1 all momentum 10 linear 1 1 1 rescale
fix                 2 all nve
fix                 3 all temp/csvr ${TEMP} ${TEMP} 500.0 928347
fix                 3 all temp/csvr 291 ${TEMP} 500.0 928347
fix                 3 all temp/csvr 291 291 500.0 928347
fix                 4 all press/berendsen iso ${PRES} ${PRES} 1000.0 modulus 20000
fix                 4 all press/berendsen iso -500 ${PRES} 1000.0 modulus 20000
fix                 4 all press/berendsen iso -500 -500 1000.0 modulus 20000

# Run 0.5 ns equilibration
#
dump		    1 all custom 1000 eq.${NAME}.dump id type x y z vx vy vz
dump		    1 all custom 1000 eq.ice_291K_-500atm_ML.dump id type x y z vx vy vz
run                 100000
Neighbor list info ...
  update every 1 steps, delay 0 steps, check yes
  max neighbors/atom: 2000, page size: 100000
  master list distance cutoff = 6.0032907
  ghost atom cutoff = 6.0032907
  binsize = 3.0016454, bins = 20 17 17
  1 neighbor lists, perpetual/occasional/extra = 1 0 0
  (1) pair sw, perpetual
      attributes: full, newton on
      pair build: full/bin/atomonly
      stencil: full/bin/3d
      bin: standard
Per MPI rank memory allocation (min/avg/max) = 4.779 | 4.779 | 4.779 Mbytes
Step Temp Press Volume TotEng KinEng PotEng c_1[4] 
       0          291    -631.4845    148418.52       -51901    3996.1842   -55897.184            0 
     100    197.76868   -356.69314    148306.89   -50274.223    2715.8766   -52990.099   0.10084445 
     200    226.15629   -411.72187    148607.15   -49305.753     3105.712   -52411.465   0.11559364 
     300    243.43648   -466.63403    148786.87    -48690.19    3343.0138   -52033.204   0.14520749 
     400     264.9201   -459.32091    148919.87   -48284.901    3638.0396   -51922.941   0.14612799 
     500    282.35228   -435.03989    149040.39   -47994.871    3877.4286     -51872.3    0.1375295 
     600    287.18996   -471.17904    149131.85   -47722.719    3943.8626   -51666.581     0.154909 
     700    292.06431   -508.70723    149182.53   -47671.712       4010.8   -51682.512   0.14518418 
     800    290.04258   -510.97526    149182.08   -47572.938    3983.0364   -51555.974   0.15544014 
     900    287.71222   -503.39596    149192.18   -47549.141    3951.0345   -51500.176    0.1679566 
    1000    288.22443   -485.42521    149167.35   -47599.948    3958.0685   -51558.016   0.14763043 
    1100    293.05551   -500.32972    149186.41   -47546.572    4024.4117   -51570.983   0.15515633 
    1200       296.65   -451.77179    149192.69   -47542.228    4073.7734   -51616.002   0.15217492 
    1300    289.38235   -590.45418    149223.89   -47469.072    3973.9697   -51443.041   0.16636279 
    1400    284.56622   -507.65901    149205.81   -47561.772    3907.8317   -51469.604   0.16222799 
    1500    287.02585   -528.68363    149199.78   -47594.884    3941.6089   -51536.493   0.15094341 
    1600    293.07281   -471.95578    149175.96   -47525.722    4024.6493   -51550.371   0.16106462 
    1700    288.04198    -526.1355    149191.54   -47551.224     3955.563   -51506.787   0.15457842 
    1800    286.09613   -504.96812    149178.71   -47543.317    3928.8413   -51472.158   0.16780601 
    1900    289.07314   -514.94395    149194.26   -47458.987    3969.7234    -51428.71   0.16192788 
    2000    294.69519   -457.77502    149224.81   -47404.773    4046.9288   -51451.702   0.15363207 
    2100    287.07079   -525.61844    149209.77     -47575.2     3942.226   -51517.425   0.16383359 
    2200      288.089   -496.46025    149196.07   -47503.338    3956.2086   -51459.547   0.15126559 
    2300    296.85275   -496.26452    149198.34   -47438.444    4076.5577   -51515.002   0.17167228 
    2400    291.91385     -529.385    149190.59   -47463.953    4008.7338   -51472.686   0.16569519 
    2500    293.89291   -500.00445    149224.17   -47518.212    4035.9114   -51554.124   0.14809615 
    2600    290.40605   -525.30347     149206.4   -47547.862    3988.0277   -51535.889   0.16848959 
    2700    297.56435   -435.79722    149194.04    -47517.82    4086.3298    -51604.15   0.14146653 
    2800    288.77639   -499.02231    149182.23   -47416.198    3965.6484   -51381.846   0.17222404 
    2900    294.26524   -479.81392    149198.01   -47437.347    4041.0244   -51478.371   0.16028392 
    3000      292.972   -482.53041    149203.62   -47496.475    4023.2649   -51519.739   0.16406427 
    3100    296.96353   -466.55655    149216.34   -47471.414    4078.0789   -51549.493   0.15431799 
    3200    293.15798   -498.22049    149193.65   -47580.985    4025.8189   -51606.804   0.14645651 
    3300    291.31388    -490.5001    149146.23   -47638.002    4000.4946   -51638.497   0.14867811 
    3400    289.96411   -530.96681    149149.84   -47570.717    3981.9588   -51552.675   0.15515468 
    3500    292.00368    -468.8897     149165.5   -47540.088    4009.9673   -51550.055   0.16220634 
    3600    285.81574   -501.83176    149157.92   -47543.165    3924.9909   -51468.156    0.1630733 
    3700    288.44148   -505.96317    149172.64   -47506.444    3961.0492   -51467.493   0.16179554 
    3800    292.03967   -526.73971    149205.16   -47500.838    4010.4616   -51511.299   0.16411914 
    3900    290.93514   -505.32008    149208.14   -47502.748    3995.2935   -51498.041    0.1615894 
    4000    289.31395   -486.56705    149170.11   -47543.474    3973.0304   -51516.504    0.1553639 
    4100    286.85675   -492.06484    149154.54   -47562.257    3939.2867   -51501.544   0.16557158 
    4200     296.4952   -456.54337    149238.78    -47524.32    4071.6475   -51595.968   0.14341212 
    4300    283.83645   -509.84194    149158.83   -47650.379    3897.8101   -51548.189   0.16547619 
    4400    292.80229   -481.77846     149193.9   -47542.366    4020.9343   -51563.301   0.14316658 
    4500    290.05075   -513.48856    149166.28   -47601.695    3983.1485   -51584.843   0.16309739 
    4600    285.04527   -515.17114    149148.53   -47631.776    3914.4103   -51546.186   0.15452444 
    4700    294.90047   -497.87008     149167.7   -47532.574    4049.7478   -51582.322   0.15158345 
    4800    292.88883   -506.16421    149186.35   -47430.459    4022.1227   -51452.582   0.16470189 
    4900    295.02673   -486.42161    149196.11   -47398.922    4051.4817   -51450.404   0.15670499 
    5000    293.01721   -495.87123    149190.62   -47528.399    4023.8857   -51552.285   0.16378113 
    5100    290.85809   -507.26833    149173.18   -47454.454    3994.2354   -51448.689   0.15668986 
    5200    292.97707   -526.38601    149191.88   -47530.376    4023.3345    -51553.71   0.16096779 
    5300    290.65701   -497.00106    149148.45   -47633.864    3991.4741   -51625.338   0.15124848 
    5400    291.30153   -460.53768    149150.91   -47597.369     4000.325   -51597.694    0.1480769 
    5500    287.73823   -492.93989    149136.06   -47562.525    3951.3917   -51513.917   0.16044499 
    5600    290.64869   -490.77439    149152.76    -47604.32    3991.3598    -51595.68   0.15257709 
    5700    286.79944   -530.23387    149177.31   -47595.471    3938.4996   -51533.971   0.15479685 
    5800    293.55551    -488.0898     149206.3   -47537.566     4031.278   -51568.844   0.15391616 
    5900    287.85819   -507.86439    149195.36   -47615.535     3953.039   -51568.574   0.14863195 
    6000    292.31787   -497.04243    149164.02    -47593.09     4014.282   -51607.372   0.15920705 
    6100    283.55775   -516.96232    149146.98   -47667.296    3893.9829   -51561.279   0.15047387 
    6200     285.5588    -496.6653    149139.45   -47637.585    3921.4625   -51559.047   0.16158957 
    6300    293.65062   -520.24748    149178.92    -47522.06    4032.5842   -51554.644   0.16109377 
    6400    296.15009   -480.72382    149194.27   -47577.821    4066.9083   -51644.729   0.14656271 
    6500    291.12274   -506.56222     149180.4   -47592.752    3997.8698   -51590.622    0.1533769 
    6600    292.67608   -470.23502    149195.01   -47599.735    4019.2012   -51618.936   0.14740076 
    6700     293.2879   -525.45689    149185.86   -47660.163     4027.603   -51687.766    0.1532518 
    6800    289.20892   -496.03163    149181.41   -47608.668     3971.588   -51580.256   0.15288363 
    6900    289.62497   -484.14142    149222.82    -47537.84    3977.3015   -51515.141   0.15238997 
    7000    291.04488   -490.66307    149216.85   -47538.459    3996.8006    -51535.26   0.15893337 
    7100    291.51986   -476.21022    149219.91   -47548.451    4003.3232   -51551.774    0.1415436 
    7200    286.37225   -503.58124     149177.9   -47653.192    3932.6332   -51585.825   0.15752326 
    7300    286.19984   -485.73942    149189.98   -47704.836    3930.2656   -51635.101   0.14268784 
    7400    293.67829   -507.89009    149190.15   -47598.961    4032.9642   -51631.925   0.15208975 
    7500    293.18116    -472.9836    149219.76   -47525.728    4026.1373   -51551.865   0.15314896 
    7600    290.34429   -481.86342    149215.33   -47502.495    3987.1796   -51489.674   0.14936372 
    7700    286.19916   -531.37089    149206.01   -47597.264    3930.2563    -51527.52   0.16328592 
    7800    288.89429   -500.82816    149198.33   -47662.965    3967.2673   -51630.233   0.14524645 
    7900    289.94715   -520.83299    149199.15     -47601.7    3981.7259   -51583.426   0.15503664 
    8000    295.16788   -489.36896    149238.26   -47504.563      4053.42   -51557.983   0.15175235 
    8100    294.02282   -510.52763    149239.63   -47464.995    4037.6953    -51502.69   0.15360644 
    8200    291.36823   -501.93029    149226.51   -47485.678     4001.241   -51486.919   0.15822452 
    8300    293.46299   -523.38926    149232.31   -47444.662    4030.0075   -51474.669   0.16292455 
    8400    292.03334   -530.91783    149234.41   -47415.421    4010.3746   -51425.796     0.160273 
    8500    291.17621   -521.56244    149208.69   -47503.808    3998.6041   -51502.412   0.15560849 
    8600    292.79926   -491.55801    149218.16   -47518.415    4020.8927   -51539.307   0.14693634 
    8700    295.06994    -501.6859    149190.97   -47485.845     4052.075    -51537.92   0.15875316 
    8800    290.60254   -510.74657    149214.75   -47532.114    3990.7261    -51522.84   0.14799351 
    8900     294.3055    -529.3673    149191.41   -47597.609    4041.5773   -51639.187   0.15707966 
    9000     290.5524   -500.50351    149212.42   -47524.231    3990.0376   -51514.269   0.15096882 
    9100    292.72827   -491.81458    149216.75   -47580.393    4019.9179   -51600.311   0.14319918 
    9200    290.18899    -471.6727    149220.91   -47469.067     3985.047   -51454.114   0.16246877 
    9300    282.87913   -489.46896    149234.73   -47620.504    3884.6636   -51505.168   0.14460433 
    9400    288.57297   -516.39027    149222.31   -47584.746    3962.8549   -51547.601   0.15826494 
    9500    284.10812   -504.07662    149211.39   -47630.747    3901.5408   -51532.288   0.14713601 
    9600    287.20364   -504.11266    149208.16   -47624.842    3944.0504   -51568.892   0.14782643 
    9700     293.9459   -434.72455    149214.13   -47489.959    4036.6391   -51526.598   0.14728853 
    9800    296.98905   -472.67854    149272.88   -47452.625    4078.4294   -51531.055   0.14742973 
    9900    294.02842   -494.19959    149239.86   -47480.389    4037.7723   -51518.161   0.15508901 
   10000     291.5126   -492.34521    149249.27    -47538.37    4003.2235   -51541.593   0.14820159 
   10100    290.41656   -495.14431    149235.81   -47489.198    3988.1721    -51477.37   0.15190492 
   10200    290.19702   -541.59686    149250.97   -47458.957    3985.1572   -51444.114    0.1574007 
   10300    292.89441   -505.78236    149269.81    -47459.92    4022.1994   -51482.119    0.1557986 
   10400    294.37494   -494.83223    149264.71   -47465.819    4042.5309    -51508.35   0.15439123 
   10500     295.3852   -496.77073    149238.34   -47512.428    4056.4044   -51568.832   0.14547555 
   10600     293.7379   -474.38375    149242.11   -47538.032    4033.7828   -51571.815   0.14677224 
   10700    295.43299   -455.71627     149219.1    -47557.61    4057.0607   -51614.671   0.14611248 
   10800    285.18735   -497.60013    149197.11   -47688.057    3916.3615   -51604.419   0.14574244 
   10900    284.49674   -514.06521    149162.16   -47670.553    3906.8776    -51577.43   0.16016663 
   11000    284.79217   -516.91604    149192.72   -47684.407    3910.9346   -51595.342   0.14695413 
   11100    285.14859   -536.43685    149206.63   -47592.301    3915.8293   -51508.131   0.15183322 
   11200    285.25493   -510.62144     149200.5   -47701.232    3917.2895   -51618.521   0.14653599 
   11300    288.22045   -469.21023    149208.27   -47613.327    3958.0139   -51571.341   0.14164293 
   11400    288.93079    -516.0535    149210.66   -47589.665    3967.7686   -51557.434   0.15508026 
   11500    288.75954   -460.69661    149216.42   -47489.589    3965.4169   -51455.006   0.14437783 
   11600    292.33961   -492.43103    149249.86   -47486.823    4014.5805   -51501.403    0.1545675 
   11700    295.81554   -513.29621    149251.35   -47356.171    4062.3141   -51418.485   0.15972412 
   11800    293.04679   -490.89584    149248.35     -47428.8    4024.2919   -51453.092   0.15383069 
   11900    288.46581   -547.55044    149240.93   -47478.743    3961.3832   -51440.126    0.1597578 
   12000    294.28008   -491.40814    149261.84     -47443.5    4041.2283   -51484.728   0.14900929 
   12100    289.13644   -511.65728    149238.98   -47502.886    3970.5927   -51473.479   0.15581097 
   12200    292.93973    -502.4621    149243.93   -47504.275    4022.8218   -51527.097   0.14460074 
   12300    295.09303   -450.31381    149208.59   -47557.332    4052.3921   -51609.724   0.15189754 
   12400    296.77587   -517.95511    149215.79   -47550.446    4075.5019   -51625.948   0.14690136 
   12500    292.62937   -518.96475       149244   -47480.632    4018.5597   -51499.192   0.15372534 
   12600    292.13537   -498.25958    149230.73   -47439.559    4011.7758   -51451.335   0.16113148 
   12700    293.96268   -513.45947    149244.43   -47521.391    4036.8695   -51558.261   0.14875567 
   12800    292.38591   -477.26089    149223.13   -47505.639    4015.2163   -51520.855   0.15307205 
   12900    286.75127   -513.68964    149209.72    -47566.14    3937.8381   -51503.978   0.15333998 
   13000    290.95384   -478.75201    149203.52   -47534.658    3995.5503   -51530.208   0.14753081 
   13100    286.93987    -494.1452    149190.56   -47612.876    3940.4281   -51553.304   0.15326879 
   13200    286.97053   -523.25071    149227.56   -47643.217    3940.8492   -51584.066    0.1468604 
   13300    283.00974   -494.99318    149199.44   -47721.077    3886.4572   -51607.534   0.14622348 
   13400    285.75134   -486.22075    149188.93   -47709.325    3924.1065   -51633.432   0.15094643 
   13500    289.75909   -469.34046    149235.92   -47621.759    3979.1433   -51600.902   0.14510015 
   13600    289.13184   -530.96769    149237.71    -47571.02    3970.5296    -51541.55   0.15980106 
   13700    286.66182   -499.92635    149245.06   -47600.085    3936.6098   -51536.695   0.14286174 
   13800    287.69392   -478.63542    149244.53   -47549.504    3950.7832   -51500.287   0.15345147 
   13900    292.88367   -471.09798    149255.83   -47544.877    4022.0519   -51566.929    0.1439623 
   14000    298.77293   -489.06996    149260.61    -47428.46    4102.9268   -51531.387   0.15478464 
   14100    291.81026   -521.36386    149251.95   -47523.471    4007.3112   -51530.782   0.15549588 
   14200    293.49872   -541.46287    149270.54   -47536.353    4030.4982   -51566.851   0.14952485 
   14300    291.22484   -517.51952    149263.43   -47564.616    3999.2719   -51563.888   0.15763341 
   14400    293.28378   -462.09387    149256.74   -47621.638    4027.5465   -51649.184   0.13539929 
   14500    290.14955   -495.75531    149217.84   -47635.191    3984.5053   -51619.697   0.14976094 
   14600    295.22743    -475.2255    149226.19   -47588.508    4054.2378   -51642.745   0.14818614 
   14700    295.83659    -469.9217    149237.23   -47540.767    4062.6032    -51603.37   0.14263178 
   14800    295.23504   -511.86268    149239.92   -47515.962    4054.3424   -51570.304   0.15394058 
   14900     292.7949   -487.36614     149225.6   -47523.899    4020.8329   -51544.732   0.14977294 
   15000    289.82398   -475.76343    149202.51   -47584.897    3980.0344   -51564.932    0.1540354 
   15100      282.665   -488.11893    149206.96   -47603.667    3881.7231    -51485.39   0.15334693 
   15200    293.23244   -504.60171    149214.47   -47529.595    4026.8415   -51556.437   0.15049166 
   15300    287.33064   -499.67787    149205.84   -47616.543    3945.7945   -51562.338   0.15108742 
   15400    290.03151   -493.00372    149211.86    -47612.53    3982.8844   -51595.414   0.14662179 
   15500     288.6982   -488.03447    149197.84   -47544.607    3964.5745   -51509.182   0.15388865 
   15600    289.72283   -512.27545    149243.32   -47421.622    3978.6454   -51400.268    0.1591091 
   15700    295.52009   -516.58989    149234.03    -47440.11    4058.2568   -51498.367   0.15322472 
   15800    293.57773   -520.11351    149223.66   -47438.428    4031.5832   -51470.011   0.15835817 
   15900    293.59839   -524.52576    149231.89   -47459.126    4031.8669   -51490.993   0.15001198 
   16000    294.06343   -523.13587    149216.64   -47509.334    4038.2531   -51547.587   0.15869228 
   16100    292.53645   -492.29175    149191.35   -47541.595    4017.2837   -51558.879   0.15223594 
   16200    295.27695   -445.34618    149214.18   -47553.135    4054.9179   -51608.053   0.14321359 
   16300     289.5683   -520.82295    149221.87   -47568.502    3976.5232   -51545.025   0.16084336 
   16400     287.9323   -514.81489    149222.31   -47581.973    3954.0568    -51536.03   0.14373543 
   16500    296.05483   -491.23162    149235.11   -47501.879    4065.6001   -51567.479   0.15843692 
   16600    298.28818   -499.30813    149257.61    -47428.42    4096.2699    -51524.69   0.14891817 
   16700    298.98097   -515.46576    149243.52   -47473.229    4105.7837   -51579.012   0.15359244 
   16800    290.08865   -537.25643    149218.29   -47526.527    3983.6691   -51510.196   0.15196901 
   16900    292.29484   -474.34546    149230.61   -47553.626    4013.9658   -51567.592   0.14488941 
   17000    290.81826   -479.05227    149217.82   -47598.489    3993.6885   -51592.178   0.15034357 
   17100    291.30559   -522.87298    149253.03   -47551.988    4000.3808   -51552.369   0.14921942 
   17200     288.2052   -497.40111    149226.54   -47608.183    3957.8044   -51565.988     0.151761 
   17300    282.85008     -559.964    149217.39   -47710.316    3884.2648   -51594.581   0.15384288 
   17400    285.78178   -498.80625    149203.97   -47694.432    3924.5245   -51618.956   0.15076071 
   17500    285.15161   -532.31624    149234.97   -47590.666    3915.8707   -51506.537   0.15385773 
   17600    288.33321   -489.34729    149257.27   -47603.453    3959.5623   -51563.016   0.14741142 
   17700    283.45661   -528.30936    149244.38   -47658.703    3892.5939   -51551.297   0.15255337 
   17800    294.46586   -485.95507     149235.4   -47607.901    4043.7795    -51651.68   0.15144709 
   17900     294.5227   -527.84851    149272.35   -47552.344    4044.5601   -51596.904   0.14710104 
   18000    295.15405   -501.51761    149265.51   -47459.479    4053.2302    -51512.71   0.15441476 
   18100    298.50073   -492.29761    149277.38   -47469.949    4099.1887   -51569.137   0.14301392 
   18200    293.91398   -490.11457     149251.1   -47515.169    4036.2008   -51551.369   0.15321261 
   18300    292.50554   -485.12333    149256.79   -47520.644    4016.8592   -51537.503   0.15004186 
   18400    287.68664   -548.35088     149212.8    -47620.35    3950.6832   -51571.034   0.15164437 
   18500    287.25245   -512.31676    149223.51   -47556.376    3944.7206   -51501.097    0.1546784 
   18600    291.33729   -480.15517    149235.25   -47508.271    4000.8161   -51509.087   0.14816298 
   18700    289.61439   -507.43758    149215.15   -47525.251    3977.1563   -51502.408    0.1568801 
   18800    291.67891   -505.24233    149209.09   -47547.004    4005.5075   -51552.511   0.14929046 
   18900    291.15257   -519.06644     149217.7   -47503.338    3998.2795   -51501.617   0.15531082 
   19000    292.87339   -513.15761    149199.09   -47528.532    4021.9107   -51550.443   0.15068033 
   19100    292.22704   -485.44482    149229.38   -47442.123    4013.0347   -51455.158   0.15289667 
   19200    295.40318   -495.43087    149215.11   -47471.039    4056.6513   -51527.691   0.15624039 
   19300    294.80297   -510.16231     149243.3   -47362.766    4048.4089   -51411.175   0.15307756 
   19400    294.09684   -467.97048    149214.98   -47424.545    4038.7119   -51463.257   0.15669491 
   19500    294.12171   -495.74337    149218.99   -47421.972    4039.0534   -51461.025   0.15141475 
   19600    293.33181   -508.98179    149236.67   -47415.841     4028.206   -51444.047   0.15882056 
   19700    296.58249   -479.66538    149262.75   -47469.947    4072.8463   -51542.793   0.15643529 
   19800    297.87842   -486.91919    149221.89   -47423.195    4090.6428   -51513.837   0.15321039 
   19900    293.20292   -544.29723    149235.19   -47508.455     4026.436   -51534.891   0.15730832 
   20000    289.06995   -495.82028    149241.27   -47535.897    3969.6796   -51505.577    0.1493003 
   20100    283.95276   -557.88136    149223.17   -47575.638    3899.4073   -51475.045   0.15304644 
   20200    289.08449   -471.34576    149215.32   -47550.316    3969.8794   -51520.195   0.15020796 
   20300    292.19765   -475.59437    149226.31    -47515.67     4012.631   -51528.301   0.15101439 
   20400    292.44798   -519.73413       149222   -47579.338    4016.0687   -51595.407   0.15129737 
   20500     287.9015   -499.67638    149211.12   -47621.953    3953.6338   -51575.587   0.15002485 
   20600    287.64033   -508.21553    149199.26   -47639.584    3950.0473   -51589.632   0.15100693 
   20700    288.19898   -558.64081    149195.91   -47584.441     3957.719    -51542.16    0.1602179 
   20800    292.16971   -519.56873    149246.55   -47445.365    4012.2474   -51457.612   0.15223449 
   20900    289.89793   -481.99159    149243.67   -47550.101    3981.0499   -51531.151   0.15543493 
   21000    286.50984   -496.20079    149250.73   -47563.728    3934.5226   -51498.251   0.14310669 
   21100    295.08523   -520.10283    149240.73   -47440.715     4052.285       -51493   0.15885158 
   21200    293.16987   -504.71698    149254.06   -47458.599    4025.9822   -51484.581   0.15417277 
   21300    291.60891   -491.94672    149267.04    -47453.44    4004.5462   -51457.986   0.15083041 
   21400    292.32327   -490.32935    149271.58   -47497.963    4014.3562    -51512.32   0.15627629 
   21500    299.08268   -489.83342    149291.39   -47401.511    4107.1803   -51508.692   0.14288138 
   21600    298.24009   -470.57954    149288.52   -47406.917    4095.6094   -51502.526   0.15738441 
   21700    292.96565   -488.59308     149267.7   -47543.601    4023.1777   -51566.779   0.15055657 
   21800    293.04288   -515.19865    149231.53   -47576.515    4024.2382   -51600.754   0.15171546 
   21900    287.17296   -490.92726    149247.06    -47543.21    3943.6291   -51486.839   0.15297459 
   22000    289.54879   -495.08425    149240.24   -47576.107    3976.2553   -51552.363   0.14736625 
   22100    288.79695   -493.41142    149245.67   -47624.875    3965.9307   -51590.806   0.15006191 
   22200    287.85295   -496.90502    149209.26   -47709.809     3952.967   -51662.776   0.14830817 
   22300    294.39228   -513.99134    149232.91   -47598.945     4042.769   -51641.714    0.1485262 
   22400    286.93181   -532.04781    149237.11     -47541.9    3940.3175   -51482.218   0.16053789 
   22500    288.54029   -475.32049    149265.32   -47491.505     3962.406   -51453.911   0.14951096 
   22600    292.84313   -499.68229    149260.92   -47535.504    4021.4952   -51556.999   0.15294247 
   22700    292.46293   -508.25455    149233.04   -47594.708    4016.2741   -51610.982   0.14655671 
   22800     289.1928   -495.72644    149247.52   -47515.939    3971.3667   -51487.306   0.15384104 
   22900    288.11414   -515.11634    149241.21    -47553.55    3956.5539   -51510.104   0.15778405 
   23000    289.32658   -486.17357    149226.76   -47626.398    3973.2039   -51599.602   0.14572942 
   23100    286.77726   -527.56032    149208.79       -47564     3938.195   -51502.195   0.16586386 
   23200    287.57776   -511.32054     149223.1   -47509.687    3949.1881   -51458.875   0.15226949 
   23300    290.59729   -501.96921    149223.09   -47499.709     3990.654   -51490.363    0.1567734 
   23400    291.60035   -500.56741    149226.64    -47548.27    4004.4286   -51552.699   0.15084361 
   23500     297.5324   -466.99184    149232.83   -47430.448     4085.891   -51516.339   0.15072325 
   23600    293.92502   -507.35862    149250.01   -47454.417    4036.3523   -51490.769   0.16273068 
   23700    289.23329    -462.1525    149228.57   -47437.705    3971.9227   -51409.628   0.15378523 
   23800    289.53847   -501.21091    149240.07   -47447.959    3976.1137   -51424.073   0.16264091 
   23900    288.62997   -492.43243    149239.78   -47541.755    3963.6375   -51505.392   0.15694296 
   24000    291.05995    -476.2358    149225.62   -47485.056    3997.0075   -51482.064   0.15802877 
   24100    292.67278   -487.31868    149241.65    -47414.07    4019.1558   -51433.226   0.15725756 
   24200    293.72416   -505.68917    149254.73   -47544.188    4033.5941   -51577.782   0.15182418 
   24300    290.71506    -507.9796    149229.15   -47584.572    3992.2712   -51576.843   0.15916772 
   24400     292.0354   -481.74687    149205.69   -47604.462     4010.403   -51614.865   0.14857862 
   24500    289.91229    -504.7568    149205.78   -47564.451    3981.2472   -51545.698   0.15846499 
   24600    289.43368   -525.93688    149187.65   -47608.188    3974.6746   -51582.863   0.15593629 
   24700    287.64502   -498.18468    149176.21   -47615.171    3950.1116   -51565.283   0.15225404 
   24800    294.78224   -468.61749     149191.5   -47555.901    4048.1241   -51604.025   0.15414084 
   24900    287.63045   -492.18402    149178.88   -47621.246    3949.9116   -51571.158   0.15142251 
   25000    290.09465   -472.01649    149165.11   -47601.878    3983.7515    -51585.63   0.15567515 
   25100    286.81879   -498.09863    149161.06   -47661.203    3938.7654   -51599.968   0.15444082 
   25200    279.92248    -514.3048    149140.95    -47794.28    3844.0612   -51638.341   0.14853407 
   25300    286.66214   -490.22906    149145.11   -47623.559    3936.6142   -51560.173    0.1597387 
   25400    286.71826   -508.95776    149162.87   -47669.869    3937.3849   -51607.254   0.15294871 
   25500     292.7964    -527.6641    149193.84   -47551.647    4020.8534   -51572.501   0.15639666 
   25600    293.22728   -474.98925    149207.95   -47471.734    4026.7706   -51498.505   0.15589226 
   25700    292.31988   -518.62088     149191.4    -47568.04    4014.3096    -51582.35   0.15111637 
   25800    295.09507   -522.97392    149196.56   -47421.202    4052.4202   -51473.622     0.165965 
   25900    295.19245   -514.38221     149231.1   -47450.465    4053.7575   -51504.223   0.14640368 
   26000    296.03442   -503.23705    149183.94   -47494.876    4065.3199   -51560.196   0.16350562 
   26100    293.53705   -513.74121       149197   -47477.264    4031.0245   -51508.288   0.15079523 
   26200    294.43639   -531.93849    149187.41    -47585.21    4043.3748   -51628.585   0.15219104 
   26300    292.45579   -463.27919     149175.1   -47542.278     4016.176   -51558.454     0.154359 
   26400    289.61128   -484.69809    149171.96   -47604.629    3977.1135   -51581.743   0.14927906 
   26500    291.84593   -482.70214    149212.36    -47515.09    4007.8011   -51522.891   0.16216916 
   26600    293.40073     -492.209    149242.96   -47465.026    4029.1525   -51494.178   0.14611213 
   26700    297.23169   -468.78866    149234.02   -47464.813    4081.7615   -51546.574   0.15794996 
   26800    289.96024   -500.46141    149228.65   -47512.844    3981.9056    -51494.75   0.15430379 
   26900    295.39161   -488.91426    149239.09   -47452.213    4056.4924   -51508.706   0.15523481 
   27000    287.92223   -473.01396    149250.09   -47483.045    3953.9185   -51436.964   0.15476107 
   27100    286.68519   -520.73664    149256.99   -47434.794    3936.9307   -51371.725    0.1583113 
   27200     292.6633   -522.96705    149244.88   -47502.747    4019.0257   -51521.772   0.15486451 
   27300    296.47179   -497.51146    149256.19   -47327.439    4071.3261   -51398.765    0.1576404 
   27400     290.8922   -516.18691    149275.53   -47453.258    3994.7039   -51447.962   0.15487906 
   27500    288.27379   -495.50576    149236.01   -47561.556    3958.7463   -51520.302   0.15245837 
   27600    287.91643   -500.99578    149189.01   -47615.199    3953.8389   -51569.038   0.14805892 
   27700    293.24696   -474.22462    149203.77   -47507.555    4027.0408   -51534.595   0.15619627 
   27800    293.83803   -515.05172     149208.9   -47487.017    4035.1578   -51522.175   0.15974919 
   27900    292.15255   -538.47838    149201.09   -47552.115    4012.0117   -51564.127   0.15184759 
   28000    288.68603   -477.34846    149181.28   -47620.133    3964.4074   -51584.541   0.15366054 
   28100    289.53891   -506.95666    149203.84   -47594.223    3976.1197   -51570.343   0.14738707 
   28200     294.2896   -480.68062    149222.99   -47564.902     4041.359   -51606.261   0.15179533 
   28300    291.26981   -512.78046    149216.24   -47587.312    3999.8895   -51587.202    0.1545041 
   28400    290.77684   -499.07523     149246.5   -47521.314    3993.1196   -51514.433   0.14741301 
   28500    288.38216    -489.3627    149241.47   -47551.148    3960.2345   -51511.382   0.15881924 
   28600     295.7102   -516.93323    149236.93   -47559.052    4060.8675    -51619.92   0.14710658 
   28700    288.42209    -510.6977    149224.07   -47555.276    3960.7828   -51516.059   0.15696278 
   28800    289.92734   -475.87852    149235.21   -47600.997    3981.4539   -51582.451   0.14850043 
   28900    289.46968   -495.25021    149235.95    -47569.43    3975.1689   -51544.599   0.15194696 
   29000     286.9724   -527.26853    149259.13   -47511.458    3940.8748   -51452.333   0.15666345 
   29100    297.04291   -475.20362    149250.78   -47511.368    4079.1691   -51590.537   0.14820054 
   29200    294.12248   -504.28948    149277.15    -47444.58     4039.064   -51483.644   0.15768142 
   29300    293.54049   -469.94002    149265.43   -47448.259    4031.0718   -51479.331   0.15032496 
   29400    294.41059   -493.87365    149266.71   -47461.192    4043.0205   -51504.212   0.15660801 
   29500    292.35685   -518.89031    149246.81   -47505.329    4014.8173   -51520.146   0.15165839 
   29600    294.79438   -482.48119    149244.19   -47475.241    4048.2909   -51523.532   0.15232901 
   29700    290.60736   -473.52927    149235.82   -47546.518    3990.7922   -51537.311   0.15302999 
   29800    291.00221   -508.77809    149219.63   -47644.682    3996.2146   -51640.897   0.15030766 
   29900    287.08373   -502.89364    149240.24   -47624.964    3942.4037   -51567.367   0.14753037 
   30000    290.16683   -493.22558    149228.92   -47584.904    3984.7427   -51569.646   0.15487867 
   30100    287.14236   -504.01342    149254.31   -47558.801    3943.2088    -51502.01   0.14558801 
   30200    290.11259   -487.33361    149276.39   -47573.602    3983.9978     -51557.6   0.15293709 
   30300    288.10065   -458.69891    149266.28   -47560.709    3956.3686   -51517.078   0.14770895 
   30400    291.90236   -515.07913    149263.58   -47599.055    4008.5759   -51607.631   0.14815334 
   30500    287.63375   -510.23227     149192.5   -47695.684    3949.9569   -51645.641   0.15121578 
   30600    292.31965   -485.96746    149202.33   -47572.159    4014.3064   -51586.465   0.14703679 
   30700    288.16559   -517.33702    149178.89   -47592.217    3957.2605   -51549.477   0.15861166 
   30800     291.8215   -444.30884    149217.77   -47531.219    4007.4655   -51538.685   0.14725849 
   30900    291.11352   -539.43529     149233.7   -47508.355    3997.7432   -51506.098   0.16040079 
   31000    286.91319   -506.98752    149206.58   -47545.122    3940.0618   -51485.184   0.15219383 
   31100    291.98084   -504.15244    149211.12   -47559.744    4009.6537   -51569.398   0.15254463 
   31200    293.06147   -475.84293    149206.53   -47499.007    4024.4936   -51523.501   0.15598978 
   31300     290.4052   -522.86605     149248.5   -47433.354    3988.0161    -51421.37   0.15427473 
   31400    288.32691   -514.12843    149234.48   -47551.701    3959.4758   -51511.177   0.15968606 
   31500    289.26224   -495.59493    149247.19   -47500.443    3972.3203   -51472.763    0.1533643 
   31600     293.5421   -515.60066    149246.33     -47527.5    4031.0939   -51558.594   0.14957922 
   31700    292.49732   -458.23567    149249.19    -47494.79    4016.7464   -51511.536   0.15361188 
   31800    290.98163   -533.82909    149240.22   -47562.953     3995.932   -51558.885   0.15004807 
   31900    292.22976   -492.00806    149226.39   -47556.553     4013.072   -51569.626   0.15617378 
   32000     289.1521   -517.18983    149216.49   -47501.331    3970.8078   -51472.138   0.15311931 
   32100    291.58813   -503.68473    149239.33   -47541.087    4004.2607   -51545.347   0.15222058 
   32200    284.33251    -521.0431    149212.55   -47663.625    3904.6223   -51568.248   0.15200002 
   32300    285.04879   -495.99105    149217.84   -47603.378    3914.4587   -51517.837    0.1488004 
   32400    282.88579   -509.93766    149210.62   -47699.689    3884.7551   -51584.445   0.15050779 
   32500    293.98414   -491.14095    149234.01   -47558.782    4037.1642   -51595.946   0.15045753 
   32600    294.24151   -460.90166    149250.69   -47514.805    4040.6986   -51555.503   0.15128185 
   32700    292.79345   -486.36604    149242.79   -47604.404     4020.813   -51625.217   0.14815211 
   32800    293.93662   -516.09242    149263.47   -47471.445    4036.5117   -51507.957   0.15387885 
   32900    288.60375   -536.18914    149241.82   -47542.986    3963.2775   -51506.263   0.15720501 
   33000    296.28196   -498.59817    149252.44   -47535.979    4068.7192   -51604.698    0.1432953 
   33100    289.96056   -494.47065    149227.24   -47563.096      3981.91   -51545.006   0.15446823 
   33200    296.64787   -479.30452    149233.42   -47539.092    4073.7441   -51612.836   0.14800647 
   33300    293.96453   -498.18975    149225.83   -47539.858     4036.895   -51576.753   0.15065055 
   33400    288.45916   -494.36393    149199.36   -47557.442    3961.2919   -51518.734   0.15800618 
   33500    290.85024   -480.39097    149223.78   -47580.544    3994.1276   -51574.672   0.14484025 
   33600    284.60808     -504.463     149201.3   -47593.074    3908.4066    -51501.48   0.15905066 
   33700    287.25584   -521.93835    149234.65   -47491.734    3944.7672   -51436.501   0.15186262 
   33800     296.3722   -507.85577     149265.2   -47389.917    4069.9585   -51459.876   0.15621791 
   33900    296.42609   -497.88299    149239.82   -47408.602    4070.6985     -51479.3   0.15570827 
   34000    293.34245     -507.095    149233.55   -47559.448    4028.3522     -51587.8   0.15104798 
   34100    292.47393   -518.04674    149222.27   -47575.353    4016.4252   -51591.778   0.15145268 
   34200    291.53175   -529.20038    149230.46    -47580.96    4003.4865   -51584.446   0.14963254 
   34300    290.15589    -513.4894    149225.17   -47612.876    3984.5925   -51597.469   0.14903308 
   34400    288.17922   -489.66252    149221.55    -47537.35    3957.4476   -51494.798    0.1522917 
   34500    289.21218   -505.08171    149242.25   -47461.894    3971.6328   -51433.527   0.15474655 
   34600    291.32069   -540.41468    149253.27    -47459.14    4000.5881   -51459.729   0.15915669 
   34700     295.4122   -479.02333    149224.33   -47573.656    4056.7752   -51630.431    0.1445615 
   34800    291.58418   -486.37493    149217.13   -47566.986    4004.2066   -51571.193   0.15241099 
   34900    287.90247    -469.8354    149219.46    -47544.71    3953.6471   -51498.357   0.15163622 
   35000    295.57983   -485.17225    149232.91   -47526.957    4059.0772   -51586.034   0.14483287 
   35100     288.6519   -598.73795    149231.95   -47543.024    3963.9388   -51506.962    0.1666014 
   35200    292.23001   -541.22209    149271.43   -47483.963    4013.0755   -51497.039    0.1454592 
   35300    286.42503   -497.52804    149264.98   -47564.245     3933.358   -51497.603    0.1559502 
   35400    294.14848   -469.93447    149265.61   -47563.956     4039.421   -51603.377   0.14337475 
   35500    289.61444   -502.74052     149264.1   -47551.645     3977.157   -51528.802    0.1483703 
   35600    294.22326   -506.35265    149260.11   -47525.679    4040.4479   -51566.127   0.15333181 
   35700    290.23099   -516.72094    149280.11   -47540.105    3985.6237   -51525.729   0.14762008 
   35800    296.18289   -491.35924    149308.65   -47373.496    4067.3588   -51440.854    0.1550499 
   35900    291.73573   -497.80496    149324.14   -47496.592    4006.2877   -51502.879   0.14948854 
   36000    290.07426   -493.60344    149279.16   -47548.559    3983.4715    -51532.03   0.14783779 
   36100    294.26733     -505.489    149264.82   -47591.253    4041.0531   -51632.306   0.14877367 
   36200    289.00423   -525.24261    149251.19   -47623.997    3968.7771   -51592.774   0.14715721 
   36300     288.3764   -522.41234    149252.23   -47555.067    3960.1554   -51515.222   0.15307009 
   36400    286.54129    -503.1676    149256.92   -47609.917    3934.9546   -51544.872   0.15128971 
   36500    286.28029   -517.84363    149259.58   -47586.042    3931.3704   -51517.413   0.14946615 
   36600    287.63949   -493.01499    149254.81    -47582.62    3950.0357   -51532.656   0.15503427 
   36700    285.34406   -511.29446    149245.18   -47620.607    3918.5135   -51539.121   0.14722074 
   36800    285.32485   -505.21676    149251.93   -47693.662    3918.2497   -51611.911   0.15244519 
   36900    286.33713   -525.67179    149278.57   -47615.617     3932.151   -51547.768   0.15013306 
   37000    292.09543   -484.69701    149275.59    -47599.87    4011.2274   -51611.098   0.14531446 
   37100    284.61836    -521.7785    149258.98   -47643.982    3908.5477    -51552.53   0.15391204 
   37200    283.36978   -500.04515     149249.6   -47642.303    3891.4016   -51533.704   0.14420855 
   37300    283.05045   -504.31956    149243.21   -47639.669    3887.0164   -51526.686   0.15815307 
   37400     291.4013   -473.80244    149271.92   -47656.319    4001.6952   -51658.014   0.13966328 
   37500    285.36176   -521.22084       149268   -47626.146    3918.7566   -51544.903   0.15511946 
   37600     282.5248   -562.04834     149226.2   -47672.498    3879.7977   -51552.296   0.15435696 
   37700     283.9763   -509.87817    149217.26    -47757.77    3899.7306     -51657.5   0.14275391 
   37800    287.92532   -484.16891    149187.83   -47770.681    3953.9609   -51724.642    0.1526226 
   37900    286.31808   -465.51499    149237.05   -47677.673    3931.8894   -51609.562   0.13667728 
   38000     291.5533   -501.19128    149248.55   -47613.327    4003.7824    -51617.11   0.15527666 
   38100    295.90301   -511.29663    149253.18   -47550.298    4063.5153   -51613.814   0.14324614 
   38200    292.48981   -514.07243    149253.04   -47517.528    4016.6432   -51534.171   0.15624341 
   38300    296.52597   -489.02232    149241.33   -47571.595    4072.0701   -51643.665   0.14829596 
   38400    293.03605   -488.81373    149244.78   -47506.811    4024.1444   -51530.956   0.15210473 
   38500    294.46272   -481.64971    149242.95   -47558.971    4043.7363   -51602.707   0.15186234 
   38600    291.07873   -506.42283    149257.48   -47519.346    3997.2654   -51516.611   0.15093287 
   38700    294.14892   -501.71158    149262.26   -47487.371     4039.427   -51526.798   0.15129701 
   38800    292.01021   -504.25847    149238.74   -47525.104     4010.057   -51535.162   0.15637265 
   38900    291.52286   -505.71086    149264.17   -47466.393    4003.3645   -51469.757   0.15563199 
   39000    291.71262   -514.62788    149259.66   -47524.339    4005.9704    -51530.31   0.15433547 
   39100     289.0666   -498.28544    149243.71   -47545.019    3969.6336   -51514.652   0.15409745 
   39200    285.58669   -530.97001    149224.05   -47674.554    3921.8454     -51596.4   0.14806158 
   39300    285.22917   -501.53752    149196.65   -47679.768    3916.9358   -51596.704   0.15356679 
   39400    290.81249   -512.88082    149254.17   -47552.532    3993.6092   -51546.141   0.14656914 
   39500    294.82538   -502.98752     149283.5   -47540.005    4048.7166   -51588.722   0.15409787 
   39600    295.76021   -499.49237    149288.55    -47538.48    4061.5542   -51600.034   0.14210399 
   39700    293.55959   -468.65704    149278.64   -47519.423     4031.334   -51550.757   0.15354996 
   39800    289.08526   -491.25821    149246.41   -47536.257    3969.8899   -51506.147   0.15164699 
   39900    292.98578   -484.71508    149255.75   -47507.619    4023.4542   -51531.073   0.15090316 
   40000    288.93332   -513.27194    149238.74   -47577.451    3967.8033   -51545.255   0.15456996 
   40100    293.09444   -536.06728    149242.04   -47592.519    4024.9463   -51617.466    0.1462165 
   40200    284.01797   -528.97523    149223.47   -47563.753    3900.3029   -51464.056   0.16385887 
   40300    286.25472   -492.30118    149234.91   -47572.154    3931.0193   -51503.174   0.15115441 
   40400    288.02531   -510.40536     149227.2   -47662.276     3955.334    -51617.61   0.15094155 
   40500    291.30963   -479.13895    149223.13   -47515.071    4000.4363   -51515.507   0.15497162 
   40600    292.18532   -517.55067     149242.2   -47594.604    4012.4617   -51607.066   0.14691516 
   40700     293.8172   -470.61622    149199.58   -47590.444    4034.8716   -51625.315   0.15208122 
   40800    293.08285   -519.72799    149229.73   -47569.719    4024.7872   -51594.506   0.14848912 
   40900     291.4441   -470.34365    149239.42   -47555.662    4002.2829   -51557.945   0.15529626 
   41000    290.18454   -514.10365    149250.44   -47623.714    3984.9859     -51608.7   0.14716559 
   41100    288.64233   -492.83025    149248.17   -47590.534    3963.8073   -51554.341   0.15493824 
   41200    295.72919   -484.34291    149274.99   -47475.943    4061.1283   -51537.071   0.15274668 
   41300    290.51927   -522.10464    149262.68   -47566.145    3989.5826   -51555.727   0.15112948 
   41400    295.29772   -482.34361    149260.76   -47510.522     4055.203   -51565.725   0.15023808 
   41500    292.93651   -526.25209    149276.27   -47520.346    4022.7776   -51543.124   0.15555247 
   41600    290.48821    -531.5495    149287.83   -47535.623     3989.156   -51524.779   0.15159688 
   41700    285.34183   -509.45876    149254.44   -47640.964     3918.483   -51559.447   0.15203521 
   41800    293.17479   -488.58831    149248.25   -47551.628    4026.0498   -51577.678   0.14861622 
   41900     291.0141     -479.223    149219.49    -47632.22    3996.3778   -51628.597   0.15057062 
   42000    292.38924   -506.53021    149234.53    -47603.44    4015.2622   -51618.703   0.15233503 
   42100    284.36053    -535.5399    149218.89   -47680.311    3905.0071   -51585.318   0.14572117 
   42200    288.81113   -510.30312    149203.79   -47635.925    3966.1254    -51602.05   0.15889329 
   42300    294.17937   -513.81747    149250.56   -47603.345    4039.8453   -51643.191   0.14371541 
   42400    286.52181    -548.9021    149243.97   -47628.485    3934.6871   -51563.172   0.15724272 
   42500    291.33463   -502.80588     149239.1    -47588.56    4000.7796    -51589.34   0.14770489 
   42600    288.88844   -506.96382    149239.71   -47628.971    3967.1871   -51596.158   0.15145745 
   42700    288.44441   -492.28451    149212.39   -47689.265    3961.0893   -51650.354   0.15021726 
   42800     292.5266   -466.12612    149225.81   -47606.618    4017.1485   -51623.767   0.14439742 
   42900    289.09877    -511.0622    149185.53   -47618.549    3970.0755   -51588.625    0.1542772 
   43000    288.26744   -503.05169     149211.6   -47646.406    3958.6591   -51605.065   0.14865044 
   43100    288.08288   -540.99959    149205.85   -47567.357    3956.1247   -51523.481   0.15974285 
   43200    289.06156   -545.77256     149213.9   -47577.998    3969.5645   -51547.562   0.15595631 
   43300    289.74649    -475.5407    149228.55   -47571.007    3978.9703   -51549.978   0.14898384 
   43400    298.59858    -486.9797    149245.68   -47505.342    4100.5325   -51605.875   0.15204647 
   43500    288.40702   -516.25165    149235.83   -47555.425    3960.5759   -51516.001   0.15424952 
   43600    289.21781     -508.465    149223.11   -47603.965    3971.7101   -51575.675   0.14976313 
   43700    290.94465   -516.12836    149209.59   -47650.384    3995.4241   -51645.808   0.15445074 
   43800    284.95289   -507.48331    149205.94   -47683.985    3913.1417   -51597.126    0.1453698 
   43900    291.81394   -493.64494    149203.29   -47596.785    4007.3618   -51604.147     0.157267 
   44000    284.32041   -503.80407    149183.43   -47679.171    3904.4562   -51583.627    0.1482305 
   44100     289.3415   -487.13673    149192.96   -47638.886    3973.4088   -51612.295   0.15022736 
   44200    289.82739   -498.67899    149184.52   -47592.422    3980.0813   -51572.503    0.1567789 
   44300    288.19335    -522.4761    149192.07   -47600.173    3957.6417   -51557.815   0.14780595 
   44400    289.18444   -486.35532    149185.68   -47607.375    3971.2519   -51578.627   0.15550656 
   44500    288.64777    -510.5859    149198.41    -47610.51     3963.882   -51574.392   0.14839429 
   44600    283.88785   -485.08576    149175.95   -47617.493     3898.516   -51516.009   0.15790297 
   44700    288.51666   -514.17848    149173.19   -47606.884    3962.0816   -51568.966   0.15269998 
   44800    284.72314   -504.65559    149189.09   -47562.016    3909.9867   -51472.003   0.15471324 
   44900    287.84631   -502.21279    149215.23   -47548.361    3952.8759   -51501.237   0.15807109 
   45000    291.62512   -477.14594    149202.91   -47593.118    4004.7688   -51597.887   0.14722367 
   45100    297.92044   -523.16384    149202.37   -47476.742    4091.2198   -51567.961   0.15963556 
   45200    294.64065   -487.94044    149204.25    -47510.67    4046.1798    -51556.85   0.15113741 
   45300    296.29861   -515.84387    149188.65   -47534.695    4068.9478   -51603.643   0.15236591 
   45400    292.51815   -467.02597    149196.46   -47600.124    4017.0323   -51617.156    0.1522435 
   45500    290.33988   -504.52902    149225.01   -47539.505    3987.1191   -51526.625   0.15096881 
   45600    294.05251   -517.55234    149250.01   -47538.463    4038.1031   -51576.566   0.15667423 
   45700    298.77247   -499.38693    149231.25   -47486.894    4102.9204   -51589.814   0.15026557 
   45800    289.01289   -518.57939    149259.07   -47566.337    3968.8961   -51535.233   0.15153569 
   45900    298.13441    -490.0781    149262.66   -47430.044    4094.1582   -51524.202   0.15686588 
   46000    291.34097   -495.31355    149262.74   -47494.487    4000.8666   -51495.353   0.15185141 
   46100    296.24698   -504.58343    149279.56   -47403.387    4068.2388   -51471.625   0.15602427 
   46200    291.22975   -475.50412    149295.75   -47453.691    3999.3394    -51453.03    0.1533926 
   46300    293.97089   -515.60836    149313.24   -47446.402    4036.9822   -51483.384   0.15482816 
   46400    292.57556   -472.91249    149264.52   -47488.626    4017.8207   -51506.447   0.15339883 
   46500    291.30507   -510.49861    149284.72   -47459.117    4000.3737   -51459.491   0.15627046 
   46600    294.12485    -507.1093     149247.3   -47523.535    4039.0965   -51562.631   0.15817561 
   46700    298.30406   -480.82266    149253.67   -47450.347    4096.4878   -51546.835   0.14555449 
   46800    295.82023   -489.38261    149247.74   -47464.144    4062.3785   -51526.522   0.15954368 
   46900    292.24715   -494.31659    149252.06   -47517.378    4013.3109   -51530.689   0.15057993 
   47000    293.09975   -482.93508    149279.42   -47563.012    4025.0192   -51588.031   0.14951453 
   47100    288.60523   -485.13573       149246   -47561.139    3963.2979   -51524.437   0.15467184 
   47200    289.83149   -473.56905    149226.29   -47532.978    3980.1376   -51513.115   0.15069014 
   47300    286.73156   -523.88758    149206.69   -47653.436    3937.5675   -51591.003   0.15483194 
   47400    289.30204   -498.31941    149220.56   -47590.404    3972.8668   -51563.271   0.15373947 
   47500    286.73068   -500.48711    149207.18   -47590.661    3937.5554   -51528.216   0.15336826 
   47600    288.50002   -543.91476    149210.85   -47588.618     3961.853   -51550.471   0.15558998 
   47700    294.43972   -523.24263    149246.77   -47514.231    4043.4205   -51557.651   0.15371139 
   47800    291.06837   -507.78449    149226.95   -47573.271    3997.1232   -51570.394   0.15054764 
   47900    285.84461   -535.69127    149205.81   -47623.377    3925.3874   -51548.765   0.15936354 
   48000    290.83316    -532.7287    149218.76   -47579.877    3993.8931    -51573.77   0.15165575 
   48100    288.98986   -486.82417    149202.34   -47623.813    3968.5798   -51592.393   0.15399258 
   48200    285.43879    -528.6669    149222.09   -47612.227    3919.8144   -51532.041   0.14956867 
   48300    286.32468   -523.12369    149216.23   -47560.147      3931.98   -51492.127   0.15758682 
   48400    285.74511   -508.23985    149250.44   -47607.257    3924.0209   -51531.278   0.14912227 
   48500    287.00785    -476.8915    149205.62   -47690.543    3941.3617   -51631.904   0.15003888 
   48600     287.7374   -486.74128    149200.24   -47681.068    3951.3803   -51632.448   0.14796425 
   48700    293.13633   -480.17539    149212.22   -47569.526    4025.5216   -51595.048   0.14535695 
   48800    290.99795   -512.07562    149196.33   -47558.651     3996.156   -51554.807   0.15997762 
   48900    289.24937   -496.45027    149223.45   -47586.327    3972.1436   -51558.471   0.14629002 
   49000    290.92122   -550.42023    149219.29   -47623.605    3995.1024   -51618.707   0.15799715 
   49100    292.39688   -505.66586     149248.6   -47533.848     4015.367   -51549.215   0.15033455 
   49200    289.35192   -498.84113     149239.5   -47567.211    3973.5518   -51540.763   0.14903912 
   49300    287.90585   -542.65729    149198.59   -47634.276    3953.6936   -51587.969   0.15746041 
   49400    287.47075   -462.08746    149190.47   -47647.518    3947.7185   -51595.237   0.14513648 
   49500    286.38022   -495.00732    149237.52   -47595.103    3932.7427   -51527.846   0.15500901 
   49600    293.09693   -498.21604    149228.67    -47588.27    4024.9805   -51613.251   0.14854489 
   49700    288.84563   -501.88902    149228.45   -47594.331    3966.5992    -51560.93   0.15212328 
   49800    289.62726   -510.27397    149237.46   -47604.451     3977.333   -51581.784   0.14993945 
   49900    291.15562   -478.08659    149237.31    -47589.16    3998.3213   -51587.481    0.1525289 
   50000    290.27218   -484.11921    149237.94   -47594.943    3986.1894   -51581.132   0.15158387 
   50100    296.15679   -502.15236    149257.19   -47452.926    4067.0003   -51519.926   0.15504669 
   50200    292.68959   -510.88894    149238.28    -47523.36    4019.3867   -51542.747   0.15705907 
   50300    291.18373   -510.46464    149235.03   -47542.704    3998.7074   -51541.412   0.15066496 
   50400    291.10059   -488.36311    149225.02   -47564.215    3997.5656    -51561.78   0.15158988 
   50500    294.17171   -479.75347    149233.69    -47469.62      4039.74    -51509.36    0.1544843 
   50600    297.25097   -471.87742    149261.84   -47391.843    4082.0263    -51473.87   0.15640001 
   50700    287.52455   -514.73865    149228.95     -47637.7    3948.4574   -51586.157   0.14923392 
   50800    291.75085   -482.00389    149203.23   -47612.393    4006.4954   -51618.888   0.15282309 
   50900    291.55785   -496.60842    149207.58   -47640.955    4003.8449   -51644.799   0.14256945 
   51000    290.06053   -499.46496    149217.44    -47593.79    3983.2829   -51577.073   0.16037103 
   51100    290.90444   -525.23115    149230.54   -47611.121     3994.872   -51605.993   0.14566842 
   51200    285.25595   -512.94837    149204.93   -47663.848    3917.3035   -51581.152   0.15582972 
   51300    284.92821   -488.16393    149185.77   -47670.544    3912.8028   -51583.347   0.15000285 
   51400    289.23752   -492.37708    149223.59   -47618.365    3971.9808   -51590.346   0.14334837 
   51500    285.94993    -492.4849    149212.35   -47670.124    3926.8336   -51596.958   0.15588622 
   51600    286.45224   -511.76178    149228.04   -47591.229    3933.7317   -51524.961   0.14638973 
   51700    290.75752   -486.53957    149257.76   -47487.248    3992.8544   -51480.103   0.16001145 
   51800    291.57005   -518.31837    149249.87   -47537.316    4004.0125   -51541.329   0.14559142 
   51900    284.04574   -499.64885    149214.23   -47598.543    3900.6843   -51499.227   0.15501367 
   52000     290.0052   -469.59034     149213.2   -47580.658    3982.5231   -51563.181   0.15014339 
   52100    292.69304   -504.94912     149180.3   -47656.473    4019.4341   -51675.907   0.15145325 
   52200    286.02145   -483.45126    149195.98   -47716.715    3927.8158   -51644.531   0.14869087 
   52300    286.89345   -501.04715    149182.98   -47686.202    3939.7907   -51625.992    0.1487266 
   52400    283.36399   -529.30222    149162.43   -47776.932     3891.322   -51668.254   0.15018776 
   52500    291.23239   -475.47842    149194.86   -47624.212    3999.3755   -51623.588   0.15079958 
   52600     288.9015   -502.76602    149210.05    -47591.29    3967.3664   -51558.657   0.15354856 
   52700    290.96885   -467.92639    149206.71   -47524.255    3995.7565   -51520.011   0.15359689 
   52800    292.12405   -507.44365    149233.73   -47498.405    4011.6204   -51510.025   0.15444811 
   52900    293.64834   -511.88443     149245.3   -47524.568    4032.5528   -51557.121   0.14902223 
   53000    290.60122   -507.79794    149253.89   -47472.459     3990.708   -51463.167   0.15632205 
   53100    288.45287    -523.2307    149236.37   -47616.379    3961.2056   -51577.584    0.1496119 
   53200    287.87608   -479.57361    149201.04   -47656.824    3953.2847   -51610.109    0.1516736 
   53300     288.7435   -509.57963    149216.78   -47621.981    3965.1967   -51587.177    0.1498558 
   53400    291.95335   -462.84714    149223.97   -47548.952    4009.2762   -51558.228   0.15170111 
   53500    292.15813   -495.13692    149241.64   -47542.389    4012.0883   -51554.478   0.15615796 
   53600    290.18606    -509.6859    149226.81   -47613.641    3985.0067   -51598.647   0.14585491 
   53700    291.55684   -517.94143    149219.05   -47593.151    4003.8311   -51596.982   0.16161978 
   53800    287.01565    -509.5619    149212.78   -47616.016    3941.4688   -51557.484   0.14434504 
   53900    286.25958   -507.23589    149221.63   -47622.262     3931.086   -51553.348   0.15543629 
   54000    287.64341   -505.42734    149202.85   -47631.894    3950.0896   -51581.984   0.15188712 
   54100    288.54055   -492.20121    149217.39   -47606.853    3962.4096   -51569.262   0.14839953 
   54200    291.40872   -487.08011    149228.11   -47551.599    4001.7971   -51553.396   0.15578052 
   54300    298.16535     -467.516    149255.94   -47480.995    4094.5831   -51575.579   0.14482089 
   54400    293.47785   -520.74701    149258.76   -47397.693    4030.2116   -51427.905   0.16032453 
   54500    289.19235   -541.91976    149274.69   -47476.231    3971.3606   -51447.591   0.15377118 
   54600    293.21831   -450.36323    149259.01   -47485.651    4026.6473   -51512.298   0.15354406 
   54700    289.37996   -531.68199    149252.57   -47548.475    3973.9368   -51522.412   0.14808181 
   54800    294.65442   -530.20332    149251.27   -47478.351    4046.3689    -51524.72   0.15958075 
   54900    292.01201   -524.33177    149242.63   -47490.746    4010.0818   -51500.828   0.15242916 
   55000     286.9995   -513.83206    149250.58    -47526.18    3941.2471   -51467.427   0.15463125 
   55100     285.2527   -501.00133    149217.22   -47541.196    3917.2589   -51458.455    0.1552752 
   55200    290.09709   -482.52191    149189.49    -47653.62    3983.7849   -51637.404   0.14679742 
   55300    282.46436   -503.11914    149196.02   -47693.994    3878.9678   -51572.962   0.14913249 
   55400    285.03061   -486.84698    149190.95   -47657.501    3914.2091    -51571.71   0.15326935 
   55500    287.76289   -508.74076    149175.11   -47617.719    3951.7303    -51569.45   0.15170386 
   55600    288.29715   -498.11661    149215.69   -47517.765    3959.0671   -51476.832   0.15318758 
   55700    298.76088   -487.24308    149246.27   -47476.903    4102.7613   -51579.665   0.15136992 
   55800    294.73355   -482.84154     149261.4   -47465.821    4047.4556   -51513.276   0.14264036 
   55900    290.41705   -510.55579    149239.86   -47481.959    3988.1788   -51470.138   0.16237506 
   56000    287.35698   -504.06122    149249.19   -47490.738    3946.1562   -51436.894     0.150078 
   56100    291.83988   -511.88323    149213.09   -47472.554     4007.718   -51480.271    0.1566862 
   56200    290.89678   -508.28945    149240.09    -47514.33    3994.7668   -51509.097   0.15363901 
   56300    292.46697   -482.81003     149203.7   -47579.705    4016.3296   -51596.035   0.14665868 
   56400    285.86005    -510.9421    149211.21   -47634.267    3925.5994   -51559.866   0.14972439 
   56500    285.69161   -498.28335    149187.73   -47680.653    3923.2863   -51603.939   0.14571162 
   56600    284.69197   -502.66096    149166.32   -47732.443    3909.5586   -51642.002   0.14418833 
   56700    285.39145   -491.89804    149194.96   -47715.705    3919.1644   -51634.869   0.14251576 
   56800    290.21741   -478.57831    149207.61   -47600.961    3985.4373   -51586.398    0.1490163 
   56900    286.04199   -471.79615    149225.31   -47697.524     3928.098   -51625.622   0.14202841 
   57000     283.3931   -484.44173    149211.46   -47684.114    3891.7218   -51575.836    0.1493978 
   57100    285.51251   -512.55412    149247.91    -47608.05    3920.8268   -51528.877    0.1493717 
   57200    286.84413   -504.55403    149262.84   -47557.967    3939.1134    -51497.08   0.14389034 
   57300    282.78452   -554.61212    149222.34   -47691.847    3883.3644   -51575.212   0.15148026 
   57400    289.14003    -497.8538    149243.72   -47572.988    3970.6421    -51543.63    0.1483778 
   57500    290.56081   -481.70129    149241.88   -47538.635    3990.1531   -51528.788   0.15013608 
   57600    286.61182   -539.99442    149218.64   -47654.643    3935.9231   -51590.566    0.1516019 
   57700    291.59729    -492.0117    149236.83   -47560.446    4004.3866   -51564.832    0.1494537 
   57800    294.99092   -498.37462    149264.46   -47514.618    4050.9899   -51565.608   0.14952988 
   57900    289.90675    -508.4932    149241.18   -47551.299    3981.1711   -51532.471   0.15112168 
   58000    285.52227   -497.56642    149212.61   -47507.061    3920.9608   -51428.022    0.1498641 
   58100    288.35904    -489.3487    149223.97   -47558.259    3959.9171   -51518.176   0.15351104 
   58200    292.73839   -515.77091    149249.16   -47451.925    4020.0568   -51471.982   0.15213826 
   58300    292.02011   -498.78067    149221.85   -47519.206     4010.193   -51529.399   0.15056531 
   58400    291.26379   -472.98511     149207.3   -47550.764    3999.8067   -51550.571   0.15302737 
   58500    287.80406   -498.27651    149222.57   -47559.138    3952.2957   -51511.434   0.14921234 
   58600    287.30771    -511.3481    149231.68   -47597.601    3945.4795   -51543.081   0.15094083 
   58700    290.15304   -489.33278    149247.66   -47550.311    3984.5533   -51534.865   0.14565422 
   58800     291.2574   -520.75928    149251.55   -47594.725     3999.719   -51594.444   0.15205355 
   58900    286.52064   -497.22509    149245.69   -47509.102     3934.671   -51443.773   0.14875406 
   59000    293.48256   -519.15482    149241.66   -47475.942    4030.2762   -51506.218   0.15470417 
   59100    293.71135   -461.31682    149247.59   -47435.993    4033.4181   -51469.411   0.14978694 
   59200     293.0204   -487.66733    149210.73    -47561.66    4023.9296   -51585.589   0.14735004 
   59300    292.51206     -492.918    149188.31   -47538.972    4016.9487   -51555.921   0.15272144 
   59400    291.42461   -493.42734     149212.2   -47526.931    4002.0152   -51528.946   0.14814074 
   59500    290.84788   -506.53151    149174.11   -47638.077    3994.0953   -51632.172   0.14960265 
   59600    288.77147   -530.75123    149179.59   -47611.582    3965.5807   -51577.162    0.1542003 
   59700    289.85574    -519.1928    149205.17   -47542.344    3980.4706   -51522.815   0.15089699 
   59800    288.25779   -497.98649    149183.11   -47657.696    3958.5266   -51616.223   0.14912668 
   59900    287.79992   -486.65289    149189.26   -47652.514    3952.2388   -51604.753   0.14660062 
   60000    291.69131   -496.05573    149195.55   -47617.872    4005.6778    -51623.55   0.14737963 
   60100    291.87316   -496.10973     149190.4    -47575.33    4008.1751   -51583.505   0.15271259 
   60200    295.08626   -458.04578     149204.7   -47543.631    4052.2992    -51595.93   0.14508446 
   60300    288.39253    -494.8518    149236.95   -47505.207    3960.3769   -51465.584   0.15911991 
   60400     294.0402   -470.08579    149241.79   -47449.777    4037.9341   -51487.711   0.14582611 
   60500    288.12163   -492.12818    149224.73   -47481.045    3956.6567   -51437.701   0.15941026 
   60600    293.52529   -484.69154       149209   -47543.117     4030.863    -51573.98   0.15106629 
   60700    295.28358   -468.80069    149247.26   -47367.484    4055.0089   -51422.493   0.15639173 
   60800    299.14494   -517.47742     149272.4   -47395.037    4108.0354   -51503.072   0.15557889 
   60900    291.21236   -515.51225    149238.82   -47489.614    3999.1005   -51488.715   0.14995801 
   61000    290.47623   -516.58027    149215.43   -47532.624    3988.9915   -51521.615   0.15514425 
   61100    291.81068   -535.94454    149214.54   -47515.135     4007.317   -51522.452   0.15232967 
   61200    293.21972   -496.96807    149240.96   -47457.312    4026.6667   -51483.978   0.15354977 
   61300    289.81016   -480.28565    149221.71   -47550.105    3979.8446   -51529.949   0.15206647 
   61400    287.41466   -522.36022    149222.23   -47603.282    3946.9483    -51550.23   0.15166013 
   61500    291.53041   -467.99862    149225.75    -47538.79    4003.4681   -51542.258   0.14510075 
   61600    296.97722    -471.9801    149226.44   -47587.337     4078.267   -51665.604   0.14597133 
   61700    289.56167   -507.68011    149221.08   -47649.157    3976.4323   -51625.589   0.14848725 
   61800    293.66306   -519.99021    149224.13   -47634.634    4032.7549   -51667.389   0.14406779 
   61900    291.15927   -479.55902    149235.51   -47531.497    3998.3715   -51529.868    0.1494293 
   62000     292.9629   -509.50468    149231.43   -47544.127    4023.1399   -51567.267   0.14835346 
   62100    288.25007   -536.60689    149202.98   -47611.858    3958.4206   -51570.278   0.15257061 
   62200    293.23939   -498.59005    149224.07   -47505.422    4026.9368   -51532.359   0.15113185 
   62300    289.51104   -480.67446    149206.74   -47546.127    3975.7369   -51521.864   0.15003232 
   62400    286.97212    -529.7557    149186.78   -47598.979    3940.8711    -51539.85   0.15059592 
   62500    289.62932   -539.92782    149169.79   -47589.142    3977.3613   -51566.503   0.15516302 
   62600     292.3468   -512.51074    149179.25   -47616.465    4014.6793   -51631.144   0.14452432 
   62700    288.58797   -517.52874    149159.93   -47651.084    3963.0608   -51614.145   0.14991063 
   62800    289.84669   -528.14225    149159.63   -47620.925    3980.3463   -51601.272   0.15221487 
   62900    289.07609   -447.76156    149203.89   -47529.071     3969.764   -51498.835   0.14655533 
   63000     291.9192    -472.3831    149211.83   -47560.271    4008.8072   -51569.079   0.15418464 
   63100    291.20916    -472.8077    149196.07   -47631.831    3999.0565   -51630.888   0.14195083 
   63200    291.61837   -514.21139    149234.89   -47518.207    4004.6761   -51522.883   0.15599924 
   63300    283.09504   -512.79665    149208.89   -47612.669    3887.6286   -51500.297   0.14563414 
   63400    283.68631   -518.64992    149165.96   -47695.343    3895.7484   -51591.092   0.15308568 
   63500    289.05147   -485.12362    149194.18   -47675.857    3969.4259   -51645.283    0.1430592 
   63600    289.70105   -480.61678    149180.84   -47725.776    3978.3462   -51704.122   0.14487727 
   63700    288.42374   -481.55281    149187.25   -47691.913    3960.8055   -51652.719   0.14128734 
   63800    286.19047   -505.48465    149185.71   -47763.346    3930.1369   -51693.483   0.13924382 
   63900    286.32231   -491.71238    149206.04   -47657.942    3931.9474    -51589.89    0.1504866 
   64000    289.77861    -509.5464    149219.21   -47568.933    3979.4114   -51548.344   0.14574943 
   64100    291.94139   -493.59468    149201.84   -47519.476     4009.112   -51528.588   0.15638882 
   64200    292.29109   -465.49217    149236.28   -47508.705    4013.9143   -51522.619   0.14388839 
   64300    286.43775    -493.6591    149226.92   -47548.472    3933.5327   -51482.004   0.15080103 
   64400    289.16163     -522.517    149212.91   -47603.436    3970.9387   -51574.374   0.14575198 
   64500    287.41584    -541.7132    149203.39   -47597.823    3946.9644   -51544.788   0.15271706 
   64600    284.69304    -524.9032    149200.88   -47632.948    3909.5734   -51542.522   0.14621301 
   64700     288.1347   -522.65802    149195.29   -47640.281    3956.8362   -51597.117   0.15070395 
   64800    291.30043   -500.81588    149198.82   -47580.431      4000.31   -51580.741   0.14421923 
   64900    296.57653   -485.92273    149208.37   -47492.918    4072.7645   -51565.682   0.14871365 
   65000    294.42231    -487.3288    149228.84   -47483.625    4043.1815   -51526.806   0.15010643 
   65100    294.25771   -517.37682    149230.18   -47552.803     4040.921   -51593.724   0.14484683 
   65200    288.50626   -511.91018    149202.45   -47570.744    3961.9387   -51532.683   0.15545954 
   65300     290.4978   -517.56992    149240.51    -47508.09    3989.2877   -51497.378   0.14704282 
   65400     291.6259   -501.36248    149214.23   -47549.877    4004.7795   -51554.657   0.15575374 
   65500    292.94665   -465.95786     149218.5   -47476.261    4022.9167   -51499.178   0.15031022 
   65600    290.52641   -512.49677    149239.69   -47492.193    3989.6807   -51481.873   0.15448821 
   65700     292.9721   -483.53776    149256.05   -47455.558    4023.2663   -51478.825   0.15058482 
   65800    293.58062   -473.24254    149239.14   -47522.584    4031.6229   -51554.207   0.14434961 
   65900    290.68653    -518.7965    149238.85   -47535.347    3991.8795   -51527.227   0.15008496 
   66000    284.63222   -506.75587    149235.96   -47540.418    3908.7382   -51449.156   0.14873099 
   66100    294.60375   -501.70554    149263.27   -47515.887    4045.6731    -51561.56   0.15062921 
   66200    286.27859    -526.3949    149223.31   -47647.486    3931.3471   -51578.833   0.14454258 
   66300    291.83322   -515.76663    149222.65   -47577.753    4007.6265    -51585.38   0.14655967 
   66400    288.83045    -485.0651    149204.65   -47578.987    3966.3907   -51545.378   0.14606175 
   66500    286.11003   -518.76855    149217.88   -47617.921    3929.0323   -51546.954   0.14827786 
   66600    287.15216   -509.43568    149200.28    -47620.42    3943.3434   -51563.763   0.14744824 
   66700    291.80863   -511.46682    149200.52   -47603.674    4007.2888   -51610.963   0.14583225 
   66800    286.35493   -524.64139    149212.42   -47630.548    3932.3954   -51562.944   0.14813913 
   66900    286.99556   -481.59223    149214.72   -47640.706    3941.1928   -51581.899   0.14044673 
   67000     280.5357   -500.63918    149187.14   -47748.184    3852.4822   -51600.666   0.14822015 
   67100    290.26011   -500.57436    149207.63   -47584.586    3986.0236    -51570.61   0.14773878 
   67200    283.80719   -535.08655    149203.23   -47689.751    3897.4083   -51587.159   0.15041695 
   67300    291.33324   -497.16353    149203.81   -47606.458    4000.7605   -51607.218    0.1413017 
   67400    288.85028   -513.59459    149201.44    -47583.17     3966.663   -51549.833   0.15142903 
   67500    291.61758   -523.42684    149221.14   -47571.925    4004.6652   -51576.591   0.14377197 
   67600    294.39884   -490.52954    149252.42    -47429.57    4042.8591   -51472.429   0.15054826 
   67700    291.68591   -511.57399    149232.77   -47501.195    4005.6036   -51506.799   0.15186834 
   67800    290.86297   -521.91804    149237.95    -47547.07    3994.3025   -51541.373   0.14721859 
   67900    292.85013   -504.35947    149231.58   -47574.188    4021.5913   -51595.779   0.14951648 
   68000    286.34491   -543.24592    149218.04   -47610.261    3932.2579   -51542.519   0.14655261 
   68100    289.51462   -549.15435    149217.46   -47615.106    3975.7861   -51590.892   0.15105208 
   68200    294.94068   -489.77362    149219.74    -47582.78       4050.3    -51633.08   0.14343092 
   68300    290.34119   -475.22894     149222.6    -47524.41    3987.1371   -51511.547   0.14856497 
   68400    290.83989   -547.41075    149234.61   -47495.686    3993.9855   -51489.671   0.15032291 
   68500    291.77032   -500.59951    149217.66   -47486.899    4006.7627   -51493.662   0.15599433 
   68600    287.74895   -533.17801    149219.12   -47582.435     3951.539   -51533.974   0.14595277 
   68700    290.47194   -496.06413    149232.62   -47555.404    3988.9326   -51544.337   0.14640804 
   68800    287.83409   -491.55633    149227.44   -47552.139     3952.708   -51504.847    0.1496649 
   68900    292.80231   -504.09943    149221.01   -47553.284    4020.9346   -51574.219   0.14393224 
   69000     291.0837   -489.65358    149220.91   -47554.002    3997.3337   -51551.336   0.15155367 
   69100    291.50829   -471.73509    149214.41   -47616.763    4003.1644   -51619.927   0.14454296 
   69200    285.81157   -486.77537    149218.07   -47629.249    3924.9337   -51554.183   0.14623957 
   69300    285.05769    -515.2817    149206.42   -47663.353    3914.5809   -51577.934   0.14812441 
   69400    285.20053   -513.24311    149192.91   -47710.968    3916.5425    -51627.51    0.1442811 
   69500    291.88932   -483.38617    149203.21   -47573.727    4008.3969   -51582.124   0.14661721 
   69600    295.64984   -504.03159    149258.75   -47471.048    4060.0386   -51531.087   0.15230421 
   69700    289.75875   -525.87063    149250.61   -47568.998    3979.1386   -51548.136   0.14987779 
   69800     291.9118   -535.79162    149229.26   -47567.601    4008.7056   -51576.306   0.14714782 
   69900    287.34514   -521.04877    149203.72   -47657.408    3945.9936   -51603.402   0.15139401 
   70000    290.56502   -505.66158    149220.48   -47587.611    3990.2109   -51577.822   0.14716436 
   70100    285.27786   -543.51557    149207.99   -47710.433    3917.6044   -51628.038   0.15069246 
   70200    294.63803   -474.22139    149238.17   -47547.249    4046.1439   -51593.393   0.14416632 
   70300    287.47163   -521.96724    149236.22   -47555.404    3947.7306   -51503.134   0.15017063 
   70400    295.75586   -508.98977    149252.99    -47446.44    4061.4946   -51507.934   0.15132144 
   70500    293.78715   -490.13878    149256.77   -47522.929    4034.4591   -51557.389   0.14721836 
   70600    290.10133    -494.8076     149241.1   -47579.348    3983.8432   -51563.192   0.14731518 
   70700    291.21655   -492.43004    149232.02   -47548.925     3999.158   -51548.083   0.14588714 
   70800    292.67736   -494.22919    149237.43    -47588.02    4019.2187   -51607.238   0.14590146 
   70900    295.85058   -491.62733    149225.67   -47578.925    4062.7953   -51641.721   0.14026305 
   71000    291.08011   -493.17501    149200.15   -47592.585    3997.2843   -51589.869   0.15641332 
   71100    291.36893   -515.93496    149203.97   -47587.622    4001.2506   -51588.872   0.14906024 
   71200       283.76    -522.5622    149211.65   -47619.363    3896.7602   -51516.123   0.15029839 
   71300    288.65036    -500.2986    149220.98   -47678.489    3963.9176   -51642.406    0.1484682 
   71400    290.75834   -484.48491    149206.65   -47607.547    3992.8656   -51600.413   0.14247565 
   71500    283.88638    -472.5499    149231.23   -47558.958    3898.4959   -51457.454   0.14927196 
   71600    286.69899   -522.32816    149223.37   -47583.442    3937.1202   -51520.562   0.14909292 
   71700     291.0145   -463.14582    149227.37   -47575.548    3996.3834   -51571.932   0.14516009 
   71800    283.36644   -524.38821    149201.86    -47745.97    3891.3557   -51637.325   0.14700704 
   71900    285.69067   -483.18385    149199.58   -47683.868    3923.2733   -51607.141   0.14170963 
   72000     288.3301   -454.54125    149228.33   -47650.356    3959.5196   -51609.875   0.14245898 
   72100    288.48309   -507.24578    149248.63   -47518.487    3961.6205   -51480.108     0.153647 
   72200    294.85356   -500.14925    149286.46   -47413.162    4049.1037   -51462.265   0.14826094 
   72300    293.16185   -545.83975    149289.82   -47387.599     4025.872   -51413.471   0.15918247 
   72400    291.31343   -517.45769    149247.94   -47507.384    4000.4884   -51507.873   0.14949449 
   72500    293.30336   -489.88794    149260.03   -47505.386    4027.8153   -51533.202   0.14924248 
   72600    292.26251   -516.71709    149268.26    -47443.91    4013.5218   -51457.432   0.15717232 
   72700    287.09546   -534.99496    149244.08   -47611.368    3942.5647   -51553.932   0.14902271 
   72800    288.42734    -499.6802    149237.21   -47533.948    3960.8549   -51494.803   0.15078458 
   72900    292.57769   -471.90677    149244.82   -47546.467    4017.8501   -51564.317   0.14357138 
   73000    290.51124   -493.16373    149208.49   -47544.901    3989.4723   -51534.373   0.14888815 
   73100    292.15462   -514.29008    149186.01   -47503.499    4012.0401   -51515.539    0.1548752 
   73200    288.28476   -521.09507    149215.97   -47488.667     3958.897   -51447.564   0.15364607 
   73300    296.60602   -498.08514    149236.47   -47462.416    4073.1695   -51535.585   0.15071947 
   73400    289.56411   -483.22266    149256.45   -47446.628    3976.4657   -51423.094   0.14902358 
   73500    295.93857   -493.16272    149245.76   -47450.352    4064.0037   -51514.355   0.15443803 
   73600    291.24309    -505.5337    149222.85   -47494.007    3999.5225    -51493.53   0.15371368 
   73700    290.78604   -487.41943    149207.32   -47551.752     3993.246   -51544.998   0.14827962 
   73800    285.45514   -485.61399    149191.11   -47646.372    3920.0389   -51566.411   0.14724479 
   73900     291.4793   -492.82247    149200.35   -47627.291    4002.7662   -51630.057   0.14413518 
   74000    293.32045   -471.89623    149198.42   -47546.193      4028.05   -51574.243   0.14787562 
   74100    297.25842    -505.2858    149251.23   -47383.407    4082.1285   -51465.536   0.15126523 
   74200    290.31036   -540.98501    149220.81   -47552.286    3986.7137       -51539    0.1508737 
   74300     289.5592   -498.19718    149182.41   -47549.468    3976.3984   -51525.866   0.15326386 
   74400    290.98294   -534.63553    149209.52   -47583.522      3995.95   -51579.472   0.14702692 
   74500    289.50105   -496.12838    149202.23     -47602.7    3975.5997     -51578.3   0.14732626 
   74600    288.24829   -510.62557    149191.94   -47604.254    3958.3961   -51562.651   0.15241193 
   74700    291.29125   -532.55014    149223.83   -47520.264    4000.1839   -51520.448   0.14741071 
   74800    290.82935   -500.91042    149189.17   -47573.675    3993.8408   -51567.515   0.15299039 
   74900    290.18914    -475.5694    149204.31   -47576.424    3985.0491   -51561.473   0.14405758 
   75000    287.14032   -518.63117    149199.96   -47555.623    3943.1809   -51498.804   0.14872974 
   75100    290.85856   -526.56483    149219.11   -47491.097    3994.2419   -51485.339   0.15476639 
   75200    294.05024    -504.1168    149226.33    -47539.99     4038.072   -51578.062   0.14352303 
   75300    292.20096   -501.82551    149200.42   -47589.015    4012.6766   -51601.692   0.14968635 
   75400    285.77072   -505.13215    149204.22   -47596.045    3924.3726   -51520.418   0.14822253 
   75500    290.08661   -458.79583    149201.45   -47593.221     3983.641   -51576.862   0.14282026 
   75600    291.66981    -493.3504    149220.28   -47524.889    4005.3824   -51530.271   0.15410457 
   75700    287.34069   -518.62984    149210.08   -47476.406    3945.9325   -51422.339   0.15234922 
   75800    293.20258   -532.31722    149229.93   -47506.792    4026.4314   -51533.223   0.15145584 
   75900    291.54934   -516.17449    149216.73   -47519.632    4003.7281    -51523.36   0.15107352 
   76000    294.28771   -540.41915    149220.54   -47531.493    4041.3331   -51572.826   0.15058487 
   76100    287.89491   -499.29578       149187   -47616.681    3953.5433   -51570.224    0.1464599 
   76200    288.95791   -500.22492    149187.78   -47665.928     3968.141   -51634.069   0.14410458 
   76300    291.03454   -496.48193    149176.51   -47599.401    3996.6586   -51596.059   0.14303171 
   76400    284.96948   -504.40324    149191.03    -47593.93    3913.3696     -51507.3   0.14992666 
   76500    294.50309   -481.04209    149220.38   -47584.067    4044.2908   -51628.358   0.14344868 
[...]
   81900    291.03696   -508.43486    149233.75   -47621.288    3996.6918   -51617.979    0.1503774 
   82000    292.19966   -491.40428    149248.95   -47527.559    4012.6587   -51540.217   0.14955811 
   82100    293.47447   -507.01251    149289.67   -47481.399    4030.1651   -51511.564   0.14875271 
   82200     292.3545   -512.52323    149272.01    -47490.53     4014.785   -51505.315    0.1521597 
   82300    287.92767    -515.5357    149267.24   -47565.811    3953.9932   -51519.804   0.15463072 
   82400    292.34356   -502.11622       149266   -47449.092    4014.6348   -51463.727   0.15022286 
   82500    292.80682   -484.45818    149266.86   -47346.329    4020.9966   -51367.325   0.16425636 
   82600    296.02862   -480.14207    149264.88   -47456.982    4065.2402   -51522.222   0.14615965 
   82700    292.34144   -495.88914    149221.88    -47539.12    4014.6058   -51553.726   0.15657964 
   82800    295.20808   -488.45316    149229.34   -47552.985     4053.972   -51606.957   0.14578821 
   82900    295.44941   -484.38982    149242.93   -47503.709    4057.2862   -51560.995   0.15049824 
   83000    300.56398   -497.35866    149268.72   -47442.274    4127.5225   -51569.797   0.14991058 
   83100    295.60219   -478.52202    149259.53   -47480.927    4059.3842   -51540.311   0.14698141 
   83200    290.14844   -535.37551    149244.78   -47513.104    3984.4901   -51497.594    0.1552487 
   83300    295.42525    -504.2477    149260.94   -47507.289    4056.9545   -51564.243   0.14549501 
   83400    284.49872   -528.04552    149219.71   -47580.849    3906.9048   -51487.754   0.16338852 
   83500    286.84953   -505.55231    149202.45   -47691.137    3939.1876   -51630.324   0.14005522 
   83600    288.41307   -451.76608     149212.6   -47630.452     3960.659   -51591.111   0.15121683 
   83700    288.25869   -505.74197    149216.88   -47662.593     3958.539   -51621.132   0.14593751 
   83800    292.86172   -459.93467    149216.43   -47618.112    4021.7505   -51639.862   0.14441576 
   83900    290.04107   -512.48859    149213.06   -47622.588    3983.0157   -51605.603   0.15525106 
   84000    288.15641    -542.8428    149206.46   -47641.462    3957.1344   -51598.597   0.15248745 
   84100    292.03461   -523.89602    149209.74   -47570.478    4010.3921    -51580.87   0.15210367 
   84200    293.66735   -491.46514    149216.47   -47522.025    4032.8139   -51554.839   0.15396939 
   84300    296.27788   -477.88601    149215.83   -47577.122    4068.6632   -51645.785   0.14790993 
   84400     289.1298   -506.39582    149235.43   -47574.214    3970.5015   -51544.716   0.15087937 
   84500     289.9501   -481.88118    149216.11   -47628.351    3981.7664   -51610.118   0.15507481 
   84600    291.25233   -520.86908    149244.83   -47538.918    3999.6494   -51538.568   0.14416174 
   84700    292.47873   -506.93989    149219.75   -47547.127     4016.491   -51563.618   0.15711127 
   84800    291.16038   -478.69761    149235.97   -47543.544    3998.3867   -51541.931   0.14308463 
   84900    291.71486    -516.2471    149245.86   -47459.957    4006.0011   -51465.958   0.15494327 
   85000    291.37389   -479.80914    149247.11   -47537.111    4001.3187    -51538.43   0.15302504 
   85100       289.65    -485.2549    149234.35   -47561.968    3977.6453   -51539.614   0.14371192 
   85200    290.00901   -519.24754    149219.95   -47599.775    3982.5754    -51582.35   0.15045933 
   85300     287.3932   -504.92223     149226.6   -47606.999    3946.6536   -51553.653   0.14484098 
   85400    284.72296   -505.00342    149220.88   -47629.563    3909.9842   -51539.547   0.14963244 
   85500    286.83516   -480.47954    149246.43   -47584.197    3938.9902   -51523.187   0.14651777 
   85600    288.91592   -524.64807    149221.99   -47615.525    3967.5644    -51583.09   0.15059577 
   85700    294.22434   -451.66978    149228.76   -47554.834    4040.4628   -51595.297    0.1459337 
   85800    289.18132   -489.64448    149241.42   -47540.727     3971.209   -51511.936   0.15063971 
   85900    292.22631   -505.58603    149261.65   -47515.089    4013.0246   -51528.114   0.15472998 
   86000    290.42013   -512.46904    149248.98   -47567.946    3988.2212   -51556.167   0.14796126 
   86100    292.35583   -478.42346    149261.96   -47545.178    4014.8033   -51559.981   0.15002641 
   86200    293.29104   -514.36895    149268.37   -47510.087    4027.6462   -51537.733   0.14727565 
   86300    293.32388    -485.2896    149229.82   -47553.103    4028.0972     -51581.2    0.1488651 
   86400    290.54989   -480.42751    149247.29     -47615.6    3990.0031   -51605.603   0.14531001 
   86500    288.81826   -500.43548    149215.41   -47645.992    3966.2233   -51612.215   0.14690982 
   86600    294.97528   -510.49656    149255.68   -47491.303    4050.7751   -51542.078   0.15077199 
   86700    292.54402   -505.06354     149266.6   -47490.075    4017.3877   -51507.463   0.15317062 
   86800    287.18136   -501.99204    149253.72   -47612.946    3943.7444    -51556.69   0.14728267 
   86900    287.90775   -517.78154     149215.7   -47589.729    3953.7196   -51543.449   0.15110293 
   87000    289.48634   -503.63025    149224.14   -47564.519    3975.3977   -51539.917   0.15344712 
   87100    291.66688   -492.38798    149225.87   -47539.666    4005.3422   -51545.009   0.14707078 
   87200    295.40454   -498.06776    149246.47   -47473.842      4056.67   -51530.512   0.15391345 
   87300    295.13097   -483.58958    149247.38   -47489.493    4052.9132   -51542.406   0.14779204 
   87400    293.37978   -501.65839    149244.18   -47539.915    4028.8648    -51568.78   0.14755323 
   87500    291.00789   -509.49824    149244.33   -47516.926    3996.2926   -51513.219   0.15415134 
   87600    294.56988   -490.05178    149248.84   -47532.978    4045.2079   -51578.186   0.14819247 
   87700    293.10427   -504.40094     149256.8   -47511.222    4025.0813   -51536.303   0.14912267 
   87800    287.92665   -493.07015    149224.57   -47590.381    3953.9792    -51544.36   0.14984547 
   87900    287.71563   -490.86361    149212.95   -47612.705    3951.0813   -51563.787   0.14740233 
   88000    290.18038   -514.88545    149226.86   -47584.738    3984.9288   -51569.667   0.15284943 
   88100     290.4162   -534.75014    149222.81   -47547.197    3988.1672   -51535.365   0.15462776 
   88200    284.74753   -519.83245    149209.82   -47650.867    3910.3216   -51561.189   0.14853986 
   88300    291.01452    -530.6733    149193.03   -47592.201    3996.3837   -51588.585   0.15343736 
   88400    295.19693   -496.88986    149219.25   -47522.627     4053.819   -51576.446    0.1485565 
   88500    292.87614   -507.05889    149236.96   -47596.107    4021.9485   -51618.056   0.15137331 
   88600    289.36948   -502.34158    149227.57   -47583.657     3973.793    -51557.45   0.15222591 
   88700    295.23084   -477.15205    149240.01   -47555.364    4054.2846   -51609.648   0.14564402 
   88800     287.0614   -527.67831    149211.44   -47619.835    3942.0971   -51561.932    0.1528944 
   88900    292.79481   -473.56115    149229.68   -47559.752    4020.8316   -51580.584   0.14589982 
   89000    291.24603   -496.41808    149234.62   -47521.682    3999.5629   -51521.245   0.15373335 
   89100    288.48883   -514.22271    149251.19   -47580.695    3961.6994   -51542.394   0.15138248 
   89200    288.74033   -500.91351    149228.02   -47525.615    3965.1531   -51490.768   0.15174338 
   89300    284.41835   -517.01268    149217.07   -47654.567    3905.8011   -51560.368   0.15290033 
   89400    289.27145   -501.04892    149236.72   -47550.349    3972.4467   -51522.795   0.14817965 
   89500    289.03655   -525.88141    149241.29   -47654.844     3969.221   -51624.065   0.15316474 
   89600    284.97873   -510.40196    149220.82   -47678.305    3913.4965   -51591.802     0.143563 
   89700     292.9083   -491.53934    149218.76   -47592.264    4022.3901   -51614.655   0.15095583 
   89800     292.9359   -488.11586    149233.95   -47525.232    4022.7691   -51548.001   0.15139157 
   89900    297.26471   -480.99728    149254.39   -47509.582     4082.215   -51591.797   0.14737678 
   90000    295.26807   -520.96195    149278.51   -47535.016    4054.7958   -51589.812   0.15453434 
   90100    289.13441    -503.6134    149266.03   -47514.823    3970.5649   -51485.388   0.15143435 
   90200    288.48701   -507.71116    149259.08   -47592.683    3961.6744   -51554.357    0.1510683 
   90300    292.27126   -482.10136     149257.1   -47561.178     4013.642   -51574.819   0.14909559 
   90400     289.8686   -496.08868    149280.89    -47553.71    3980.6471   -51534.357   0.14993987 
   90500    288.34038   -498.09872     149279.5   -47563.459    3959.6607    -51523.12   0.15362841 
   90600    287.61726   -535.13025    149270.35   -47591.311    3949.7304   -51541.041   0.15267851 
   90700    285.39882   -477.84525     149255.7   -47621.864    3919.2656   -51541.129    0.1457463 
   90800    290.58146   -496.37681     149257.9   -47637.162    3990.4366   -51627.599   0.14797879 
   90900    292.73548   -516.14601     149277.7   -47616.144    4020.0169   -51636.161   0.14496839 
   91000    284.60117   -528.30851     149261.6   -47630.462    3908.3118   -51538.774   0.15113821 
   91100    285.29601    -488.0233    149229.32   -47737.694    3917.8536   -51655.548   0.14791062 
   91200    287.62575   -506.06915    149234.99   -47676.386     3949.847   -51626.233   0.14405199 
   91300    293.72763   -489.12361     149242.3   -47609.644    4033.6416   -51643.286    0.1541225 
   91400    290.74982    -522.2376    149254.82   -47581.009    3992.7486   -51573.757   0.14640781 
   91500    295.20453   -451.44265    149298.47   -47424.326    4053.9233   -51478.249   0.15643005 
   91600    292.82222   -528.96722    149300.59   -47492.374    4021.2081   -51513.582   0.15212801 
   91700    293.38603   -502.58939    149275.17   -47564.291    4028.9507   -51593.241    0.1465391 
   91800    292.61764   -509.65914    149273.95   -47537.439    4018.3986   -51555.838   0.15280618 
   91900    292.20174   -481.71371    149262.95   -47523.803    4012.6872    -51536.49   0.14563228 
   92000    286.58537   -525.40417    149246.55   -47572.527    3935.5599   -51508.087   0.15918145 
   92100    290.72164   -502.50701    149238.62   -47552.776    3992.3616   -51545.137   0.14387809 
   92200    293.10385   -505.97213    149238.33   -47584.907    4025.0756   -51609.983   0.15287854 
   92300    297.20377   -489.71284    149275.84   -47453.789    4081.3782   -51535.168   0.14959958 
   92400    290.58079   -515.06194    149240.19   -47504.764    3990.4274   -51495.192   0.15369312 
   92500    289.70969   -531.87636     149264.1   -47501.925    3978.4649    -51480.39   0.15558609 
   92600    294.42239   -466.85014    149276.86    -47411.38    4043.1826   -51454.562    0.1539163 
   92700    289.24466   -505.40275    149278.97   -47541.805    3972.0788   -51513.883   0.15006615 
   92800    287.59955   -517.02821    149276.61   -47544.992    3949.4873   -51494.479   0.14954219 
   92900    289.29659   -494.45901     149267.7   -47592.518     3972.792    -51565.31   0.14870129 
   93000    285.40534    -489.2712    149244.51   -47594.167     3919.355   -51513.522   0.14689017 
   93100    289.70433   -495.60226     149248.7   -47514.154    3978.3913   -51492.545   0.15461803 
   93200    292.58051   -537.18119    149257.18   -47572.086    4017.8887   -51589.975   0.14374458 
   93300    291.29373   -491.66534    149235.14   -47619.585    4000.2179   -51619.802     0.154055 
   93400    289.56752   -468.94557    149231.07   -47676.425    3976.5126   -51652.937   0.14103858 
   93500     283.6665   -537.45157    149220.87   -47673.538    3895.4762   -51569.014   0.15391021 
   93600    288.73374   -503.05728    149236.36   -47626.207    3965.0627    -51591.27   0.14749866 
   93700    286.97276   -521.33873     149252.5   -47608.278    3940.8798   -51549.158    0.1497949 
   93800    289.16118   -469.15746     149233.2   -47605.325    3970.9325   -51576.258   0.15292663 
   93900    290.68307   -493.24218    149247.59   -47686.028     3991.832    -51677.86   0.13870645 
   94000    288.48593   -474.30976    149252.49   -47653.811    3961.6596    -51615.47   0.15148973 
   94100    293.59698   -504.29031    149286.67   -47537.872    4031.8475    -51569.72   0.14260511 
   94200    292.22858   -506.01608     149275.1   -47521.767    4013.0558   -51534.822   0.15420135 
   94300    292.13731   -528.47785    149273.95   -47538.176    4011.8024   -51549.978   0.14949974 
   94400     291.9971    -522.3024    149252.08   -47525.285     4009.877   -51535.162   0.15289609 
   94500    292.83417    -532.5435     149263.1   -47528.345    4021.3722   -51549.717   0.15202023 
   94600    292.10686   -495.77619    149248.14   -47533.598    4011.3843   -51544.982   0.14800166 
   94700    291.05558   -482.94154    149247.99   -47581.046    3996.9475   -51577.994   0.14846727 
   94800     289.5829   -518.13915    149234.11   -47621.448    3976.7238   -51598.172   0.14551579 
   94900    288.94204   -518.62107    149212.67   -47646.922    3967.9231   -51614.845   0.15138038 
   95000    290.22701   -509.51141     149209.4   -47600.809     3985.569   -51586.378   0.14332927 
   95100    290.86155   -494.88052    149216.23   -47559.987     3994.283    -51554.27   0.15637156 
   95200    291.23177   -484.11583    149243.06   -47593.635     3999.367   -51593.003   0.14224815 
   95300    287.21649   -529.88859    149234.97   -47546.755    3944.2268   -51490.982   0.15487999 
   95400    294.02003   -492.20692    149243.88   -47519.816    4037.6571   -51557.473   0.15033871 
   95500    292.81212   -504.90032    149272.17   -47535.528    4021.0693   -51556.597   0.14714957 
   95600    293.71337   -484.96493    149283.34   -47524.794    4033.4458    -51558.24   0.15216909 
   95700    291.54699   -505.69555    149282.92    -47565.13    4003.6959   -51568.826   0.14401045 
   95800    291.68856   -478.61041    149261.63    -47501.72      4005.64    -51507.36   0.15106885 
   95900    292.27854   -461.72783    149294.73   -47528.778    4013.7419    -51542.52   0.14015459 
   96000    293.49571   -465.11209    149307.19   -47491.619    4030.4568   -51522.076   0.15111847 
   96100    292.16537   -513.23923    149298.17   -47438.228    4012.1878   -51450.416   0.14775477 
   96200    296.55137   -523.92597    149296.33   -47471.141    4072.4189    -51543.56   0.15556191 
   96300    291.58614   -521.81626    149288.75   -47484.215    4004.2334   -51488.449   0.15123946 
   96400    291.02244   -523.19545    149245.34   -47530.403    3996.4924   -51526.896   0.15473987 
   96500    290.99009   -502.67258    149255.66   -47522.216    3996.0481   -51518.264   0.14952559 
   96600    294.18429   -508.61407    149261.25   -47581.733    4039.9129   -51621.646   0.14731301 
   96700    289.23969    -514.5934    149245.62   -47544.225    3972.0106   -51516.235   0.15285461 
   96800    291.41001   -494.69832    149256.15   -47572.896    4001.8147   -51574.711   0.14342525 
   96900    293.39179   -469.11756    149254.61   -47581.006    4029.0298   -51610.036   0.14801804 
   97000    282.67859   -514.83151    149241.11   -47651.344    3881.9097   -51533.254   0.14033255 
   97100    288.16624   -480.81709    149233.15   -47618.987    3957.2694   -51576.256   0.15076425 
   97200    293.46547   -466.65187    149252.92   -47560.754    4030.0415   -51590.795   0.14012504 
   97300    295.08478   -498.56487       149269   -47450.494    4052.2789   -51502.773   0.15565185 
   97400    290.59433    -526.6839    149242.59   -47546.354    3990.6133   -51536.967   0.15271333 
   97500    295.90353   -498.05625    149254.53   -47518.443    4063.5224   -51581.965   0.14603563 
   97600    295.62185   -528.54946    149244.37   -47451.625    4059.6542   -51511.279   0.15699077 
   97700    295.33127   -497.89437    149282.65   -47413.152    4055.6638   -51468.816   0.14898063 
   97800    292.77297   -510.53007    149280.52   -47521.909    4020.5317   -51542.441   0.15253428 
   97900    292.85518   -531.68469    149284.94   -47487.934    4021.6606   -51509.595   0.15147017 
   98000    293.14229   -501.26507    149248.24   -47569.708    4025.6034   -51595.311   0.14670883 
   98100    289.81163   -515.48159    149275.56   -47558.611    3979.8648   -51538.475   0.14575192 
   98200     292.5055   -480.55464    149257.65   -47550.336    4016.8587   -51567.195   0.14889954 
   98300    293.13613   -509.71456    149272.23   -47490.849    4025.5189   -51516.368   0.14657093 
   98400    291.83823   -519.06861    149268.44   -47531.408    4007.6953   -51539.104   0.15340939 
   98500    291.72378   -516.38114    149251.19   -47509.913    4006.1236   -51516.036   0.14979672 
   98600    290.63841   -464.90894    149252.56   -47517.359    3991.2186   -51508.578   0.14889282 
   98700    290.83806   -500.71753    149220.13   -47480.859    3993.9603    -51474.82   0.15617344 
   98800    290.97425   -505.24028    149240.39   -47490.957    3995.8307   -51486.788   0.15184218 
   98900    293.24232    -503.6396    149224.72   -47553.835    4026.9771   -51580.812    0.1542244 
   99000    291.98379   -477.85628    149219.89   -47547.951    4009.6942   -51557.645   0.14700166 
   99100    286.24299   -501.90227    149213.59   -47604.675    3930.8581   -51535.533   0.15322862 
   99200    290.22429   -517.80799    149217.84   -47611.087    3985.5317   -51596.619   0.14835326 
   99300    292.91406   -467.56614     149237.1   -47533.263    4022.4693   -51555.732   0.14900065 
   99400    284.61665   -495.06085    149229.47   -47577.897    3908.5243   -51486.421   0.14932409 
   99500    291.57128   -465.41884    149223.59   -47529.505    4004.0294   -51533.534   0.14829077 
   99600    289.65226   -509.69218    149217.51   -47524.865    3977.6763   -51502.541   0.15495644 
   99700    288.70406   -505.97103    149225.44   -47575.783    3964.6551   -51540.438   0.14666361 
   99800    290.10751   -448.83046    149207.75   -47583.893    3983.9281   -51567.821   0.14738382 
   99900    290.66583   -483.62354    149210.22   -47639.755    3991.5952    -51631.35    0.1481589 
  100000    289.77426   -481.12646    149217.82   -47556.622    3979.3517   -51535.974   0.14926474 
Loop time of 59.0008 on 6 procs for 100000 steps with 4608 atoms

Performance: 732.194 ns/day, 0.033 hours/ns, 1694.894 timesteps/s
97.9% CPU use with 6 MPI tasks x no OpenMP threads

MPI task timing breakdown:
Section |  min time  |  avg time  |  max time  |%varavg| %total
---------------------------------------------------------------
Pair    | 38.864     | 40.232     | 46.033     |  41.0 | 68.19
Neigh   | 6.2761     | 6.3529     | 6.5042     |   4.0 | 10.77
Comm    | 3.7924     | 9.6911     | 11.026     |  84.9 | 16.43
Output  | 0.1735     | 0.17461    | 0.17944    |   0.5 |  0.30
Modify  | 1.8475     | 1.9239     | 2.031      |   5.6 |  3.26
Other   |            | 0.6267     |            |       |  1.06

Nlocal:        768.000 ave         776 max         749 min
Histogram: 1 0 0 0 0 0 1 1 1 2
Nghost:        1393.17 ave        1407 max        1384 min
Histogram: 1 1 0 1 2 0 0 0 0 1
Neighs:        0.00000 ave           0 max           0 min
Histogram: 6 0 0 0 0 0 0 0 0 0
FullNghs:      21872.7 ave       22133 max       21303 min
Histogram: 1 0 0 0 0 0 1 1 1 2

Total # of neighbors = 131236
Ave neighs/atom = 28.480035
Neighbor list builds = 6279
Dangerous builds = 0

undump              1
unfix               2
unfix               3
unfix               4




################################################
#######         Run Simulation         #########
################################################

reset_timestep      0
log                 log.run_${NAME}
log                 log.run_ice_291K_-500atm_ML
