LAMMPS data file via write_data, version 29 Oct 2020, timestep = 200000

4608 atoms
1 atom types

-0.39560601339688617 53.795606013398825 xlo xhi
0.21412509314799166 50.69299490685114 ylo yhi
0.21412509314799166 50.69299490685114 zlo zhi

Masses

1 18.015

Atoms # atomic

4598 1 0.12105510154439081 47.78926889620314 5.419569032245852 0 0 0
552 1 7.7933659416262895 3.4557595490574187 1.6801946194092086 1 0 1
3628 1 12.839140292216767 0.6083950932333401 1.9691653545204146 1 1 0
4547 1 16.111524347278937 1.1843460927133918 2.4542017303994217 0 0 0
2486 1 3.327268842473066 34.91793913637072 0.6029875913668292 1 -1 1
3789 1 1.4927936917711928 19.26570205880036 0.3587484957277191 0 -1 0
879 1 15.304292774454899 36.073831266004845 2.409126867620512 0 -1 2
1776 1 -0.00844724674287356 44.75602942376073 23.562833865005032 0 1 -1
4183 1 10.587238461073298 3.561780284686828 1.4579375944625952 0 0 0
2198 1 15.946255381188639 26.293729358819842 2.3844073018320686 1 -1 0
4178 1 0.5716311479799867 0.3426792649474559 8.985758653797642 1 0 1
847 1 3.506218774455511 5.673849137802464 1.780471535379384 0 0 0
2625 1 5.769015279091524 9.148247517755584 3.1906525812606117 0 -1 2
3624 1 14.694719815804731 4.505501869518425 2.5639303585921565 0 1 0
4179 1 16.64587158715759 9.494459101588244 0.4472662852253323 0 -1 1
2915 1 0.13357404949129992 14.616979308183538 21.21939980948921 1 0 0
3618 1 0.6036960164059553 21.118896068049008 17.045350046319754 -1 0 -1
939 1 17.55621544189767 1.691849174602317 13.724304284733716 -1 1 0
3264 1 16.14286687944727 9.69943440873889 11.711123097165196 1 0 0
2302 1 0.1814597676219175 34.38528763853812 13.142259069285457 -1 -1 1
418 1 11.76995424242962 11.850398480747955 3.9444178625952095 0 1 1
3141 1 13.68985902289169 9.01311834076959 1.3820169483213953 0 2 0
1934 1 1.9707562576003115 15.865423174790667 0.9721679351669054 0 0 1
1892 1 1.0020453661870912 7.957932375335353 13.372346466929155 2 -1 -2
4308 1 5.341729607818459 13.318468612224006 1.4956032571855884 0 1 2
2605 1 0.5025133475984142 14.151037022768627 5.786278712333585 -1 0 2
1994 1 1.5632042846108631 7.895448104075711 1.748263008489915 1 1 1
3040 1 15.138816859538922 12.94189110255338 3.863790570913699 1 1 0
2255 1 2.0581103749463643 16.61976103246733 7.655417636328648 0 0 0
3487 1 1.3022767370610324 27.44067542523269 18.34182106306101 1 1 1
1763 1 10.943970332334265 14.859567011629384 3.9522739612258357 0 -1 0
3888 1 7.466990926787576 15.779488493494233 2.9210739211574452 1 1 1
2763 1 11.930907358652055 19.42522189773706 2.7684319268261715 0 0 1
3524 1 0.9354582459455218 26.212342568812222 0.9386008848936628 1 -1 2
2315 1 0.7074686163323678 38.58930508744338 10.41925626624789 0 0 1
3632 1 3.588669401860169 17.637261429118755 3.829887880261842 0 -1 0
448 1 0.33347226709977873 29.836299105491403 15.306847252813714 0 -1 1
2054 1 8.08655565739409 18.550209553274453 4.730545254770522 0 0 -1
3358 1 12.250713990320781 22.90189003283174 5.537777812429421 0 0 0
3774 1 0.5148952096470929 34.82151666386825 23.521765770315298 0 0 0
2022 1 13.635964549154451 48.85473892642654 21.891973058074722 0 0 1
4039 1 16.107164250292538 3.920308715791217 0.55093413368121 0 1 1
819 1 9.13495142843518 21.13511020980618 1.729604134973353 0 0 0
3518 1 12.282967871599007 23.74343737405134 8.13732349458689 1 0 -1
59 1 14.369463388786617 21.496335547828565 2.2639373376799212 0 0 0
3986 1 5.660327104855138 11.315395464404666 23.249572970205758 1 1 1
717 1 13.602817466547053 11.802930656540466 1.745895301471148 -1 0 -1
3335 1 3.60257481787115 26.678979073895057 1.9338323163950526 0 0 1
219 1 2.363170527172299 6.679587412570523 15.74764653896014 0 0 -1
3844 1 14.267144194550403 24.322357773073367 4.11813330748966 0 1 0
1455 1 3.6740630896849122 27.013750810782366 20.381527321435392 0 -1 1
186 1 2.868068228566673 30.678520149030643 11.34036495208268 -1 0 0
4551 1 8.657081420281163 25.617857734132436 6.497029455714778 1 0 1
1159 1 10.501694345096562 25.33504269762313 0.8569042956281419 0 0 1
844 1 10.36613741945769 26.267078115887983 4.254821530454615 0 0 2
3622 1 12.828033881438852 23.830412806582757 1.3036604457362624 0 0 0
3232 1 9.929743695682452 46.66125516353622 1.3928069926283175 1 -1 1
4104 1 16.9664514045 8.101852913643928 20.11024993210858 1 -1 2
4373 1 7.001252352333984 31.471566266174577 3.442283750711897 1 0 0
4552 1 11.845488437318972 30.253040202691604 2.307142222052519 2 0 0
645 1 1.267504172756327 50.34711768630544 6.216598630363177 0 -1 0
2630 1 4.607461913091887 34.79094889629807 5.553138371907755 0 1 0
3814 1 1.5535829178523017 45.410003155942086 7.423570011551751 1 -1 0
381 1 12.453028354155691 33.60435689145686 3.8449420038416986 -1 0 0
2603 1 14.416399420992095 28.69129765905315 3.4632078740622294 -1 1 1
2938 1 0.5967051409391031 24.85653263942769 17.345570434808334 1 0 0
2524 1 -0.1197408915466589 36.349793409259355 3.7846256354070107 1 -2 1
4064 1 2.394442808471279 38.24402098557707 3.7864896497709237 0 -1 0
3074 1 16.47147477829922 20.83748726206123 9.295394446425941 0 -1 0
535 1 3.0391461025069546 8.508832734493943 23.475380525364777 1 2 -1
612 1 17.045232432020445 38.64127259085877 3.020733479057759 -1 1 1
3788 1 2.3139651478597347 46.76961196784167 19.93793759518734 0 0 0
61 1 1.7326104096441242 33.49876983232585 8.338792162033961 0 -1 0
1739 1 0.5240675143304903 37.13052222860534 25.118910151537726 1 -1 -1
2328 1 6.7922209925502885 36.8074253572408 0.3406545045291728 0 -1 0
2702 1 10.78269969187963 36.6870205485512 0.916169962308799 0 -1 2
3295 1 13.109014848868181 36.65238876745148 7.785244751094591 1 0 1
2391 1 0.4425825158619989 28.324015543210702 22.11022617230519 0 0 0
4476 1 7.829665512266001 12.142922202610249 2.4877365844533155 0 1 1
2153 1 5.551452453462716 46.23379628012697 2.931306250862818 0 -1 2
2094 1 16.471309124117447 29.480195290789045 10.653742451878891 0 0 0
914 1 11.410427118721241 39.4032701260756 5.314182289282782 -1 -1 0
3275 1 14.087849774427628 39.330330498132064 2.925215456310984 1 0 1
2372 1 3.602306294252372 48.60547027166554 2.577748769164515 1 -1 1
632 1 1.414485432503264 46.8459951143951 3.5088467586057344 1 0 0
3508 1 7.0126250297847434 47.72461622953385 1.410217454799772 1 -1 1
1000 1 6.921122489859363 43.39098729719504 3.513627725626471 0 0 0
2432 1 12.838953602572015 42.45179511958094 1.3645196066453793 1 0 1
1695 1 -0.32994719879123147 11.723936647664228 16.064388949802886 1 0 -1
3059 1 16.248848477755793 46.72952317981442 1.5453818971637052 1 0 0
4527 1 -0.19575286116099408 32.91134987870062 10.538529229357623 1 -1 1
3050 1 2.6117628930009493 2.4508349392015574 18.565831340427824 1 0 0
3343 1 6.102782397029799 35.29384541429975 3.064911987437892 1 0 0
3426 1 8.261719007708534 1.9041750924662049 4.137192452468744 0 1 0
3445 1 9.316643771975706 43.878887506097364 2.916039708765588 0 0 -1
1067 1 3.700676531130105 1.2236780930630857 1.6956416150169136 0 1 0
37 1 5.468258642615785 4.274373114485882 7.8049551036654865 0 0 2
1043 1 6.855018097056025 6.1115718715305265 2.8971570593300258 1 1 -1
417 1 9.70006659915503 3.0427103486368354 6.323122917801944 0 1 0
2545 1 11.938478378497038 1.4366291449665998 5.288150840969215 1 1 1
1512 1 2.6541894925723106 33.41708879517401 12.907502137703446 1 0 2
4200 1 2.91830002892756 3.4234480458664476 8.112476971052171 1 0 1
3088 1 0.7634495541619271 19.581354984952693 24.482917027978473 1 -1 0
16 1 8.787449611165316 5.7002830224179135 4.922852872753398 0 1 -1
348 1 12.438783526291967 3.1363351288724206 3.218148050165354 0 0 0
1398 1 15.897737505612724 3.204944903472991 5.027693710149707 0 0 1
4299 1 14.02410472071844 6.695811385143544 4.311259044402027 1 1 1
1099 1 1.6605417729161722 9.754123258428018 4.033157121155858 1 1 3
2772 1 8.774082241908497 11.281029642628642 6.078605594307409 0 0 1
845 1 5.434815970802365 9.180507834349145 9.084140747454901 1 1 2
3749 1 2.2231934786145677 6.032337866068114 4.411561648720587 1 0 1
1213 1 4.953676359811685 6.6628872024239785 5.316303008529421 1 1 0
1445 1 14.039733851526055 9.357480418062037 4.144800027419815 0 0 1
1862 1 1.130170575925214 8.721550971390878 7.03057147413387 0 1 -1
4230 1 6.166806020848816 11.268377190991341 7.092195063593192 1 0 1
951 1 4.129200670071265 11.179049587789262 4.153907501166332 0 0 1
2792 1 8.536818445459973 9.413425021138577 4.30344529079843 1 0 1
3105 1 10.158122549330955 10.347523429790616 2.048763418232687 1 1 0
341 1 12.368476938963527 8.038478145089924 7.973987894210029 -1 0 1
3975 1 3.7173908500181145 18.406426669571992 1.2743397187502599 1 -1 0
739 1 14.058981725228584 18.86867840082574 23.168757488680182 0 1 0
1991 1 4.768733259841034 15.122128674073158 4.116875348726402 1 1 0
2383 1 6.079682976128662 14.248278998433847 6.642920127940512 0 1 1
2565 1 8.203046350535509 13.684634062992433 4.867776524484325 0 1 2
386 1 11.272665856652285 9.045628867885943 5.740850045787987 -1 1 0
3135 1 5.4478030919454 19.29907024881663 4.940986636065429 0 -1 1
1515 1 7.045012228243126 27.18697693473102 25.397643286759997 1 2 0
2349 1 0.7765814314537365 36.41650769977067 15.121965877900527 0 0 -1
2311 1 11.570927235733388 11.862243118728705 7.175207909879579 1 1 0
686 1 14.468156378847288 15.356886637956242 2.789843258573996 -1 1 0
1179 1 5.033198254653808 32.92732062802657 1.7393992141757624 1 0 0
1911 1 12.683507014547486 16.74605162773471 4.32367187279116 0 1 -2
301 1 17.310448515490986 26.65504076063717 17.074553560588335 0 -1 0
4079 1 4.965240747745286 22.92274346368702 8.733332426551302 1 0 0
2995 1 2.05439315733007 22.409249706568577 3.8852769895662607 1 0 3
181 1 5.904846211841541 21.961670793062368 6.042104492946235 1 1 2
3527 1 6.9784385717708455 27.275917890653705 8.216311098370692 1 0 0
3152 1 4.5159907060471705 21.510247726634805 3.139856817754751 1 0 1
3061 1 9.914930322641405 23.100546003771196 3.8521282032591735 0 -1 0
3696 1 12.97915148489229 19.946681890650765 5.560556386893076 0 0 1
823 1 2.1312378766602857 13.84924370355856 3.4861977837447027 1 -1 1
3292 1 15.92377632135397 22.965185644867287 5.855491906791801 1 1 0
2292 1 0.9159441921691338 13.832591202783288 17.861793779648355 1 0 1
2554 1 9.62153911042642 23.868585549333325 8.359114964577355 -1 1 1
2934 1 6.630096562574116 23.59240600202499 2.440201592794948 0 0 1
4415 1 2.2503747222835044 42.71052833026596 0.6691850248199799 0 -1 1
726 1 1.0298587925477782 47.31385648920734 23.417834716802368 -1 -1 0
2345 1 -0.09110416554011608 16.548535568250696 18.217009190214654 0 -1 2
3907 1 6.521973456607354 24.527056051757757 4.94209110041113 1 0 0
2980 1 5.70775755407023 27.165557783713997 3.9170635221132524 -1 -1 1
3418 1 8.487949929381422 29.301963444661087 6.470122383716207 0 0 1
3051 1 4.72847707144963 27.963882703289702 6.262007613865023 0 1 0
2755 1 9.75551721334171 28.071299383013464 2.3599742813732694 1 0 1
814 1 12.959482427542627 26.735932974961962 5.0360685921138 0 1 1
4419 1 0.9812710983946038 31.922421551042245 3.783599891008739 1 0 1
3470 1 0.6854886922222898 33.680699514020326 1.314848942625602 1 -1 -1
1019 1 7.575843423583162 31.775693008570588 7.563050671471146 -1 1 2
4375 1 13.925308997684441 33.21262352229803 6.166063793729025 1 -1 0
2125 1 9.13582904730706 48.55142733715757 22.898208702877053 0 1 1
4321 1 13.526902667984661 27.226086748526154 7.958362845578117 2 1 2
1685 1 5.585117859242607 39.009628448134855 7.823504146082899 0 -1 0
783 1 8.88315891218719 38.01718078452856 2.153518089271447 0 0 1
65 1 8.253140562520187 34.48258395416241 4.5832538196185775 0 1 -1
4173 1 16.46880730997025 3.1018051732063032 10.80485632057089 -1 -1 1
3526 1 12.574138317343815 43.735926601237445 8.85795308331002 1 1 0
2129 1 1.9737103176859532 48.06271478528463 0.22910942232829332 0 -1 1
3764 1 1.3374040439325032 22.053018518853644 1.2322191914413454 1 0 1
379 1 5.417964082536846 40.15609219355004 2.7600159665610664 0 0 0
3388 1 9.303354133805978 37.150796874741246 4.729109531143057 1 0 0
3309 1 10.396723712179023 35.94469700945118 7.668893063515448 1 -1 1
3184 1 13.228802867300917 37.6739370207171 5.337660959665149 2 0 1
400 1 12.893726240946236 41.07845601053227 7.122266304499062 1 0 0
4605 1 -0.1223207813715278 0.9330212318841783 13.580372192815567 0 0 2
2696 1 17.0242372419664 6.687259418225548 3.09054329269838 1 0 1
1778 1 1.7101263769091215 40.712113619044864 4.652116567259689 -1 -1 0
1440 1 7.983907567704934 41.57006203885798 5.7018146055088454 0 0 0
1486 1 4.4329317401830055 42.91058946575149 5.883367929883682 0 0 1
3340 1 11.464720184061775 40.348236517580496 2.701712931520403 1 0 -1
2470 1 1.5897788881999149 0.21535692040875176 3.3010955248082667 0 2 0
924 1 3.0543619891261273 47.40110009457143 7.041397704959396 0 0 -1
1988 1 5.581157420160769 0.49375058510859765 7.223256514866996 0 2 0
4582 1 3.7492336262501826 41.817822412215556 3.3913921052808282 0 -1 -1
2946 1 15.306547109588829 40.937510371733026 5.038273579232308 0 -1 2
4351 1 3.9623257421225837 3.052800226301974 3.4565897789308115 1 1 1
611 1 6.7785637208726435 49.39469505830963 4.96458683814747 1 -1 -2
3784 1 12.859150065464734 46.84288416025335 2.919201144037142 1 0 -1
2656 1 12.635828200581082 44.058489810119376 3.6095689678354606 0 0 1
2972 1 11.354188035341991 47.82339503881624 5.220150494287774 1 0 0
4427 1 11.228141479789667 46.65551881457309 22.319462217283355 1 0 1
1427 1 7.813296644994839 34.405408111493294 25.022563224922273 0 0 1
4526 1 10.392040425756832 50.0063279982864 9.113230909470168 1 -1 0
1062 1 12.145247836262373 1.6676466577677804 9.511935183970024 -1 1 0
1632 1 3.5982270452013467 1.0923190992106724 9.766950079765591 0 2 1
1251 1 14.10773455825928 1.3002564360521687 7.225669779728486 1 0 0
3694 1 14.599477732215028 4.977144212553128 6.6492378821412 -1 1 0
3997 1 9.963081603705163 42.766281004697674 0.31665607343707014 1 1 0
3710 1 1.7612119744151582 3.2663903695233873 5.4643454246907375 2 1 1
246 1 7.0257439450829775 2.4674172600434465 9.358730109486247 0 1 0
395 1 7.349917039085465 7.734866119282158 6.210459100393576 0 0 -1
1346 1 10.637129686534154 6.816274247545996 9.677751373528018 0 1 -1
3073 1 15.335036819362063 6.905780168572814 10.34527407497074 0 1 0
2684 1 2.198936379903871 5.988078928516273 9.119432259976591 0 0 0
836 1 2.168002220657492 12.689238235538012 9.98970082375034 0 1 1
1365 1 8.69179580473499 10.201902124449148 10.88719344071956 -1 0 0
941 1 11.30652438734221 6.56502198339038 4.130245772470998 0 0 -1
1965 1 8.354524195979078 14.742901170428956 9.372845184760614 0 0 -1
1397 1 15.044387495799235 8.078772464764878 7.863137263885925 0 0 1
1165 1 12.534860065123468 10.191400104871851 9.353534044852708 0 1 0
3877 1 17.021739043608576 14.57521478776673 13.056537406355089 1 -1 1
2206 1 15.194286480924736 40.48480081277055 23.820186110256493 1 0 0
3187 1 3.8229371424292964 7.634340792107327 7.351363803027753 1 -2 1
2341 1 2.6696502456235525 11.442680055585297 6.82410597604471 1 -1 2
120 1 16.315416080111152 10.779221596640214 7.586131502319802 0 0 1
4165 1 6.072402400094511 20.29392697592452 0.9003810477746854 1 0 2
2111 1 16.54110156454105 32.851162599012554 22.41736766728689 1 0 0
4439 1 13.718841222256248 16.034713869768165 0.41727621012462124 1 2 0
3855 1 4.5868206683423365 14.229559053080644 11.093421386803572 1 -1 2
753 1 14.065184669605497 11.851755574844558 6.006901139812106 1 0 0
105 1 11.11930855284695 45.059122444443666 25.173974103300562 0 -1 -1
1087 1 1.2023475944121569 20.03619128179029 9.837323957481559 0 1 0
3185 1 3.4547531226426678 14.038450571521695 7.521768091622424 0 -1 -1
2762 1 8.75826775047298 16.99720916945978 6.749712094283348 0 1 0
1635 1 12.723794543690513 16.26525071699026 7.092396257688008 0 0 1
1561 1 10.278256432976585 14.389670659940208 6.9447076337753515 0 0 0
4595 1 -0.03753044310129694 24.47847784592161 7.16526501239965 0 1 0
1237 1 5.725796599012922 18.52244330483551 8.058011928952961 0 0 1
3255 1 5.484478380370955 18.161921003935262 13.071921870623079 1 0 1
4148 1 6.2758076719325135 16.48623706257117 9.337429944176495 2 -1 0
4184 1 6.585301636155045 20.868769631609954 9.453646563797792 1 1 1
3805 1 16.168180325567647 16.52578325680858 8.391849596747486 1 1 0
2405 1 -0.010297323334120034 17.791753003780062 2.3998148364011964 0 0 1
1383 1 7.856786448519971 1.6129272826629226 23.15127563025725 0 2 -1
1755 1 6.2876339156545695 25.34885612338126 12.681804494455053 1 -1 -1
21 1 5.931143999468114 25.176722442259035 9.943928696387156 1 1 1
2415 1 10.90636909704042 30.96409486821981 6.41364393725815 0 1 1
4175 1 8.65466473455771 21.22637753013781 5.685787576192711 0 -1 0
83 1 13.812138807660926 27.131783151301043 11.488644711913471 1 0 0
2362 1 2.8269057514940372 24.94408096871288 4.049496343277578 0 0 1
3211 1 8.89834604095946 21.227734161617303 8.342300071979796 1 1 0
3412 1 9.297738966000109 24.84884559860778 10.671900206825807 2 0 0
1929 1 14.190649487253122 29.298937116147073 13.492254453707508 1 0 0
821 1 16.164154681252747 32.833584068177885 13.696301935471302 1 -1 0
3432 1 15.803824797263218 42.85100172852238 20.383558355543535 0 0 0
3929 1 0.585896560538056 29.437073950010493 7.028978832397827 1 0 0
4278 1 2.4579621607370794 27.29451417777092 8.036899924566285 2 -1 2
3416 1 10.757209535346293 27.288473909612303 10.524355503785456 1 -1 1
877 1 8.513465731727754 29.548526102549584 10.47689187597107 0 1 1
574 1 7.773199780120462 28.879304934685095 4.008875214504639 0 0 -1
52 1 10.55639394046473 27.866133851324786 7.574351547647677 0 0 -1
46 1 3.217199904666843 30.6176360716744 4.875965121903444 1 1 1
271 1 5.483992432984899 32.81144240270539 11.532559605902721 0 0 1
24 1 5.303189926504522 31.456050614096338 9.039105402727246 0 0 1
2864 1 9.671185181521775 32.49172706500806 9.44058270236629 0 0 -1
2136 1 10.050568529342762 32.37986540467926 3.8323143304248606 0 0 0
171 1 16.543321023226635 33.58590047019978 6.102433169676142 0 0 0
566 1 10.574274926864778 50.035202945620895 25.260552046661363 1 -2 -1
3652 1 1.7763829382650225 34.43055683640956 4.752241596089988 2 0 1
682 1 10.083170402667994 34.9274434325985 10.2273322642214 0 -1 0
1049 1 9.98657059314623 32.80512639066489 13.85670966209667 0 -1 3
3956 1 13.550963523897215 29.583984408891546 9.61369867254671 1 0 1
4158 1 5.235204841458025 24.787883767260166 0.35643676518642514 1 0 1
1559 1 1.2124573111262398 38.720974960118326 7.745036344151433 -1 1 1
4336 1 6.752175204880716 38.86633196136206 5.083285401849463 2 1 0
2774 1 3.8301466929238925 37.42871754507279 6.5069176834524365 1 1 0
3778 1 14.890932439488882 35.394846047288475 9.17731952736214 0 -1 0
3900 1 13.817755474512937 32.22889954479359 1.8976781440057169 1 0 0
3959 1 15.60195191602091 39.06689903376499 7.1714643905182704 1 -1 1
1047 1 1.8400677501333997 44.36491964831072 4.906892138357644 0 -1 -1
1420 1 5.479724725854184 38.390197904149055 10.450971758052505 0 0 0
2199 1 3.0274461542191933 40.83349996962687 7.323633426279743 1 -1 0
864 1 10.609039705917999 42.537933155346856 5.500519342306277 0 -1 0
1648 1 12.313248863744308 4.208146874287878 24.950443568624895 0 0 0
345 1 14.96487339793875 43.78873165489348 5.025877625786934 -1 0 0
2123 1 17.358331155804855 48.7687277053718 12.995394363268622 1 0 0
3204 1 7.001927249068117 43.475856100943766 7.396123145812169 1 1 0
2709 1 6.353821032382069 49.956124204446326 2.380443131742482 1 0 0
4340 1 14.590554335067614 45.08259120648038 7.718132097811212 0 1 1
4080 1 10.368822991072749 44.95542080611558 7.673092516005857 1 0 2
735 1 17.2047625640436 34.98515696262993 0.4040786454934747 0 0 0
2997 1 8.506466200719734 0.8497919540616363 7.485915901723221 1 1 1
2992 1 5.722615875240767 2.471698553997109 5.298475691354611 0 1 2
3199 1 9.62422131248101 49.9113842458823 4.990219087153438 0 -2 1
1143 1 9.164960428210225 45.94246149122594 5.332483913368228 0 -1 -1
1130 1 14.741522013136379 49.284307360932296 8.117255075366236 1 -1 0
1493 1 13.1952125332033 47.22291020510829 7.2081780488394305 -1 0 1
45 1 2.883204955063351 48.998492328060046 9.426152466656983 0 -1 0
3136 1 6.535126010759674 1.0734498120885205 11.369819468725872 2 1 0
3759 1 9.974999378802925 3.9324396370686783 9.241635483122096 1 0 1
2260 1 9.518754111663066 2.077361460635281 15.775932066957898 0 0 0
2912 1 14.388812615600283 3.820116047364655 12.850955790923283 0 2 0
2906 1 16.690857728907336 16.60887914831851 2.7368954275436446 -1 0 1
3084 1 6.674760472200168 5.700073778131979 10.095278562370234 1 0 0
2077 1 7.870019529306621 7.915470041908657 8.894851471748428 1 1 0
1732 1 17.051395006214086 6.186089413088057 13.009077694974303 0 1 0
2439 1 11.015608847849904 7.8850217195650245 1.768583383019917 0 0 1
661 1 0.22782069386615422 6.000519751095699 11.500698513384199 -1 0 -1
4356 1 3.2050868592254615 4.166334350740841 12.92632076780427 1 0 1
2084 1 9.403814567461604 11.030840776312903 15.132315806608032 1 -1 -2
1508 1 4.895683698700644 10.797239253086365 15.200745744410497 0 1 1
2808 1 16.909938547316216 15.559997015922995 17.431694322415648 1 1 1
549 1 1.228279293986716 10.129859284592458 9.50944222259 0 0 1
3794 1 0.8765882670236753 4.453673851052907 14.621147774195823 1 1 1
263 1 6.866868993339423 12.466532762661016 9.755230733036171 1 1 -1
935 1 3.5686173166089192 9.188232394431708 11.569763205631055 1 1 2
2092 1 5.583264059362071 8.725256464565415 13.673701194254733 0 1 1
1390 1 14.377187968965616 14.076509466569638 10.54725256027229 0 0 -1
467 1 1.260070594950688 45.20276341102859 13.702775564081547 1 -1 1
733 1 11.379419975132762 9.398950607538023 11.608379661501361 0 0 0
3779 1 0.23226953605805922 14.491226015422667 11.03320527687736 1 0 1
3242 1 14.07082352587692 46.48584592296161 23.36711870705514 1 -1 0
3723 1 2.4136479791419156 11.735741259832768 12.587159270295938 1 1 -2
2942 1 10.310896762158114 12.99796309585574 10.407779661098454 1 1 1
613 1 3.509586111972966 16.4257039364991 11.890723005148583 1 0 0
4422 1 8.213220424477468 14.627570250438946 12.714732777348933 1 0 1
1511 1 10.14993698349529 13.020365494675943 13.76193968119881 0 1 1
3415 1 15.06493806709783 11.078191433317002 10.155364698208118 1 0 1
953 1 0.333940176484512 30.31539079886901 11.578954138982779 0 1 0
2813 1 5.432839530404861 13.243044376986402 13.707073870687637 0 1 1
2112 1 10.907768524240426 16.610846071159916 9.946291067958168 0 -1 1
4103 1 14.609967249626346 14.208325067440992 7.948234428552015 0 0 1
885 1 15.065332458853586 23.329283923027006 8.46276018573603 0 0 1
4035 1 13.230784520419817 16.360384244172618 11.871492696897855 1 0 2
1537 1 16.894672969402794 46.28667960578586 4.821212047935063 0 -1 -1
3973 1 2.044253130114795 22.524547049837302 9.028307315490071 2 0 0
738 1 3.098907848940945 18.060702615649177 9.61360517019233 1 0 0
1154 1 8.529736766593992 18.219181772051932 10.536134615586874 1 0 -1
855 1 10.552655182486063 18.94701376475433 8.181438508829661 1 -1 1
3249 1 3.5697060120943376 35.64785530768546 8.91354685880899 2 0 0
1347 1 5.827417421152864 22.829284058888504 13.702043745152103 0 0 1
3428 1 6.786620504045025 20.68433539705399 12.156895334988597 1 0 0
1078 1 9.245576644921158 20.589304356636866 13.963065083467603 0 -1 1
3146 1 10.753144247653767 23.080017663706375 13.146659386150866 1 1 -1
1012 1 8.723155570697603 25.393282328460675 13.692127246479078 1 2 -1
2699 1 12.486818359311915 24.42404550229817 14.560416532080769 0 0 1
1944 1 13.168798111270448 20.1879668540955 16.135332643258092 1 -1 0
76 1 15.309177770855479 25.603941255826847 9.709996135415416 0 1 1
1392 1 16.360309146496704 30.313396072651578 2.2409532809399306 0 -1 2
1789 1 1.8978968779767782 24.299323978283972 11.581521391803015 1 0 1
3254 1 3.463466922934312 26.490154035388922 10.384474392682492 1 1 0
2151 1 16.374844085706975 25.192196230669705 12.44837320162147 0 0 -1
1284 1 16.011959924046838 33.430210322085166 3.1999870375820976 1 0 1
1388 1 10.584190999090156 30.042035986204503 14.226001766499003 1 -1 1
1433 1 12.630800799629384 31.03879371576848 12.349877955403981 0 0 1
334 1 12.294987230486925 32.021314166700634 8.784330770290016 0 0 0
2389 1 2.8164089222641926 30.803574481229283 8.308774857771885 2 0 0
2353 1 5.443415596917018 34.31060279189776 14.462494262039193 0 -1 1
2337 1 5.609797937819786 31.99072774440986 5.097546311180616 1 -1 0
4279 1 7.878327684004429 36.338323927644936 13.833117130428594 1 0 0
2429 1 11.68494574329087 34.6725424895219 12.401453605559604 1 0 1
4110 1 13.441228844793137 33.53609407681594 10.764120090683447 1 0 1
4368 1 7.64036002035021 34.437408036466806 7.536896001641243 2 0 0
1297 1 6.060538505564024 34.953902327677746 9.67333908445253 1 1 1
881 1 7.9562599612818 31.623437749787374 12.171053640574726 0 1 1
4425 1 15.365604023494791 40.738804065929024 9.91734905506231 1 0 1
3667 1 16.070051840208986 37.16977131957887 10.733681226907343 1 1 0
1373 1 17.332866913725802 20.506129884967127 20.037632126268125 0 0 0
266 1 15.816084435787182 31.187556756141294 8.06844911226548 0 0 0
3223 1 2.850003928558774 37.249879984197875 10.962353236110658 1 0 -1
2085 1 4.598690458750377 40.9440824991021 12.080791516127409 0 -1 0
1458 1 12.545711888284771 39.061909554717005 9.425329591121196 1 0 1
2014 1 9.305000005852548 38.9419244780669 7.801268385314781 0 -1 0
1323 1 13.345863190686728 39.116599679307406 15.31743760155919 0 2 1
2829 1 17.48163618728699 40.847908342124164 12.159251024040662 0 1 1
4531 1 2.8220776111143655 41.85819220943025 9.847441338479136 0 -1 1
3165 1 3.230305751451663 42.6835412981955 14.519292297289308 1 -1 -1
947 1 6.5101633151521705 43.16865868992528 10.842407510761975 0 1 2
1986 1 8.876615303677967 43.68234472845988 9.644904748830283 1 -2 1
754 1 7.8515036377863705 40.398509887152 10.743312280220335 2 -1 -1
791 1 12.59912119893046 2.667699890839243 22.474152742011892 0 -1 1
4524 1 3.654773179307746 44.62860559968871 10.016946312520119 2 -1 0
2738 1 6.975335130171448 45.27858898478136 12.782535108403074 0 0 1
3393 1 6.750003586397189 46.80344019733021 5.60745568492567 0 -1 0
1674 1 16.995292175673818 43.85042922352462 2.012742639064541 0 0 1
2949 1 6.076590453089216 48.661377390158734 9.229566135535896 0 0 0
524 1 5.397342158862911 46.21044835517237 7.978352765183173 0 0 0
4450 1 11.327082977075035 47.12000639956812 9.749716498477902 0 -2 0
4228 1 7.682547685140154 2.9819734182204227 13.680432428621508 1 0 1
519 1 13.024935391119282 46.27175193320769 12.727961754476166 -2 -1 1
458 1 12.78297058504473 6.039948997101068 11.519155842250681 0 1 1
3661 1 15.887464168383904 50.56002148514623 10.626121981259251 0 -2 0
4423 1 -0.00038481780843374613 47.44319370122553 12.600319952672907 0 -1 -1
3795 1 8.177184072149098 0.870449470332599 0.676196231697635 0 0 1
1843 1 4.766467086546417 0.5087065061843196 13.70245380167092 0 1 1
1670 1 8.110048228539057 5.360463088328164 15.782124006884684 0 1 -1
2570 1 13.439517146826093 1.6426023134801386 16.08840951105565 -1 1 1
771 1 1.0187930248019308 2.260255305742167 16.47611222831866 1 0 0
4050 1 10.14791146845218 6.842945659737664 17.39975208861542 0 2 0
2420 1 2.673389037514007 1.5337843547353658 12.19486919337053 0 1 0
2742 1 9.034080924194155 6.681060778331242 13.81155832366388 2 1 0
1881 1 8.576303903904412 4.950700415142332 11.822002560720989 1 1 -1
4032 1 13.423564464195472 9.818256656870533 15.595410509841797 1 1 0
1769 1 16.343425414164575 4.888662972503505 16.914666541764674 0 1 0
839 1 2.043189703844105 9.60716573454464 16.486928471051787 0 1 1
3687 1 3.9013575401857636 6.005446249279367 11.165346032476869 0 0 -1
781 1 5.57216033604022 6.500101318920603 15.49612920426296 1 -1 0
3138 1 15.150284452791656 0.8528599033672166 24.85743348744045 0 0 -2
1748 1 11.946170724251814 7.352687805036383 13.697134089261391 0 1 -1
1956 1 0.010596358650907134 6.244487745221449 18.382113560191392 0 0 0
3 1 4.596747832393053 13.37127160885648 19.583598105407503 -1 -2 0
4087 1 12.013198057227465 15.001778904135655 18.500612466944073 1 1 1
256 1 10.994222530120393 9.559575861533594 16.91215537832936 0 0 -1
697 1 14.599933644004242 12.493074504062541 14.43807285629538 1 0 1
4131 1 10.588270527136746 12.592736193884958 18.599633232424228 0 3 0
2723 1 17.64169870658796 19.298282188256177 22.444977128734802 1 1 0
282 1 3.3913601858845652 12.37738952431067 17.25063685844661 1 0 0
4151 1 9.989043861210147 16.794565683622487 13.32000943614709 1 1 0
2180 1 6.702296482564785 14.833557778145002 15.436897307006097 1 0 0
3259 1 8.061667406245158 13.93656965732958 17.14882757295912 1 0 0
1196 1 12.445460399019144 12.11585489340262 12.177879327492152 0 0 1
339 1 12.231060409220934 14.990621741770003 13.880233225380268 1 0 1
2871 1 1.3259238265804612 15.70113208526791 13.444183040523576 0 1 1
453 1 17.019170415695715 18.879594741989816 3.812631865519169 -1 0 1
3767 1 7.55972403362999 17.538817638634097 15.181633351408125 1 0 -1
3909 1 11.837322598835145 19.358705272889264 13.906076719571008 1 0 2
4608 1 15.143705495369344 19.04308122359499 11.592852381195174 1 -1 0
2682 1 14.512678159103793 18.89824157176586 8.011836802974067 -1 0 1
449 1 8.530166614995201 23.601586732904025 0.4572999099827718 0 -1 0
1222 1 1.209835272575117 18.547077194723062 14.476852363862353 1 0 0
3840 1 6.671257288682902 19.18269474380459 16.97190274090814 0 1 -1
3650 1 12.382670412397133 20.912134579937856 8.985224772800887 1 0 0
434 1 16.480708192527782 21.83097502096063 15.365306356963094 1 1 1
372 1 12.663704171495931 16.935426942026776 15.72250540143383 0 1 0
3781 1 12.628764339704572 21.089493001473286 11.70626434918986 -1 0 0
3698 1 2.8656846054246845 23.538181078548757 16.324295208573798 0 0 1
1785 1 3.124098608523822 22.345872973331204 13.466564109267257 1 1 0
1129 1 6.507967959480901 23.207773668517873 16.328865315978433 0 0 0
4541 1 8.444379634681894 21.510135755633858 16.73919240164586 0 1 0
3399 1 13.184520734164423 23.20961646868675 18.538200454094493 0 1 1
3329 1 14.396989865365306 23.269721183746537 13.016899307576493 1 -1 1
1657 1 1.8215936863032147 26.35575923788795 13.480976364099481 1 0 0
3468 1 6.082416852080736 28.987754646777116 9.754949278217403 0 0 1
2483 1 9.04782290924079 28.158988923534906 13.038733280947335 0 0 0
4322 1 8.925343311986339 27.814269280064575 16.444769757371148 0 1 0