LAMMPS data file via write_data, version 29 Oct 2020, timestep = 0

9216 atoms
1 atom types

0.5076567501209901 104.25147556884372 xlo xhi
-0.23712535140635932 50.45586955544489 ylo yhi
-0.23712535140635932 50.45586955544489 zlo zhi

Masses

1 18.015

Atoms # atomic

5 1 2.16759457726615 2.1215288623691633 2.4545965265693637 0 0 0
10 1 6.878690452790802 3.8391239677247855 3.713606289243636 0 0 0
265 1 0.9013132646471211 19.228226616030465 6.592610712379907 0 0 0
13 1 8.031127777611934 2.471918437355348 1.570835500752826 0 0 0
161 1 13.000077689610167 37.820176216679954 0.48110735130761384 0 0 0
21 1 14.724281722140667 1.6488309210846395 2.0733366840708 0 0 0
18 1 12.827675839939731 3.2123160952406926 3.516092121091573 0 0 0
19 1 16.53608388394668 50.27491257462589 3.788022806292235 0 -1 0
27 1 3.8681349667724136 6.598361572290096 3.441221254274066 0 0 0
8 1 5.5184888902500004 5.117885696917227 2.106251269837136 0 0 0
745 1 0.5759741633737508 44.221173394167764 19.36006648754539 0 0 0
35 1 9.509676094881433 6.738155334217461 3.539376761781785 0 0 0
16 1 11.337409534464193 5.137951798783093 2.065456143025342 0 0 0
24 1 17.663484195217027 5.127568016560103 1.9626218968697937 0 0 0
43 1 16.025821847302367 7.145166776337154 3.333447573662655 0 0 0
29 1 2.4226414675201315 8.742567171148554 2.2690638521193156 0 0 0
9 1 6.817596711736245 0.47932863632725514 0.5040972187122309 0 0 0
626 1 0.6625573466945153 16.0686843506917 22.30219942087913 0 0 0
34 1 6.6653746636157845 10.161754615569114 3.4325701635341423 0 0 0
37 1 8.025865694819768 8.58186710529047 1.811857443018012 0 0 0
218 1 0.7709465031472638 9.566499922069907 9.461769560742214 0 0 0
45 1 14.417709578854542 8.667350574319897 1.9180726120738663 0 0 0
42 1 13.058335875586572 10.284992261239035 3.37489352321446 0 0 0
89 1 12.98901798047023 19.400499192142924 0.4656106408661155 0 0 0
51 1 3.7390373291156673 13.098712780475697 3.798614211941348 0 0 0
554 1 0.9436131835688851 47.52851035099282 15.99417521606619 0 0 0
32 1 5.128098547205257 11.904017564436995 2.011529376368216 0 0 0
59 1 10.148609028499012 13.260142002747695 3.4921000706605754 0 0 0
40 1 11.367961211344706 11.519939570453001 2.0131896233906357 0 0 0
290 1 0.5384941208644167 28.54797614701011 9.555358672255892 0 0 0
48 1 17.786255549788365 11.83998096510065 2.0737078317877393 0 0 0
67 1 15.812611112612789 13.65867043766722 3.6708605660943308 0 0 0
53 1 2.6048613696952336 14.854152794201202 2.158877938850684 0 0 0
650 1 0.6696073235237914 22.15635372234484 22.587505404911596 0 0 0
58 1 6.906514971716657 16.44557962401506 3.5871763922690074 0 0 0
61 1 8.331892985793935 14.611376999695244 2.0651678011570866 0 0 0
69 1 14.615311034731015 14.93104177064019 1.913289187639735 0 0 0
66 1 12.944431039978916 16.377015724427103 3.7351093333364194 0 0 0
812 1 16.43583678667332 10.01465431648307 25.07091267220994 0 0 0
75 1 3.4028610178745424 19.42696391413433 3.3788981598800354 0 0 0
56 1 5.233981632665319 18.13748151618977 1.742153042709396 0 0 0
64 1 11.325752482855995 17.73378259920392 1.9283273590242127 0 0 0
83 1 9.673688081028766 19.238537752249986 3.4903880591762797 0 0 0
72 1 17.47889330427572 17.57838503723296 1.7155239559630782 0 0 0
91 1 16.31408491794446 19.549431399745504 3.3928424299205036 0 0 0
386 1 0.5257254159868392 3.754056051774546 15.678823097600604 0 0 0
77 1 1.7942713337490732 20.94829801315109 1.6696767291719357 0 0 0
82 1 6.765906015564683 22.638082325788293 3.485238697760354 0 0 0
85 1 8.279394314600761 20.868895960889954 1.804901765512557 0 0 0
88 1 11.21539315099089 24.04228206429699 1.55317650185013 0 0 0
93 1 14.454533048653918 21.22995757235115 2.0372499813675904 0 0 0
90 1 12.74893307475626 22.649559564532833 3.7335648838418356 0 0 0
1 1 0.686692511968857 0.777395747289634 0.7562677798791528 0 0 0
99 1 3.3938490258654475 25.745295384640244 3.3713050541245906 0 0 0
101 1 1.659201642608972 27.03255088224547 2.1083292627066346 0 0 0
80 1 5.100147692098314 24.17057790067648 1.7965429275996816 0 0 0
107 1 9.569421225788869 25.684130355600107 3.3385099386008914 0 0 0
109 1 8.588035021553795 27.491096827688096 1.5442112239579906 0 0 0
117 1 14.410639935449232 26.967176963920153 1.7712855101203873 0 0 0
49 1 0.7021689585005622 13.6441700047749 0.7984110615720839 0 0 0
96 1 17.44239182483034 24.136836950408895 2.1514104599984423 0 0 0
115 1 15.985997279021207 25.598818108644313 3.677454382367536 0 0 0
148 1 4.2024719427017745 41.36817214898207 0.7360050510908782 0 0 0
106 1 6.809057970966057 28.766707814501874 3.371509296538045 0 0 0
104 1 5.1063398668456 30.33546536096268 1.8357502852601963 0 0 0
112 1 11.422235865438266 30.25778160512017 1.6361032662746633 0 0 0
114 1 12.89509171980958 28.677989622493197 3.1621770016235935 0 0 0
120 1 17.925087857848727 29.98575020925427 1.888657454579881 0 0 0
595 1 16.286059480236354 50.23857347887703 22.090198647038278 0 -1 0
123 1 3.331803981547568 31.603745427799684 3.497470522205257 0 0 0
125 1 2.2585821736677056 33.62361914198779 1.9367548219668025 0 0 0
698 1 0.6937509890485172 34.737101128801825 22.321291963268454 0 0 0
133 1 8.382333675884517 33.14001194485333 2.166927216962356 0 0 0
649 1 0.5330843948308086 19.02560378520523 19.321683046801805 0 0 0
131 1 10.007306193242734 31.327583757524977 3.778210202430737 0 0 0
241 1 0.6789899687669727 12.943762407440559 6.5918751418262165 0 0 0
139 1 16.018770079427778 31.36884861443406 3.0989527524879517 0 0 0
128 1 5.3060914677000675 36.14567304778359 2.1270434948122934 0 0 0
130 1 6.929812719926698 34.495252543762135 3.77310462335935 0 0 0
136 1 11.121816804245274 36.46625064746314 1.7408547387358742 0 0 0
242 1 0.7895614227922532 16.013705917332402 9.943492575858652 0 0 0
141 1 14.435562380346589 33.48026888811147 2.0838225683735505 0 0 0
138 1 12.49083057164005 35.091345105612334 3.7012653828030935 0 0 0
144 1 17.791284784529452 36.360472963957776 2.2528136024750736 0 0 0
766 1 14.976849253392274 48.68291477036213 23.799462055864932 0 0 0
149 1 2.37807471651948 39.61965102870671 1.976241629266079 0 0 0
147 1 3.757305289097452 37.93041885184421 3.6297984382676463 0 0 0
361 1 0.8369222397049413 44.36940715745283 6.876788931020607 0 0 0
157 1 8.146782335608215 39.25240142930288 1.7612683078868698 0 0 0
155 1 9.577528750279498 37.84880643628611 3.439447375425947 0 0 0
165 1 14.373214176630519 39.513342087298994 2.0647792247015593 0 0 0
788 1 16.036350389635473 3.8348219279179374 24.90277637907838 0 0 0
587 1 10.236386993093728 50.23409603943921 22.24668113082097 0 -1 0
433 1 0.6148550315561869 12.618766936161009 13.08882758354531 0 0 0
152 1 5.440511386394148 42.803000532762184 2.333946983442198 0 0 0
154 1 6.738237343718837 41.05570780681731 3.465852262111198 0 0 0
160 1 11.294325574438705 42.77721425961293 2.2476517279792994 0 0 0
179 1 9.696258262056384 44.20218929222911 3.6407812851524435 0 0 0
162 1 12.604733422227783 40.946785964025594 3.427850146623324 0 0 0
168 1 17.637772146653596 43.045871416059086 2.1863804540249117 0 0 0
337 1 0.9548200513978709 37.88343326367088 6.936716111927723 0 0 0
171 1 4.0455494729856145 44.40915231209162 3.6832455721745148 0 0 0
173 1 2.5346943395102 45.98377165186318 2.217016002342409 0 0 0
314 1 0.9005124298913056 34.67314003022473 10.281414578578802 0 0 0
178 1 7.078640347764321 47.50096565219427 3.721289638037611 0 0 0
181 1 8.576313480330299 45.862886905263764 2.1317846756129293 0 0 0
189 1 14.478230349363809 45.66097466153634 2.3956282631220356 0 0 0
44 1 16.138256996419017 10.408771493166729 0.5124558411434504 0 0 0
187 1 16.07979534700945 44.415843901770884 4.021836517198528 0 0 0
3 1 3.9423608404842914 50.33229748275404 3.5193364620922902 0 -1 0
176 1 5.664395629132285 48.79936878539998 2.048996589315764 0 0 0
11 1 9.714173141115358 0.9126587981825556 3.6029042822062283 0 0 0
184 1 11.352627118642253 49.22737139454286 2.326965832591706 0 0 0
186 1 12.859182668646843 47.44944814694567 3.5713398602539748 0 0 0
192 1 17.96109009943147 48.908687816054154 1.9309812567644637 0 0 0
196 1 3.4955998659586474 3.7668428868050983 7.015478073072052 0 0 0
7 1 4.905838152740212 2.4704097471841933 5.0349066631518475 0 0 0
15 1 11.076097817193789 2.258916753250399 5.194371776890963 0 0 0
204 1 9.846458964998714 4.039122029962975 6.824170483637826 0 0 0
209 1 12.710021626128663 50.344737328432856 6.707674673698969 0 -1 0
23 1 17.779350072253745 2.277089909220282 5.218520072185037 0 0 0
170 1 0.5106673482560562 47.334741210167664 3.60126976047691 0 0 0
6 1 1.957705067275341 5.381440417606495 5.085273264453507 0 0 0
164 1 16.019604029950777 41.26173011869831 0.6087661190617629 0 0 0
225 1 6.669511561517836 6.811882597545873 6.824574057694109 0 0 0
14 1 8.046460256194187 5.377504717300671 5.451708405928032 0 0 0
22 1 14.241899514441572 5.05296419708585 4.766967466857779 0 0 0
233 1 12.857173766664738 6.778611236856805 6.525585687478132 0 0 0
212 1 16.09694664933672 3.69990077540318 6.593112659232051 0 0 0
220 1 3.5682986516355313 9.973529090255834 6.85236710668114 0 0 0
31 1 5.131305301071667 8.271898234387958 5.01382855686683 0 0 0
228 1 9.788032619844415 10.080849812795828 6.78904601195592 0 0 0
39 1 11.309372562580908 8.416890665993746 5.003203590778129 0 0 0
47 1 17.54708116514263 8.50777051211524 4.847413009614799 0 0 0
236 1 16.51760217985271 10.142258620811557 6.666040448758794 0 0 0
338 1 0.9361760925201914 41.18384273058409 10.364809147370355 0 0 0
30 1 2.2261559481529014 11.566321395355779 5.012032964293421 0 0 0
249 1 7.066943836459994 13.048804562370682 6.589340254534088 0 0 0
38 1 8.624352312380617 11.544314059541051 5.013165758355859 0 0 0
46 1 14.50434176217483 11.529355285590047 5.407172916495494 0 0 0
257 1 12.755824060593833 13.270287678438413 7.050844709078321 0 0 0
146 1 0.8030037622440206 40.82292774783646 3.881379024282326 0 0 0
244 1 3.8011490464854814 16.09680613506754 6.446337156229096 0 0 0
55 1 5.500236648912793 14.786089089039331 5.1185267983126055 0 0 0
252 1 9.668911017049115 16.299426249063117 6.725744831423461 0 0 0
63 1 11.336404987373244 14.754657593042815 5.226515978998032 0 0 0
71 1 17.75085612446748 14.87022543623533 5.257646679921283 0 0 0
260 1 16.164052232728313 16.274326291775907 6.900179027435608 0 0 0
52 1 3.8812421693875434 16.49334507525264 0.4835755017961846 0 0 0
54 1 2.139620964956517 17.551888422546103 4.845054093515449 0 0 0
273 1 7.020362781560998 19.281812412657484 6.727213329978388 0 0 0
62 1 8.519279004648322 17.715724464378038 5.18882242318664 0 0 0
70 1 14.716291812368636 18.03409972381757 5.241483494511518 0 0 0
281 1 13.154375898494767 19.31161824927342 6.739903056280324 0 0 0
268 1 3.588505404724583 22.50651343418558 6.5861528763662935 0 0 0
79 1 5.178957377714807 20.99715303516882 5.229604768356406 0 0 0
87 1 11.257980081026144 20.561167140735396 5.5228067139537975 0 0 0
276 1 10.009851147035475 22.251197680625822 6.818490309571714 0 0 0
95 1 18.146715030328675 20.981606908962398 5.462723403361324 0 0 0
284 1 16.109742023553586 22.513859202183177 6.789893833426166 0 0 0
78 1 2.0629171272573537 24.009793593263655 5.039192898779308 0 0 0
297 1 6.437343354040584 25.34373715980637 6.4955697210583985 0 0 0
103 1 5.370558167259014 27.236244317018798 5.037611054025885 0 0 0
86 1 8.611968351826635 23.849274392509493 5.170774359592048 0 0 0
94 1 14.609013771661342 24.0006728203382 5.034992460400513 0 0 0
305 1 12.66328215718849 25.6399482690624 6.714535940987592 0 0 0
292 1 3.8559502498326323 28.5956806915228 6.682299315492962 0 0 0
102 1 2.1280042861445847 30.210353287452385 5.358832902031388 0 0 0
110 1 8.074482871636963 29.97702465397541 5.337256156487474 0 0 0
111 1 11.28056673877134 27.032414036063802 4.735349230274662 0 0 0
300 1 9.896345707615556 28.65939420947141 6.761602121673393 0 0 0
118 1 14.465882255875202 29.91291021353695 4.955588586799211 0 0 0
119 1 17.7434179293514 27.068012248729985 5.115157141762411 0 0 0
308 1 15.91274620046348 28.519579492121288 6.640268517762116 0 0 0
321 1 6.721738965144887 31.51901563153301 6.752597679400592 0 0 0
127 1 5.18220846368311 33.14131451178581 5.219919436592618 0 0 0
135 1 11.523080327250595 33.02138062170407 5.256000744833422 0 0 0
329 1 13.255457571182953 31.63124515149363 6.727029497209718 0 0 0
143 1 17.46849392428111 32.747869252599855 5.012341418460911 0 0 0
126 1 2.2440482673803395 36.54940428735708 4.922418586183293 0 0 0
316 1 3.823045675028373 34.956826394554355 6.7201866609304615 0 0 0
134 1 8.159052059000711 36.20410060127821 5.196527873002628 0 0 0
324 1 9.578121646405638 34.358983530430805 6.760714776759776 0 0 0
142 1 14.313163354851563 36.14381206617894 5.475509888535569 0 0 0
332 1 15.841353218624919 34.44435624652077 6.665406850184177 0 0 0
673 1 0.5604652081333393 25.41865656551905 19.49985696336939 0 0 0
151 1 5.4221554952253985 39.49624367267835 4.98254501243325 0 0 0
345 1 6.9515398622981115 37.92094860279212 6.7992487628971485 0 0 0
159 1 11.085969701553452 39.37634739725051 4.948244558817542 0 0 0
353 1 12.577575475698875 38.493868811640866 6.630103807868521 0 0 0
163 1 15.620936938406786 37.56519498444473 3.2919077349811454 0 0 0
167 1 17.152034551873914 39.01880854183348 4.853829475350239 0 0 0
340 1 3.801159024846593 41.15440948920883 6.818367238223301 0 0 0
150 1 2.3390218468363626 42.59482746746741 4.7677943966322776 0 0 0
158 1 8.098703840424431 42.61275036906558 5.172052559893125 0 0 0
348 1 10.13469990828876 41.33064858102303 6.405764395790697 0 0 0
166 1 14.144003283377993 42.50364025841863 4.875949139836923 0 0 0
356 1 16.08514154033704 41.36428011768264 6.267115573712765 0 0 0
364 1 3.5124783706466327 47.248178831257476 6.841707124209267 0 0 0
369 1 6.723866788974858 44.181785423266575 6.67256507834786 0 0 0
175 1 5.600111931929021 46.00757603237216 5.407961139063088 0 0 0
183 1 11.6061561357933 45.767937838253914 5.232877727315649 0 0 0
377 1 12.858524623584215 44.24097723818737 6.693997060183797 0 0 0
191 1 17.971870971555703 46.06269911576169 5.405734271409228 0 0 0
25 1 0.7709999233020641 6.888428049778054 0.8309198596754162 0 0 0
457 1 1.006227436380354 19.2219217297894 13.158823886846012 0 0 0
174 1 2.1273310027027854 49.01938119937098 5.068099242732051 0 0 0
201 1 6.2740094757159355 0.929361111948269 6.614159527386365 0 0 0
182 1 8.109119543168338 49.563429084902765 5.0469598406196905 0 0 0
372 1 9.766332598698712 47.62499180637944 6.339853175527381 0 0 0
190 1 14.620928875755784 48.949780189207246 4.884894202594388 0 0 0
380 1 15.83643236306008 47.15193175123777 6.568671941782697 0 0 0
754 1 7.0035778549546155 47.38533422698066 22.352890868257518 0 0 0
197 1 2.063100854526589 2.0300110336410544 8.28837649585614 0 0 0
202 1 6.7688771803859815 3.479847536686186 9.943697007982747 0 0 0
205 1 8.407483704449712 1.8414898617824857 8.181704690201887 0 0 0
213 1 14.491734826342075 1.6122461460936277 8.237054274617032 0 0 0
758 1 8.76949405158603 48.729241865003885 23.701371860693225 0 0 0
219 1 3.8411466876442586 6.623593670453093 9.686116557031788 0 0 0
198 1 2.2000715747492894 4.901456906132505 11.545419089289163 0 0 0
200 1 5.224149651683173 5.05364395758802 8.467615166857565 0 0 0
208 1 11.481169256972137 5.254237089975471 8.201153220651197 0 0 0
227 1 10.043307016917414 6.694718421006595 9.890757468135629 0 0 0
210 1 12.819095135917465 3.337697198028955 9.683735835327548 0 0 0
216 1 17.728779215941998 5.222167858555565 8.187318859028327 0 0 0
553 1 0.5077233959795677 44.31875528383917 13.184392696822087 0 0 0
221 1 2.148749864940513 8.029127270024455 8.114473638220005 0 0 0
226 1 7.130181712325171 9.838925485108575 10.177846505975367 0 0 0
223 1 5.220846771929578 8.24207812952444 11.145669304976625 0 0 0
229 1 8.560634159945705 8.21413939665553 8.339343976326273 0 0 0
237 1 14.776774900965803 8.202697551889925 8.012137916517387 0 0 0
234 1 12.969271532421898 9.634256900103278 9.711419041440141 0 0 0
235 1 16.11222849968908 6.686984258652696 9.731416078494696 0 0 0
243 1 3.976116184071791 12.82692618388997 9.53738844149097 0 0 0
224 1 5.605772851531564 11.240131037683382 8.052852968103348 0 0 0
251 1 9.689016643555636 13.169880804369074 9.995322819966297 0 0 0
232 1 11.39005032482115 11.706269923201411 8.606522486409006 0 0 0
240 1 17.967873430704138 11.351555153797001 8.10688304711857 0 0 0
259 1 16.42001040413501 12.881293331278545 9.64175316111477 0 0 0
530 1 0.6180467874897033 41.063163244768546 16.426736164178422 0 0 0
245 1 2.234497559262124 14.687350353875447 8.208027687791473 0 0 0
250 1 6.974012151822082 16.367500003789182 9.670730219155232 0 0 0
253 1 8.250586548177896 14.618056993745915 8.119938729529423 0 0 0
261 1 14.846035508575069 14.566061152475664 8.204636779104895 0 0 0
258 1 13.201993155638917 16.148349693726942 9.840899046385609 0 0 0
267 1 3.740172410837138 19.580238394312225 9.848619622840426 0 0 0
246 1 2.3717088667075465 17.810497523405957 11.509903031176103 0 0 0
248 1 5.3469101980629485 17.888388278544653 7.896009923805385 0 0 0
275 1 10.073733351218015 19.52619989028404 9.712677038492398 0 0 0
256 1 11.401804727187187 17.448682852396857 8.152746133264474 0 0 0
254 1 8.371662895004794 18.028213994359422 11.15848922814183 0 0 0
264 1 18.038627412693064 17.617112307073196 8.665793738773734 0 0 0
283 1 16.380604629021498 19.201875573983305 10.062358749939328 0 0 0
269 1 2.334095641710566 21.099492460295355 8.329020980862953 0 0 0
274 1 6.594500947950767 22.373756165924338 9.702944390671897 0 0 0
277 1 8.303050729987792 20.84079922081808 8.366202468704298 0 0 0
285 1 14.84223623288637 20.728721356457275 8.229537836809916 0 0 0
282 1 13.220537087987802 22.426335317303955 9.83248452400577 0 0 0
291 1 3.498607835822997 25.3787015214233 9.906952287071924 0 0 0
272 1 5.012704499016658 24.067367162250058 8.29907138031006 0 0 0
280 1 11.678152115126334 23.956898835382034 8.207165651781967 0 0 0
299 1 9.553610849282583 25.522094239019907 9.806498236120568 0 0 0
309 1 14.39977242719587 26.896987359195567 8.10868903838593 0 0 0
288 1 17.78296144774864 23.811593493533977 8.356713158104409 0 0 0
307 1 15.992712983259592 25.506539159888945 10.06648399578935 0 0 0
156 1 9.818319188928044 41.07196512281291 0.5119567914564973 0 0 0
293 1 2.3265537840521127 26.792902319454868 8.033750056368223 0 0 0
298 1 6.64929847306319 28.630496189243967 9.623671368185299 0 0 0
296 1 5.076442758176352 30.256009916235495 8.103575642420097 0 0 0
301 1 8.13528638114785 27.099293005751246 7.989722638154529 0 0 0
304 1 11.521751780573345 29.791000889942246 8.378705418152133 0 0 0
306 1 13.066768576335356 28.340701812300814 10.092665635640286 0 0 0
312 1 17.32539883967027 30.28572359456563 7.844211803042426 0 0 0
140 1 16.082641725914073 34.824700908998324 0.5791986519160224 0 0 0
317 1 2.3516546016922506 33.605485747938175 8.484038908400892 0 0 0
315 1 3.7910206998344895 31.920548764931162 9.950207701800666 0 0 0
325 1 8.236786986047257 32.774464505801504 8.322054911027903 0 0 0
323 1 10.035072459613856 31.836576868968137 9.792330392207468 0 0 0
333 1 14.44831125432133 33.05972809958004 8.410420236023903 0 0 0
331 1 16.164411702796876 31.6869832953436 9.92946908053341 0 0 0
318 1 2.14473295989594 36.488868754146196 11.846137110000774 0 0 0
320 1 5.471502825069643 36.50559621456337 8.349936330110735 0 0 0
322 1 6.9189890211000336 34.72075332509601 9.872274145868971 0 0 0
328 1 11.689508674305468 36.014677032949166 7.868619226984708 0 0 0
330 1 13.046294669098772 34.865372822887295 9.67457249671726 0 0 0
336 1 17.365078796250877 35.66613080790128 8.232496503070921 0 0 0
341 1 2.3044410253757346 39.71034370209924 8.626136492807628 0 0 0
339 1 3.8698558397021285 38.030155376032965 10.00686126265075 0 0 0
349 1 8.784484908863238 39.56504508837884 7.9528061257557585 0 0 0
347 1 10.07075724066109 37.774945791158956 9.542737641507502 0 0 0
357 1 14.55774193056693 39.783317887110826 7.764124908821555 0 0 0
355 1 15.843369144614995 37.76646089527593 9.554863031786098 0 0 0
359 1 17.43796643707594 39.34943536144948 10.957876421839124 0 0 0
344 1 5.041635792616087 42.87643389650502 8.34939131233686 0 0 0
346 1 7.0381782303682305 41.1797689457654 9.556669675938931 0 0 0
352 1 11.234107812401083 42.49540715513463 8.16497095980901 0 0 0
371 1 10.004442470219477 44.245483903477606 9.615093948509426 0 0 0
354 1 12.95905317540188 41.05098280788428 9.57564719620124 0 0 0
360 1 17.60436463725873 42.67413133214751 8.169942170565054 0 0 0
363 1 3.759955976426577 44.373328437798705 10.015423390690751 0 0 0
365 1 2.168509066683293 45.85919103752589 8.516154148785837 0 0 0
373 1 8.241017589882606 46.066390049870805 7.755736676386464 0 0 0
381 1 14.329379314766548 45.79545487169227 8.114596383673177 0 0 0
378 1 13.030660815023177 47.12675101830084 9.840753002570972 0 0 0
379 1 16.153786293999573 44.38713497643708 9.669930925051071 0 0 0
193 1 0.6009517479031729 0.5643118181677049 6.701729912977023 0 0 0
577 1 0.7870130064533855 0.5089454399275979 19.11644769142214 0 0 0
370 1 6.863337055093945 47.53507415974789 9.730743981552015 0 0 0
195 1 3.6544437111086823 50.44932004838142 9.669605273030804 0 -1 0
368 1 5.028188871704997 48.80142733928474 8.248623368516451 0 0 0
203 1 10.124853305482263 50.27055868635075 9.707874387985179 0 -1 0
376 1 11.377166900098032 48.645063525210844 8.070330681931766 0 0 0
211 1 15.858561661558873 49.89709377862219 9.562041873216861 0 -1 0
384 1 17.61873494161455 48.51191814218514 7.859759865372064 0 0 0
362 1 0.5347419679160195 47.54982147584238 9.936015550835801 0 0 0
388 1 3.686178928598381 3.299162421189954 12.895107620334501 0 0 0
389 1 2.2254186408929653 2.134990357113246 14.409981269734839 0 0 0
199 1 4.96494187098954 1.8596718045379719 11.280445755175856 0 0 0
207 1 11.500044914797366 1.9125970693662988 11.494531821438676 0 0 0
397 1 8.008626519364832 1.8543808800168096 14.404214915314565 0 0 0
396 1 9.471277314397437 3.431450596331972 13.070576769130573 0 0 0
405 1 14.471628635378785 2.04690309082339 14.26213657819434 0 0 0
215 1 17.347444145629797 1.3301319472025686 11.17663923526522 0 0 0
404 1 16.08439896192572 3.4334632075665796 12.741397318300729 0 0 0
2305 1 19.122557992707005 1.255955466602908 24.999576958932117 0 0 0
392 1 5.455951391688933 5.220729813997141 14.491846871297595 0 0 0
417 1 6.785864391558815 6.714490464773052 12.652595326403022 0 0 0
206 1 8.279866464117474 5.0464184823335545 11.392343645302134 0 0 0
400 1 11.310474783578075 4.848034276601695 14.377868262291466 0 0 0
214 1 14.468822354550923 5.059229012279152 11.268762343706115 0 0 0
425 1 12.718796660519601 6.6284428943312745 12.818521805017955 0 0 0
408 1 17.37352904245112 5.057879412060804 14.307017750133156 0 0 0
412 1 3.680606099078894 9.655665299278317 12.888277433709888 0 0 0
413 1 2.354860134212293 8.114326709049138 14.61828607005557 0 0 0
231 1 11.443914334386532 8.095624192948478 11.399370262612413 0 0 0
420 1 10.001872216560088 9.612606927306553 12.856790643404318 0 0 0
421 1 8.321131133042716 8.07767344247036 14.460973439817794 0 0 0
429 1 14.299317026835197 8.315510911373803 13.942854152005411 0 0 0
239 1 17.659602994178528 8.206981652270649 11.593757626437863 0 0 0
428 1 16.18320637998853 9.67851404224496 13.04127161808306 0 0 0
222 1 2.3979105104353504 11.244346074670645 11.420292781860947 0 0 0
441 1 6.8610350860879326 13.123167386924836 12.945676570312216 0 0 0
416 1 5.5403060838125215 11.229826242788711 14.303470578868055 0 0 0
230 1 8.511536000795125 11.49862747211939 11.670398572606794 0 0 0
424 1 11.7417592702489 11.353285761245715 14.237859863067811 0 0 0
238 1 14.786985684982232 11.28931503093049 11.291648051393105 0 0 0
449 1 12.968422732013876 12.636775822760592 12.541095077530121 0 0 0
436 1 4.134527850811384 16.094682644359455 12.716531538796591 0 0 0
437 1 2.4086504985350805 14.649913063768608 14.275730227392826 0 0 0
247 1 5.459623853964938 14.588291354737825 11.062066797447539 0 0 0
255 1 11.442004194680807 14.84553845198331 11.34302544539554 0 0 0
444 1 9.641238821349958 16.371407697342327 12.982572463861317 0 0 0
445 1 8.236136804083156 14.923568316626946 14.702069843957034 0 0 0
453 1 14.655591111636232 14.130929019808725 13.871267483742214 0 0 0
263 1 17.996044376728136 14.3112528871422 11.455649010997044 0 0 0
452 1 16.521766853559882 16.009267458096964 12.97860909692732 0 0 0
465 1 6.718064363911959 19.161884838034304 13.115350238153372 0 0 0
440 1 5.469412873458584 17.393018996475913 14.489209697876959 0 0 0
262 1 14.773186030157074 17.529375202486285 11.433285541573035 0 0 0
473 1 13.443408256176376 19.182214446096964 12.942595403901525 0 0 0
477 1 14.357181072753534 20.88034660113509 14.782611620445293 0 0 0
456 1 18.255387858836613 17.38652881478848 14.630021421967534 0 0 0
1850 1 18.994024087440113 34.425473805416445 9.689013307175362 0 0 0
461 1 2.2909279748470177 21.025448740689825 14.916478595407376 0 0 0
460 1 3.7498355859570744 22.48374542523728 13.3005882525997 0 0 0
271 1 5.049629484589098 21.02565546938903 11.612735672311496 0 0 0
469 1 8.295567101107103 20.77792194815888 14.910366204129579 0 0 0
468 1 9.601692207642706 22.372415845936295 13.034841249228446 0 0 0
279 1 11.485239543677618 20.786671364603148 11.5205761130393 0 0 0
286 1 14.342612970869022 24.13265542136776 11.321152877859001 0 0 0
287 1 17.492663647710796 20.940383728802384 11.65575383647113 0 0 0
476 1 15.78152600878498 22.71483204475133 13.055868030963326 0 0 0
480 1 17.452505229331667 24.277638617074995 14.683961332880415 0 0 0
2017 1 19.01847447943606 25.361221408300924 12.947894765114581 0 0 0
270 1 1.96334984110989 23.814057422361802 11.429079914110844 0 0 0
489 1 7.0497888934936555 25.52570990883069 13.45889905283124 0 0 0
278 1 8.144015059685021 24.035645005992706 11.495224083144803 0 0 0
472 1 11.893660944658965 23.909402588820345 14.571550006595961 0 0 0
497 1 13.049765029945362 25.934463054089168 13.25469271104259 0 0 0
311 1 17.49066337570697 27.150643560017592 11.628960327320788 0 0 0
172 1 4.229483909342672 47.220620705442485 0.5827680595099755 0 0 0
485 1 1.7462518935417064 27.03333376169012 14.46028051797405 0 0 0
484 1 3.0264246566254847 28.424165231903668 12.72103607133765 0 0 0
294 1 1.5530091972745712 30.677414282498457 11.27972989965526 0 0 0
295 1 5.156062568621325 26.92301879826273 11.540626305968395 0 0 0
493 1 8.492819894938641 27.190952768498146 14.439431694166455 0 0 0
303 1 11.225535526339769 27.195819307689035 11.46789236200939 0 0 0
302 1 8.316323821198221 30.281708367635932 11.357299355016757 0 0 0
492 1 9.97624006888431 28.874122875092382 12.970616751372276 0 0 0
501 1 14.519386788789488 27.436145225590685 14.6302826113816 0 0 0
310 1 14.723791517893853 29.995943362664004 11.450504258456293 0 0 0
500 1 16.020599353822675 28.574347405962854 13.042915504092834 0 0 0
504 1 17.57249210754428 30.135058847075474 14.480209404952232 0 0 0
509 1 2.4999524897245617 33.16996915498221 15.192309201889312 0 0 0
488 1 4.786598665989095 29.81221208446571 14.509016461393596 0 0 0
319 1 5.4155190953884915 33.400754693274706 11.725001362304585 0 0 0
513 1 6.7111525087659345 31.563306017030786 13.402931754202966 0 0 0
496 1 11.312906710537526 30.30437835025834 14.474173965473609 0 0 0
327 1 11.58550811558485 33.203407616878295 11.379862943723706 0 0 0
517 1 8.085704436539448 33.23327927301747 14.631873546540076 0 0 0
521 1 13.18394619976657 31.610291767427555 13.060875483919242 0 0 0
525 1 14.495926569797485 33.0364403747695 14.716410616448387 0 0 0
335 1 17.454842087704684 33.268354977484435 11.491259187303447 0 0 0
508 1 3.804239076405605 35.018080428312345 13.554762989580222 0 0 0
512 1 5.453745957811487 36.4918508963588 14.831790669767946 0 0 0
326 1 8.551438571770138 36.70849799883139 11.521023069048244 0 0 0
516 1 9.77580627583137 34.62503736925683 12.876375484422288 0 0 0
520 1 11.333331331934193 36.183627682604765 14.562827901013762 0 0 0
334 1 14.480413597583295 36.06800946987542 11.558190060455138 0 0 0
524 1 16.10511742849833 34.574646954274215 13.289779072107878 0 0 0
528 1 17.34216224578609 36.244084584366234 14.783391991924766 0 0 0
533 1 2.257418726343568 39.65379807808104 14.717022939706277 0 0 0
343 1 5.662149193141373 39.57475144642042 11.502225099207628 0 0 0
537 1 7.056448616801187 37.89540118386958 13.254495492399101 0 0 0
351 1 11.572649403974554 39.37879403235864 11.042069355659308 0 0 0
541 1 8.53588494211002 39.31594053322837 14.784312564646552 0 0 0
545 1 12.825627573066207 37.567998331848216 12.804307030814151 0 0 0
342 1 2.2270316639231806 42.85707126258063 11.849622438804223 0 0 0
532 1 3.856103094895792 41.000051237376226 13.210043471135627 0 0 0
536 1 5.2003329505635785 42.67677939826872 14.899449691582394 0 0 0
350 1 8.54535222890508 42.49038028853194 11.465096831692817 0 0 0
540 1 9.824573937022471 40.760899358450686 13.074922556014407 0 0 0
544 1 11.562045098456007 42.254668824332725 14.547571411288946 0 0 0
358 1 14.460368126742665 42.28815104232433 11.29345856480167 0 0 0
548 1 16.122412703604624 40.635639920478255 12.921015423107306 0 0 0
552 1 17.447746438218424 42.14133709523743 14.681157122245839 0 0 0
557 1 2.4907709981783643 45.88676620503034 14.689558082507187 0 0 0
556 1 3.780835090204395 47.462068802051434 12.933669740066579 0 0 0
367 1 5.540943945468213 46.130521929045216 11.65411884154244 0 0 0
561 1 6.819003105863302 43.99943295766579 13.170054257040764 0 0 0
375 1 11.17047401864236 45.568087444329265 11.503256360507692 0 0 0
565 1 8.544232841510064 45.604379756190156 14.556337644830709 0 0 0
569 1 12.857339307863393 43.773460132310504 12.756580987785949 0 0 0
383 1 17.46401474347473 45.964363197146625 11.470679180489192 0 0 0
2089 1 18.957028352363753 44.2369896247463 13.099452162072414 0 0 0
366 1 2.0866566709021996 48.947651757815024 11.366526967090842 0 0 0
393 1 6.441242540693056 49.91161679449627 12.859042412170329 0 -1 0
560 1 5.170657605333878 48.694363883890674 14.795178492832436 0 0 0
374 1 8.243767292245408 48.7510666821081 11.416396426660532 0 0 0
564 1 9.967397447284444 47.41771340169352 12.809874187890898 0 0 0
568 1 11.167161501723303 48.89515048945326 14.50089979751341 0 0 0
401 1 12.885814499759396 50.34178596738593 13.092726697848766 0 -1 0