LAMMPS data file via write_data, version 29 Oct 2020, timestep = 100000

8508 atoms
1 atom types

0.5406172299126624 104.21851508905121 xlo xhi
-0.22101966479169022 50.43976386883038 ylo yhi
-0.22101966479169022 50.43976386883038 zlo zhi

Masses

1 18.015

Atoms # atomic

207 1 2.149817847191076 2.6399668140956525 2.8099257117989023 0 1 0
111 1 5.684634949894116 2.4200942005461616 -0.20725854159917717 0 1 0
105 1 7.097981028298779 1.1225160994372416 1.463971897671226 0 1 0
2172 1 32.24394146282491 42.136455273267956 23.11891540702724 0 0 0
209 1 8.127805435994336 3.1836690003933716 2.7887997420977455 0 1 0
113 1 11.369252019938505 2.8478248480138673 0.07053407429516112 0 1 0
114 1 12.874850273512555 1.0710313294739027 1.3141174010654229 0 1 0
211 1 14.635477030788559 2.5704100298477184 2.626837083917506 0 1 0
921 1 19.694887526969765 1.0713012765660417 1.1128850090146172 0 1 0
2249 1 20.99235384932442 37.46453933968228 25.01592469674094 0 0 0
91 1 14.387919734686438 43.80075156871999 -0.19148593482489024 0 0 0
847 1 26.138452908835685 0.6994779916206717 1.547359038991989 0 1 0
852 1 32.06166728369383 1.2872611214681213 1.5607623206460888 0 1 0
110 1 3.963694377624425 3.952048843424005 1.2621470469341818 0 0 0
1 1 2.190055837449848 6.43269787217647 0.1980836690989073 0 0 0
112 1 9.731839149821457 5.224595948930642 1.3456617663334443 0 0 0
8 1 16.549415110035685 3.89470039884909 1.530662662296059 0 0 0
2262 1 21.30865890939123 43.62888836528742 24.880249848942658 0 0 0
751 1 22.5863154098746 3.950721189100366 1.1437548395934158 0 0 0
857 1 24.129557324138215 6.325424135670016 2.7053274391829243 0 0 0
849 1 28.633756548507165 3.994103756547249 1.3461964001911888 0 0 0
859 1 30.318788951061006 6.436018764538191 2.557741623766353 0 0 0
854 1 34.84782924211918 4.847272515042055 1.4044068477539742 0 0 0
755 1 33.62491873500803 6.475816959873306 -0.1362690525253447 0 0 0
117 1 4.926559476548592 6.781357070890463 2.7767542234677127 0 0 0
2 1 6.898158185607307 8.1492015822197 1.4562934310355031 0 0 0
10 1 5.538820923159434 9.427150759867855 -0.1500402418815423 0 0 0
7 1 12.843363464893466 7.522791996370058 1.2589047674543006 0 0 0
127 1 14.256688512539325 9.36227051249438 2.508985281258257 0 0 0
8444 1 0.5874872762804172 0.9297156283140926 19.247984656386002 1 2 -4
2229 1 26.79744820210026 24.585822927880606 25.103677415032443 0 0 0
839 1 19.301567154669147 7.7334760436202865 1.1194964649006207 0 0 0
862 1 20.447040264948487 9.739505250930682 2.326308734855955 0 0 0
753 1 25.488095785707735 7.9113436125332885 1.4349168007064175 0 0 0
764 1 31.828479423467524 8.162928232445692 1.1210062536434517 0 0 0
9 1 3.8895156685616437 10.906685910371477 1.1840814751278044 0 0 0
131 1 5.151883358409286 12.579159172799455 2.7556895106453783 0 0 0
12 1 9.527472045222718 11.04639084446232 1.2821746126043108 0 0 0
133 1 11.326024948713027 12.724059473227483 2.7450712958788523 0 0 0
15 1 16.039477304400076 11.453143663127861 1.0763762761333435 0 0 0
134 1 17.559769982733137 12.814881572422738 2.5893797072602305 0 0 0
766 1 21.145422784974492 12.788240679271606 -0.12801878949439385 0 0 0
758 1 22.644297090421553 11.130325465916123 1.2743742853210962 0 0 0
31 1 17.798792391047705 16.14497467024325 -0.18256300115958235 0 0 0
762 1 28.88659584414936 11.0385709877074 1.4232679111215867 0 0 0
765 1 35.0399982882752 11.042051342965859 1.353774503029018 0 0 0
30 1 0.5619905450348008 32.84235324783485 7.294333844244557 0 0 0
16 1 2.4449406656556683 13.04952903682217 0.01266888593247334 0 0 0
137 1 2.2485799972350096 15.871488989427363 2.7538950590281543 0 0 0
2846 1 32.07204687630373 48.3178215238434 23.29976372398144 0 0 0
19 1 6.684977941678978 14.467814700305269 1.1754358814694976 0 0 0
139 1 8.642710815691196 15.84949563752614 2.7550271332902367 0 0 0
23 1 13.073876934401353 14.59097403823685 1.1177958900750842 0 0 0
1452 1 11.393098783295141 28.161016096716576 25.080012729602227 0 0 0
2252 1 27.155946480611274 37.442120005404966 25.04579627687902 0 0 0
845 1 19.436330380682733 14.264689032747153 1.0626874302478313 0 0 0
872 1 20.993834450743062 15.82110871413477 2.7904175188392135 0 0 0
768 1 25.46954549776574 14.134036195949191 1.3696546481683807 0 0 0
874 1 27.24543831522412 15.84199911246019 2.6277767942980184 0 0 0
771 1 31.93324996739616 14.340045563298764 1.243123747232595 0 0 0
875 1 33.63925089839306 15.425556709255606 2.8175974658024363 0 0 0
25 1 3.760500062203154 17.402906661493603 1.5412473379477576 0 0 0
33 1 2.6270447815513687 19.157231232472206 -0.09744701293591082 0 0 0
6 1 14.738764204646143 5.96030029290084 -0.18293391304170337 0 0 0
28 1 10.1659989876924 17.56423330831291 1.2349279620667029 0 0 0
2188 1 19.307453425310197 42.57050720399835 23.326264026105843 0 0 0
32 1 15.826402048203866 17.962508510053667 1.4135748693990806 0 0 0
1134 1 35.07515753680655 45.46316861182074 10.444829551176943 0 0 0
1424 1 11.298482557150917 15.738626741936482 25.068833742330924 0 0 0
2163 1 0.54543070281463 29.74065342558829 23.081773158605102 0 0 0
772 1 22.307387810295005 17.501529882745018 0.9648986587360178 0 0 0
879 1 23.98042458442407 18.66871666508578 2.776556873092778 0 0 0
774 1 28.745986319924544 17.65480073467577 1.2145820406969075 0 0 0
776 1 34.819595418513 17.34498282589327 1.4252613812331658 0 0 0
150 1 2.162100000149522 21.8532526640266 2.587022290064727 0 0 0
2278 1 20.560872257473772 50.00594303887453 24.359883569659363 0 0 0
35 1 6.925965024260692 20.747646836895676 1.3299438702215347 0 0 0
38 1 12.960044476272337 20.679126504220566 1.4777828116510414 0 0 0
1495 1 11.327801124922438 46.79264307888464 25.026362391077473 0 0 0
833 1 19.314908227797982 20.761953536210015 1.342717789323125 0 0 0
779 1 25.58575621351597 20.18067497413114 1.0372876139895963 0 0 0
886 1 27.142082389492888 21.479907040397503 2.70957263229462 0 0 0
782 1 31.46805085001811 20.3492143787314 0.9235141459778651 0 0 0
40 1 3.4245373643154804 23.727136694019972 1.1217979821119537 0 0 0
43 1 9.69137981477557 23.53883026200189 1.233217038429539 0 0 0
45 1 16.32755720675004 23.84952636126868 1.1357333916760108 0 0 0
2265 1 27.0898100697721 43.80687732771414 24.510811290674862 0 0 0
790 1 20.89431635642266 25.10888375526076 -0.05255316520098516 0 0 0
784 1 22.39972282137646 23.23463682969899 1.1812388582892506 0 0 0
891 1 23.92804851692651 24.85684412560212 2.391537631754229 0 0 0
787 1 28.157664911958676 23.21262752831127 1.1188949027086617 0 0 0
2354 1 22.942035002265133 45.29444546917444 23.26039514350393 0 0 0
892 1 29.59254376399348 24.91249964579373 2.690938741099403 0 0 0
789 1 34.66682419613958 23.553783103303253 0.6159095737189105 0 0 0
2069 1 16.377055321644768 45.26135379617483 23.468072874366587 0 0 0
743 1 0.7172360546820524 26.613987785346517 1.2697289869505877 0 0 0
161 1 2.085444901649015 28.307054348766474 2.7810377355327067 0 0 0
48 1 6.785445413935647 26.93621469488885 1.2280709490238855 0 0 0
52 1 12.764670734484815 26.947684640758816 1.4762393435312695 0 0 0
165 1 14.623569497797325 28.2979393713694 2.7768399661987377 0 0 0
61 1 17.45514716418483 28.43401697994677 -0.10490974679891812 0 0 0
955 1 19.476705531051888 26.919939762557 1.4406376240985395 0 0 0
799 1 23.9012183831307 28.500211917338056 -0.16843869759398894 0 0 0
792 1 25.375471624043996 26.681011520884905 1.2959786535421316 0 0 0
796 1 31.607172298401274 26.20683935516892 1.6787702371811537 0 0 0
800 1 30.016019093501438 27.851796528633503 0.06385555030001067 0 0 0
54 1 3.4155310987118264 30.04145336655587 1.1142097011724104 0 0 0
55 1 1.681985946136098 31.327890915499513 -0.147963569410328 0 0 0
163 1 5.390984198397155 31.53145491926945 2.7794568959160206 0 0 0
57 1 9.587179212843115 29.98032720303335 1.0814354243405604 0 0 0
170 1 11.2972374287172 31.327754156272174 2.4773871355540216 0 0 0
62 1 15.999678041470437 29.895069165237054 1.4201644958256707 0 0 0
798 1 20.76115015624406 31.64647398430232 -0.017462474188414595 0 0 0
797 1 22.514689772298766 30.23776244794087 0.9969747737311674 0 0 0
802 1 26.916596329273094 31.343247884825875 -0.1502472115728302 0 0 0
801 1 28.413050958790222 29.471095314575916 1.2206184011389563 0 0 0
901 1 29.95697470373338 30.90690524381204 2.800514783202618 0 0 0
804 1 34.80581963014033 29.92471631430813 1.3242269689408042 0 0 0
1408 1 5.271477313114746 9.276038954940201 25.056417073692614 0 0 0
64 1 6.828569949695784 33.06094592871823 1.11441381380602 0 0 0
67 1 12.910736507323799 32.97228411007794 0.9052145329439061 0 0 0
172 1 14.480528930724638 34.20642000713818 2.6974865474544263 0 0 0
861 1 19.28128965150766 33.10473852188513 1.4880307910229356 0 0 0
2271 1 24.446062460768477 47.097828602733884 24.572968373272193 0 0 0
805 1 25.538935142681165 33.03124746637977 1.6766098535281102 0 0 0
2267 1 33.594531939539614 44.10600627170987 24.574967176070526 0 0 0
808 1 31.689148144289522 32.62346771417504 1.6526839088536536 0 0 0
70 1 3.35352547909318 35.896180829874815 1.240295001115536 0 0 0
2273 1 29.961387657965027 46.893455774577404 24.50049116203563 0 0 0
75 1 10.024785939168826 35.62019463841651 1.5208562935651309 0 0 0
73 1 8.400845962822254 37.43147117153638 -0.08940284950210811 0 0 0
77 1 16.03243001736437 35.66143327478476 0.842030457798514 0 0 0
179 1 17.48123267782302 37.039577654829195 2.754203317197777 0 0 0
36 1 8.350437323785147 18.914609702708784 -0.19109760527888947 0 0 0
13 1 11.354044105327391 9.447204111318731 -0.19080944662852856 0 0 0
810 1 22.318519887605536 36.06708990484827 1.128508804728567 0 0 0
910 1 23.813554004381885 37.45287661143681 2.6437083428498167 0 0 0
811 1 27.380344731901083 37.69879980323221 0.26223842510151085 0 0 0
812 1 29.00275773404061 35.82903105082485 1.4280441884989963 0 0 0
815 1 34.94834270512571 35.93756640909106 1.5864694196882712 0 0 0
813 1 33.58771840106982 37.69035815046054 -0.04486975804519444 0 0 0
180 1 2.2664609473144575 40.838697115915004 2.6643376237400664 0 0 0
79 1 6.949247968601715 38.78585062265122 1.5157539586839217 0 0 0
78 1 5.326558462306986 40.435222415486336 -0.12926122871364526 0 0 0
83 1 12.506732235015907 39.381564415009706 1.4439603662609721 0 0 0
647 1 19.12685665562668 38.78312421004957 1.3496594285060417 0 0 0
84 1 17.803818430110294 40.64988584337057 -0.003571037967613655 0 0 0
914 1 20.31534143313649 40.519384045956556 2.731069967751432 0 0 0
818 1 25.53727967253696 39.17100681077309 1.5539326571193364 0 0 0
819 1 30.287263668223638 40.85594170853187 -0.11346920399000161 0 0 0
918 1 31.796620936931745 39.53031993250326 1.2628342517702322 0 0 0
87 1 3.778756414347004 42.21883415529955 1.3725388332940316 0 0 0
2175 1 28.89474855191415 44.99134428468463 22.98771700198066 0 0 0
187 1 5.442548740358415 43.783664018787576 2.7244258444203933 0 0 0
90 1 9.595281585646488 42.13727359795135 1.1823087234391179 0 0 0
189 1 11.102764042465484 43.66384392792028 2.690147186019541 0 0 0
191 1 15.634849667716564 41.85384235866686 1.0348628327209293 0 0 0
192 1 17.164974390219925 43.30653226006008 2.59579209584105 0 0 0
809 1 20.758299216957525 37.547055113951984 -0.1742753114970529 0 0 0
821 1 22.00004508946927 41.908477502755964 0.9523111515442086 0 0 0
922 1 23.874131929020884 43.536160826757886 2.503609080208315 0 0 0
1499 1 2.091766645590198 49.91801005703511 24.782615695167404 0 0 0
824 1 28.60211138872494 42.21922837138588 1.2102156631920982 0 0 0
827 1 34.91163513330943 41.9142675209321 1.748641258238212 0 0 0
825 1 33.5576524654767 43.68508507741123 0.017876319012088387 0 0 0
142 1 0.8263321115418722 45.1095050915536 1.623959559821916 0 0 0
194 1 2.36137417860167 46.8802789096025 2.5098116855843324 0 0 0
96 1 6.757794323334037 45.342137237289315 1.2086968319151958 0 0 0
95 1 5.460892967815466 47.08831969744075 0.07751078917718823 0 0 0
99 1 12.62056270938649 45.23328460567888 1.1707188637544514 0 0 0
197 1 14.158854486758058 46.78914964278568 2.6178977050373518 0 0 0
97 1 11.310987521736962 47.06254980942228 -0.008729632502889856 0 0 0
100 1 17.650403337327145 47.331036255576734 -0.06996197342722582 0 0 0
446 1 19.074396435912227 44.97498883537213 1.3383560079234458 0 0 0
831 1 23.759364520427592 46.31691894326774 -0.08865354749679952 0 0 0
830 1 25.485941955304913 44.94898804770347 1.1949435440921448 0 0 0
929 1 26.881487067914044 46.91513769602806 2.7224992945364037 0 0 0
832 1 30.339476069571987 46.7263709808627 -0.03410369966429333 0 0 0
834 1 31.896740348368308 45.27776778650375 1.3513621968748906 0 0 0
931 1 33.510086292890485 46.685197245587126 2.624460870784558 0 0 0
103 1 2.5569223369426433 50.26706968904917 -0.03934589156868715 0 0 0
102 1 4.06681744194262 48.69345089484536 1.4259520057911035 0 0 0
98 1 9.713935654244837 48.48661938354891 1.3835147014518858 0 0 0
106 1 8.594702508504259 50.14626175510765 -0.1245230605565692 0 0 0
109 1 16.093416508233027 48.70013823255165 1.7643278031539655 0 0 0
107 1 14.492869177980495 49.944477810579954 0.13915287530177423 0 0 0
1483 1 1.7410522873396832 43.64000338247046 25.048581048417773 0 0 0
838 1 22.820293282253466 48.1855308722153 1.4424665096185247 0 0 0
841 1 28.84527678320941 48.68216824095511 1.5922039404057537 0 0 0
842 1 33.448254412348575 50.38737946786083 -0.06696854804725286 0 0 0
199 1 3.534085063963403 0.869889904455752 4.5824066062923565 0 1 0
210 1 9.78396546421058 1.246463444848474 4.080871545947198 0 1 0
312 1 11.393776208311984 2.265886989095826 5.810249471296459 0 1 0
314 1 17.63137822891879 2.1328262093880617 5.599812455771365 0 1 0
212 1 15.850208162138593 0.7737039818117405 4.309544916045229 0 1 0
938 1 21.197360593095826 2.499045536574496 2.962745908590249 0 1 0
937 1 22.707704537837152 0.9660972785171231 4.44104882664732 0 1 0
940 1 27.27466731514085 2.5976880712574966 3.0250701900970185 0 1 0
941 1 28.965023742410573 0.6830543244246032 4.586868207449051 0 1 0
942 1 33.66314745012657 2.5273337182276006 2.99765501894736 0 1 0
306 1 0.6244084852132115 4.876470315762967 4.442518339463196 0 0 0
208 1 6.293861435281669 5.241287649702256 4.355003597899548 0 0 0
216 1 8.425980010541597 6.152836814139386 5.921552710227228 0 0 0
118 1 11.092898430904901 6.569998463961557 2.9361180097881974 0 0 0
120 1 12.72578401099295 3.964480784569842 4.4484593227620435 0 0 0
121 1 17.7918913013967 6.5881600723336415 2.9602509607581227 0 0 0
217 1 14.506365073935743 5.923738764629939 5.976867124376664 0 0 0
853 1 19.413013621579964 3.8861810118772526 4.190383178483261 0 0 0
939 1 25.573876969387126 4.8078454329580405 4.570402323733788 0 0 0
860 1 32.097671855446066 4.017131580242737 4.440743231440373 0 0 0
123 1 1.9802996955773462 9.690538012457832 2.8270888207929064 0 0 0
116 1 3.5172172842250817 8.076966430187936 4.756067137514255 0 0 0
126 1 8.065185964021886 9.686604812976979 3.1932911218302467 0 0 0
119 1 9.864040916566635 8.349072561569622 4.564881108863433 0 0 0
222 1 11.497712479945893 9.563415512441495 5.940988882680166 0 0 0
129 1 16.110556912269868 8.010066855182883 4.3339701033589995 0 0 0
225 1 17.74135257884742 9.531366658471821 5.927163311695213 0 0 0
856 1 21.905307422073218 7.5976492992723434 4.13918799599384 0 0 0
950 1 23.44744727559276 9.009539456621109 5.766012233712531 0 0 0
864 1 27.09212168588601 9.248281791526058 3.0586872010701036 0 0 0
858 1 28.643043940628317 8.03505990127547 4.4176589610767545 0 0 0
952 1 30.22580272656388 9.366638032392455 5.9070236905307985 0 0 0
865 1 33.478515571760454 9.379075712307742 2.9588815211475454 0 0 0
227 1 2.171223099442653 12.336542470108132 5.854364378241174 0 0 0
125 1 6.689112210911092 11.12007125996905 4.565284426480472 0 0 0
128 1 12.87284264802798 11.086821040587784 4.266486039634048 0 0 0
231 1 14.791224028225495 12.510002461841042 5.75209368276359 0 0 0
708 1 18.99904518524523 11.146846954189986 4.2087161005047315 0 0 0
956 1 20.569161532129492 12.57920968945715 5.611537644835149 0 0 0
868 1 24.11073900801456 12.389774695834141 2.8975665021978734 0 0 0
863 1 25.434925650692538 10.906248345523501 4.638000331306492 0 0 0
870 1 30.258458877968952 12.953625636305121 2.9563998374031524 0 0 0
866 1 31.94213024302295 11.168046443451223 4.318363038049602 0 0 0
130 1 3.589869875596046 14.279708777368718 4.593059815191351 0 0 0
235 1 5.626049422413749 15.545505899827248 5.792782863167572 0 0 0
132 1 9.805651696715952 14.38696130611063 4.5297789559942565 0 0 0
140 1 14.518963999062432 15.834546368688496 3.148783931165435 0 0 0
135 1 16.53094514959757 14.448331093705473 4.40685155306581 0 0 0
238 1 17.980294868219644 15.656859214761841 5.846778610357434 0 0 0
867 1 22.41637280990475 14.000152976943356 4.019669294476972 0 0 0
965 1 23.915014397666827 15.644560044042885 5.566491199704997 0 0 0
869 1 28.2967357328424 14.080080944303212 4.499210936901928 0 0 0
967 1 30.35584173311622 15.510998140975923 5.941689427261951 0 0 0
871 1 34.6340624580899 13.59090856539763 4.6170238269943455 0 0 0
76 1 0.702397118983884 17.24805474711756 4.332733372297005 0 0 0
241 1 2.256916307912893 18.99053478185328 5.94785898164244 0 0 0
144 1 5.52058027967228 19.08921077639169 2.860321224671994 0 0 0
138 1 7.086291949198732 17.35303015609893 4.3302000957247335 0 0 0
243 1 8.269182549954412 18.921285452153736 5.859825996918716 0 0 0
146 1 11.35304019654599 19.05779925261455 2.9682417868073845 0 0 0
141 1 12.77155734164787 17.57437253723194 4.791411300831728 0 0 0
147 1 17.763415459251068 19.17329366161982 2.9993527066417625 0 0 0
244 1 14.860440626216864 18.869322650110636 5.944470227608942 0 0 0
737 1 19.248288924741907 17.38208712441742 4.277978935895449 0 0 0
873 1 25.611528148625435 17.024251097015906 4.260382158922186 0 0 0
972 1 27.062854111851408 18.833428326043016 5.977035620137469 0 0 0
881 1 30.38684198654823 18.980871713178722 2.8485071721106987 0 0 0
876 1 31.77796296123974 17.045264316483465 4.074541484751829 0 0 0
973 1 33.38687019265574 18.68922553301958 5.665822944977002 0 0 0
143 1 3.822572312508411 20.399094965807166 4.1872878645340466 0 0 0
248 1 5.367351255608074 22.189538701084498 5.636039480170773 0 0 0
152 1 8.53770427370334 22.01698460106261 2.9305721822576034 0 0 0
145 1 9.686605786241222 20.60158633080946 4.466517998335878 0 0 0
250 1 11.418398380018512 21.750112672823306 5.892612554154268 0 0 0
153 1 14.730779371827895 22.335157558302875 2.9831997916530844 0 0 0
148 1 16.17761985539291 20.576502322551875 4.640841355266577 0 0 0
883 1 21.024592443613937 21.98168903038313 3.1720201717275374 0 0 0
878 1 22.556719566978902 20.385763915306256 4.266013421648189 0 0 0
977 1 24.258500445981895 21.577251158328664 5.7653809187433085 0 0 0
880 1 29.014323812920107 20.708042243795692 4.576338621468812 0 0 0
887 1 33.093134667636015 22.068827921854602 2.827439395700397 0 0 0
882 1 34.806558917176794 20.701214215312508 4.187684130614429 0 0 0
3 1 0.9245791460619732 23.52852567769182 4.333468475454151 0 0 0
156 1 5.199505155941397 25.29632808454265 2.9713286134852313 0 0 0
151 1 7.039740492861522 23.58207742479773 4.467985563776624 0 0 0
157 1 11.274665122999991 24.860619224528044 3.2643442525266244 0 0 0
154 1 13.169855931500965 23.61186432217151 4.480667226765065 0 0 0
257 1 14.85664376466676 25.028066972849466 5.969355462668609 0 0 0
159 1 18.159022828208464 25.28079183666494 3.2042991201072937 0 0 0
829 1 19.587463944408956 23.512403901873885 4.78483923228434 0 0 0
885 1 25.394724478005948 23.49070484517693 4.091124481283921 0 0 0
888 1 31.516165040600395 23.722026453305055 4.274025001681203 0 0 0
155 1 3.610063788897903 26.804729404869647 4.327014742882793 0 0 0
164 1 8.630334724160734 28.14663714521857 2.912535586774471 0 0 0
158 1 10.027329275845219 26.549575884198138 4.559204544096615 0 0 0
261 1 11.694570171134504 28.254193201304037 5.94699749338784 0 0 0
160 1 16.123344156043167 26.81207050521522 4.530626238741304 0 0 0
897 1 21.469665249546743 28.249519475559627 2.968513879585371 0 0 0
890 1 22.88565284169376 26.22374458258985 4.287523736510535 0 0 0
900 1 26.88631656284454 28.162934844993853 2.8343098959594704 0 0 0
893 1 28.5075488918367 26.380364889789895 4.388460749066993 0 0 0
990 1 30.206515906966093 27.987552405969605 5.906162914736795 0 0 0
894 1 33.24516033478372 28.251397174512423 2.9080218714544546 0 0 0
895 1 34.61531728856842 26.56367973207073 4.561957033910587 0 0 0
553 1 0.7800775237259261 29.715074324461376 4.2287086279625505 0 0 0
267 1 2.348914038281118 31.088394630341117 5.773692089816103 0 0 0
162 1 6.457091527895708 29.64015030008988 4.236489145977617 0 0 0
270 1 8.153955647025708 31.394590629686807 5.729692647530951 0 0 0
166 1 12.679074241274428 29.93617319070435 4.455316230259985 0 0 0
173 1 17.755981990516844 31.363329749100515 2.856953709270619 0 0 0
263 1 14.414461109592294 31.192413532305412 5.8485834540604635 0 0 0
1376 1 19.383057314789397 29.642142439842694 4.3976122880421835 0 0 0
899 1 23.987102570728382 31.542319841750906 2.984232260839907 0 0 0
898 1 25.18416645889478 29.907140520927168 4.769467573761784 0 0 0
902 1 31.6884455586769 29.792792999663728 4.744664111583907 0 0 0
168 1 2.150490702814666 34.50367407959771 3.10047463294188 0 0 0
167 1 3.8773386940419647 32.89002747989505 4.423100088580987 0 0 0
269 1 5.097055676304033 34.54930169721724 5.843473307252351 0 0 0
169 1 8.093190773317325 34.27049370793865 3.0789115977069708 0 0 0
171 1 9.913895960119437 32.95370051296391 4.502352504124964 0 0 0
174 1 15.92647350815781 32.813974636764854 4.381095998085386 0 0 0
273 1 17.33822851877713 34.5789964948654 5.584274273000851 0 0 0
904 1 21.025857412200757 34.52127410900665 2.8655731464152363 0 0 0
903 1 22.100305589650986 32.8032846610859 4.506966942103264 0 0 0
906 1 27.326250290544642 34.68019676225024 3.071826024389971 0 0 0
905 1 28.857763634970528 32.74965078032484 4.666816489027584 0 0 0
907 1 33.214045135977386 34.2994034175561 2.962805176561357 0 0 0
908 1 35.06892355940838 32.817227473492245 4.4476443453297385 0 0 0
2077 1 19.209703553809202 48.19620923007626 23.186468315730032 0 0 0
176 1 5.202754176102897 37.43277291079275 2.9616494359806445 0 0 0
175 1 6.741306428169927 35.81150487266722 4.49335378346048 0 0 0
177 1 11.539596919066378 37.31291522917391 2.9977078174150935 0 0 0
178 1 13.27087337481197 35.923663079678306 4.467801847819343 0 0 0
791 1 19.336458646054496 35.96546154873292 4.420071155579742 0 0 0
1003 1 20.724953713242236 37.339265976530555 5.91221803736087 0 0 0
909 1 25.21442571910865 36.008679042460265 4.347833851183637 0 0 0
911 1 30.35880819047843 37.791908982997484 3.237883572411055 0 0 0
912 1 31.88430505305343 35.87418197198787 4.576105690346104 0 0 0
181 1 3.8444550274822364 39.24713117991167 4.460963359618876 0 0 0
182 1 8.177706223677543 40.493612842910444 2.938272735872124 0 0 0
183 1 9.59587410503409 38.64966819745888 4.501465723048676 0 0 0
184 1 14.3279070704365 40.43336261638776 3.217077480485532 0 0 0
284 1 11.705919514121593 40.30430963821868 5.608666187963282 0 0 0
185 1 15.855125890889713 38.73498666596476 4.406218357093022 0 0 0
286 1 17.377883261895263 39.95598488662287 5.972312248932463 0 0 0
915 1 22.150975659134648 38.89154073226317 4.22483728114816 0 0 0
1012 1 23.602407619601397 40.2976439604647 5.7831638847794435 0 0 0
916 1 27.063646119036175 40.88963664539453 2.903107863204609 0 0 0
917 1 28.425879326849284 39.33352849991034 4.388492934330643 0 0 0
1013 1 30.406269814764766 40.64154669615928 5.909357777328806 0 0 0
919 1 33.18879911062492 40.612083327725905 3.2443843410991664 0 0 0
920 1 34.88505858743674 39.226299264278616 4.965312621165219 0 0 0
101 1 0.9780519334982164 42.17187842273558 4.6773552233427 0 0 0
188 1 6.970961305099089 42.20936992383683 4.53997522389765 0 0 0
289 1 8.802741660623525 43.85242171665097 5.6927995926446355 0 0 0
190 1 12.593422019575206 42.78192608738392 4.370937747057454 0 0 0
291 1 14.572330235887549 44.07055582034855 5.504238267642445 0 0 0
651 1 18.615769949235496 41.84956186816387 4.0580407432650984 0 0 0
1016 1 20.691663095092025 43.69365590504329 5.877272654707508 0 0 0
923 1 25.385118318815294 42.123978999516574 4.405054493402395 0 0 0
1018 1 27.57562145929742 43.60411065932345 5.765953381813423 0 0 0
924 1 30.06553760583668 44.021729951343445 2.837553575276497 0 0 0
925 1 31.621236564679734 42.387651447518074 4.541026145419378 0 0 0
1020 1 33.6235506440099 43.72477014900188 5.782054729505336 0 0 0
193 1 3.8225822845288655 45.44077620259844 4.559081550950544 0 0 0
195 1 8.117396351602345 46.89819042261964 2.9138129748806074 0 0 0
196 1 10.152098705623708 45.616903308463904 4.146740884863426 0 0 0
296 1 11.250808023306172 46.78092177097927 5.90482961279173 0 0 0
198 1 16.098759304480758 45.650513474949065 4.00818016310311 0 0 0
299 1 17.617017055749788 46.95953238297232 5.90979766473764 0 0 0
927 1 20.716076262575477 46.89179252134939 2.9748450417442447 0 0 0
928 1 22.04737755916193 45.042538955109976 4.0836230592353955 0 0 0
1023 1 23.911089333867555 46.704193612483664 5.983632367972836 0 0 0
930 1 28.505379749932818 45.68855659365107 4.524934051673763 0 0 0
1024 1 30.76364505240223 46.77055208442504 5.745223167820714 0 0 0
932 1 35.00167182723905 45.188846005855666 4.0780597674290675 0 0 0
88 1 0.8602290365035115 48.65373099509631 4.617466121400376 0 0 0
200 1 6.743432899936799 48.4662284796229 4.413372036771077 0 0 0
201 1 5.620392099876234 50.290858943764505 3.1495716528799402 0 0 0
302 1 8.259619671972525 50.34963558962533 5.4958553652638065 0 0 0
202 1 11.622619939529253 50.051373020691614 2.9745994927388963 0 0 0
203 1 12.87419264658502 48.52538268284725 4.43479040028435 0 0 0
303 1 14.344112726396418 50.078872569241696 5.854487045699825 0 0 0
843 1 19.36395110647703 48.4834095700699 4.860082971715922 0 0 0
204 1 17.984289868953073 50.34594700081093 3.1473462002236694 0 0 0
934 1 24.31971190481337 50.000540332329635 2.91871800106089 0 0 0
933 1 25.427500505537047 48.348802881593386 4.537189613822472 0 0 0
935 1 30.50090666865304 50.217283347634336 2.8748991880245334 0 0 0
936 1 32.48876474923039 48.62669633885066 4.202628164679073 0 0 0
1031 1 33.968029469266284 50.19955485866402 5.733698085014035 0 0 0
436 1 2.109169360698994 2.568282950905633 9.104351285435198 0 1 0
2151 1 3.3640818520903326 45.32060365872548 23.222740325919688 0 0 0
310 1 5.048832451346576 2.4221514463830793 5.988428867035741 0 1 0
308 1 6.882814543775464 1.1566029337420494 7.4696077101016884 0 1 0
304 1 13.04621945914179 0.7485392492312443 7.579546829122826 0 1 0
443 1 14.363078029290012 2.149982773738668 9.066656050410797 0 1 0
1142 1 20.853672258845553 2.840285161352796 9.134437858077463 0 1 0
767 1 19.42145644257203 1.2192797998255709 7.464670949275614 0 1 0
1035 1 24.114937682584273 2.6079243687507287 6.2762392979702915 0 1 0
1034 1 25.900424536569837 0.977939852988418 7.6598885827328385 0 1 0
1038 1 30.256205046979733 2.6220294848190346 5.999336788739944 0 1 0
1039 1 32.047276547595715 0.752845691952279 7.392850346028689 0 1 0
214 1 2.085628512174212 6.341238195761908 6.028156734419141 0 0 0
309 1 3.675960196723718 4.068997050503894 7.408507850376036 0 0 0
318 1 4.985625639077831 6.1710072037135655 9.01832477129564 0 0 0
311 1 10.142258359551578 3.8903492771249004 7.446752648345989 0 0 0
313 1 15.872323399225346 3.517121676692122 7.301012798562104 0 0 0
323 1 17.36025981669474 5.641803826911921 8.91458421218603 0 0 0
943 1 20.256600341695037 6.13683381466772 6.030011365504634 0 0 0
1033 1 22.48224511860874 5.050445755315735 7.372478655250368 0 0 0
1042 1 24.035638905613254 6.183981787371177 9.108733960957236 0 0 0
945 1 27.164534463944417 6.337420808882426 6.0086640926464945 0 0 0
1036 1 28.777189223774073 4.7754883378080635 7.757779219193597 0 0 0
946 1 30.168247553511147 6.36455907071166 9.02153715196887 0 0 0
947 1 33.6792655140644 5.915693107966302 6.308561143198126 0 0 0
2281 1 33.538094891880775 50.10664524653541 24.610170430529266 0 0 0
221 1 5.244668713808334 9.362949841062761 6.207281513477133 0 0 0
215 1 6.788414690818142 7.7901534428265045 7.68242542179263 0 0 0
328 1 8.298443860832457 9.35572895702388 9.130151559197456 0 0 0
224 1 12.834788213226492 7.648093429422784 7.4226294338219105 0 0 0
330 1 14.483467161201323 9.368531346894661 9.006648783705764 0 0 0
447 1 18.674328017639258 7.706077631426828 7.463878340654239 0 0 0
1049 1 20.888700863519375 9.308236579518663 8.917928146241216 0 0 0
944 1 25.164522732762553 7.709999685725088 7.3730777914855965 0 0 0
953 1 26.901030863968515 9.131204816771575 8.680250430412013 0 0 0
948 1 31.95859065940425 7.681338102080614 7.412315621098173 0 0 0
219 1 3.862544538341876 10.931901975539352 7.425008642766143 0 0 0
229 1 5.241367932772362 12.549358016244444 8.883633960829295 0 0 0
230 1 8.579033151083198 12.521437036222462 6.079091829102087 0 0 0
223 1 10.060763887178442 11.002981531961552 7.629519520820116 0 0 0
335 1 11.460481229905701 12.402997139517176 9.137173711650012 0 0 0
233 1 16.12582905222049 10.995252284054025 7.47027937997994 0 0 0
949 1 22.07831148977991 11.031197676395669 7.302488831190729 0 0 0
959 1 27.117107129220134 12.345829488704055 6.099590037630895 0 0 0
951 1 28.675450659882113 10.809235486448383 7.777496772812389 0 0 0
954 1 34.91489858425638 10.535308843637429 7.839287383642361 0 0 0
961 1 33.341853039650964 12.287276581674332 6.366173311429177 0 0 0
21 1 0.7942952222879349 13.87293824390096 7.200804201179858 0 0 0
228 1 7.149489642414517 14.145190702124275 7.916426136371136 0 0 0
237 1 11.40665144664165 16.011348591095608 6.346100568455327 0 0 0
232 1 12.984869184555652 13.940652167754806 7.450295049455249 0 0 0
346 1 14.801428324098474 15.594658640551085 9.029519949342632 0 0 0
739 1 19.196975664730925 13.826030918780871 7.490265620352781 0 0 0
1062 1 20.905842400513706 15.490956287975553 8.859840307881916 0 0 0
957 1 25.28030077115845 13.88590349679741 7.47903152711844 0 0 0
1065 1 27.00059531891755 15.891154397308263 8.99397439939458 0 0 0
962 1 31.733523823852018 13.900452368756143 7.660850990229723 0 0 0
1067 1 33.096187321521285 15.703702028882223 9.078506500679717 0 0 0
234 1 3.9974282723710544 17.13129276371034 7.276375032133819 0 0 0
350 1 5.479993290931108 18.891538726843702 8.800084576055287 0 0 0
236 1 9.706698637218423 17.474029463758324 7.73401842967201 0 0 0