
# Create simulation box of size 50 x 50 x 50 Angstrom
#
lattice	            sc 1
Lattice spacing in x,y,z = 1.0000000 1.0000000 1.0000000
region 	            all block 0 ${X} ${YZ_LO} ${YZ_HI} ${YZ_LO} ${YZ_HI} units box
region 	            all block 0 53.4 ${YZ_LO} ${YZ_HI} ${YZ_LO} ${YZ_HI} units box
region 	            all block 0 53.4 0.4512504445543506.0 ${YZ_HI} ${YZ_LO} ${YZ_HI} units box
region 	            all block 0 53.4 0.4512504445543506.0 50.45586955544489.0 ${YZ_LO} ${YZ_HI} units box
region 	            all block 0 53.4 0.4512504445543506.0 50.45586955544489.0 0.4512504445543506.0 ${YZ_HI} units box
region 	            all block 0 53.4 0.4512504445543506.0 50.45586955544489.0 0.4512504445543506.0 50.45586955544489.0 units box
create_box          1 all
Created orthogonal box = (0.0000000 0.45125044 0.45125044) to (53.400000 50.455870 50.455870)
  3 by 1 by 2 MPI processor grid

# fill box with 4175 randomly distributed atoms
#
create_atoms        1 random 4608 63782 all
Created 4608 atoms
  create_atoms CPU = 0.001 seconds
mass                1 18.015

# Define potential
#
pair_style          sw
pair_coeff          * * /data/emrosky-sim/Freezing_Simulations/Melting/mW_fancy/mW.sw mW
Reading sw potential file /data/emrosky-sim/Freezing_Simulations/Melting/mW_fancy/mW.sw with DATE: 2019-02-27

# Run minimization
#
minimize            1.0e-8 1.0e-8 10000 1000
WARNING: Using 'neigh_modify every 1 delay 0 check yes' setting during minimization (../min.cpp:187)
Neighbor list info ...
  update every 1 steps, delay 0 steps, check yes
  max neighbors/atom: 2000, page size: 100000
  master list distance cutoff = 6.3065
  ghost atom cutoff = 6.3065
  binsize = 3.15325, bins = 17 16 16
  1 neighbor lists, perpetual/occasional/extra = 1 0 0
  (1) pair sw, perpetual
      attributes: full, newton on
      pair build: full/bin/atomonly
      stencil: full/bin/3d
      bin: standard
Per MPI rank memory allocation (min/avg/max) = 4.236 | 4.254 | 4.260 Mbytes
Step Temp E_pair E_mol TotEng Press 
       0            0    4789520.3            0    4789520.3    3427529.2 
     688            0   -52245.206            0   -52245.206    838.53874 
Loop time of 2.13571 on 6 procs for 688 steps with 4608 atoms

99.4% CPU use with 6 MPI tasks x no OpenMP threads

Minimization stats:
  Stopping criterion = max force evaluations
  Energy initial, next-to-last, final = 
      4789520.25020115  -52244.9269235678  -52245.2059925906
  Force two-norm initial, final = 1.0974412e+08 3.8650405
  Force max component initial, final = 57889422.0 1.2757958
  Final line search alpha, max atom move = 0.039351279 0.050204197
  Iterations, force evaluations = 688 1001

MPI task timing breakdown:
Section |  min time  |  avg time  |  max time  |%varavg| %total
---------------------------------------------------------------
Pair    | 1.8626     | 1.938      | 2.0132     |   4.1 | 90.74
Neigh   | 0.043924   | 0.044998   | 0.045902   |   0.3 |  2.11
Comm    | 0.054785   | 0.1307     | 0.20641    |  15.8 |  6.12
Output  | 0          | 0          | 0          |   0.0 |  0.00
Modify  | 0          | 0          | 0          |   0.0 |  0.00
Other   |            | 0.02201    |            |       |  1.03

Nlocal:        768.000 ave         774 max         762 min
Histogram: 2 0 0 0 0 1 1 1 0 1
Nghost:        1702.33 ave        1709 max        1690 min
Histogram: 1 0 0 0 0 2 0 0 1 2
Neighs:        0.00000 ave           0 max           0 min
Histogram: 6 0 0 0 0 0 0 0 0 0
FullNghs:      26062.7 ave       26370 max       25651 min
Histogram: 2 0 0 0 0 1 0 0 1 2

Total # of neighbors = 156376
Ave neighs/atom = 33.935764
Neighbor list builds = 39
Dangerous builds = 0

# Add velocity/set timestep
#
velocity            all create ${TEMP} 120598 rot yes dist gaussian
velocity            all create 271 120598 rot yes dist gaussian
timestep            5.0

# Define output
#
compute	            1 all msd
thermo	            100
thermo_style        custom step temp press vol etotal ke pe c_1[4] density

# Neighbor lists
#
neigh_modify        delay 0 every 1 check yes

# Set fixes
#
fix                 1 all momentum 10 linear 1 1 1 rescale
fix                 2 all nve
fix                 3 all temp/csvr ${TEMP} ${TEMP} 500.0 928347
fix                 3 all temp/csvr 271 ${TEMP} 500.0 928347
fix                 3 all temp/csvr 271 271 500.0 928347
fix                 4 all press/berendsen iso ${PRES} ${PRES} 1000.0 modulus 20000
fix                 4 all press/berendsen iso 1 ${PRES} 1000.0 modulus 20000
fix                 4 all press/berendsen iso 1 1 1000.0 modulus 20000

# Run 0.5 ns equilibration
#
dump                1 all custom 1000 eq.${NAME}.dump id type x y z vx vy vz
dump                1 all custom 1000 eq.liq_271K_1atm_mW.dump id type x y z vx vy vz
run                 100000
Per MPI rank memory allocation (min/avg/max) = 3.504 | 3.508 | 3.511 Mbytes
Step Temp Press Volume TotEng KinEng PotEng c_1[4] Density 
     688          271    2112.6083    133524.67   -48523.674    3721.5324   -52245.206            0    1.0323674 
     700    119.35091    2429.9833    134619.42    -48352.32    1638.9974   -49991.317  0.072000365     1.023972 
     800    183.03876    271.59858    136991.18   -46860.413    2513.5966    -49374.01   0.52606984    1.0062437 
     900    215.73403    25.020405    137706.38   -45934.772    2962.5874    -48897.36   0.95649976    1.0010177 
    1000     229.9282   -113.97079    138143.81   -45337.271    3157.5102   -48494.781    1.4326014   0.99784796 
    1100    241.86247    -36.71709    138476.47   -44876.213    3321.3986   -48197.611    1.9365187   0.99545086 
    1200    249.76135   -33.779357    138466.52   -44514.364    3429.8707   -47944.235    2.6309953   0.99552236 
    1300    258.56318    90.225458    138740.13   -44161.308    3550.7426    -47712.05    3.4574051   0.99355908 
    1400    259.03627    75.794296     138603.2   -44031.467    3557.2393   -47588.707    4.3659138   0.99454068 
    1500    259.98269    54.574576    138365.21   -43856.905    3570.2361   -47427.141    5.3747605   0.99625126 
    1600    263.07846   -107.13384     138270.3   -43785.433    3612.7492   -47398.183    6.2564343   0.99693511 
    1700    261.20253    46.077933    137966.25   -43732.015    3586.9877   -47319.003    7.2633007   0.99913218 
    1800    270.27227    -63.30729    137848.41   -43619.097    3711.5389   -47330.636    8.3747517   0.99998628 
    1900    267.44288    24.315705    137626.46    -43573.38     3672.684   -47246.064     9.616329    1.0015989 
    2000    265.36447     26.80212    137904.56   -43457.832    3644.1419   -47101.974    10.833039   0.99957911 
    2100    269.54119   -93.261063    137750.91   -43518.667    3701.4992   -47220.166    12.024211     1.000694 
    2200    268.95324   -55.808633    137667.45     -43543.9     3693.425   -47237.325    13.081955    1.0013007 
    2300    270.16779     137.5956    137795.96   -43458.675     3710.104   -47168.779    14.396109    1.0003669 
    2400    270.26164   -193.38183    137906.17   -43464.938    3711.3928   -47176.331    15.293105   0.99956741 
    2500     274.2587   -257.47814    137808.36    -43438.82    3766.2827   -47205.102    16.518349    1.0002768 
    2600    269.65042    38.768512    137562.23   -43367.931    3702.9992   -47070.931    18.014086    1.0020666 
    2700     271.6141   -86.389664    137672.04    -43314.75    3729.9655   -47044.716    19.484972    1.0012673 
    2800    267.87276    51.726856    137424.48   -43423.302    3678.5874    -47101.89    20.782506     1.003071 
    2900    272.04771    48.775754     137375.8   -43363.838    3735.9202   -47099.758    22.156492    1.0034265 
    3000        279.1    10.431564    137597.08   -43291.311    3832.7664   -47124.077    23.613811    1.0018128 
    3100     273.5791    58.821167    137538.63   -43346.867    3756.9501   -47103.817    24.753736    1.0022386 
    3200    270.83846   -137.49895    137667.19   -43363.877     3719.314   -47083.191    26.080674    1.0013026 
    3300    264.93838   -66.480533    137749.49   -43401.182    3638.2907   -47039.472    27.276389    1.0007044 
    3400    270.24098    46.490685    137670.88   -43352.613    3711.1091   -47063.722     28.81531    1.0012757 
    3500    274.17934   -65.643325    137332.81   -43271.313     3765.193   -47036.506    30.220898    1.0037406 
    3600     269.9854    156.57264    137094.92    -43258.76    3707.5993    -46966.36    31.701254    1.0054823 
    3700    273.49394   -61.827894    137267.69   -43297.791    3755.7807   -47053.571    33.305115    1.0042168 
    3800    274.87954    131.25369    137367.51   -43288.247    3774.8086   -47063.055    34.706691    1.0034871 
    3900    265.97947    145.78182    137649.21   -43384.509    3652.5875   -47037.096    35.953355    1.0014334 
    4000    269.89619    152.75409    137752.57   -43447.561    3706.3742   -47153.935    37.290062     1.000682 
    4100    268.45704    53.475016    137866.54   -43383.177    3686.6109   -47069.788    38.480758   0.99985474 
    4200    271.66708   -65.041167    137795.32   -43358.796    3730.6931   -47089.489    39.571374    1.0003715 
    4300    273.55307    41.340943    137784.95   -43324.686    3756.5926   -47081.279    40.889316    1.0004469 
    4400    268.83663    137.26708    137608.79   -43317.642    3691.8237   -47009.465    42.408936    1.0017275 
    4500    274.21055    67.125354    137565.04   -43281.277    3765.6216   -47046.899    43.888419    1.0020461 
    4600    272.96941   -78.384236    137661.94   -43336.957    3748.5776   -47085.535    45.417539    1.0013408 
    4700    271.04942    29.339074    137695.11   -43397.838     3722.211   -47120.049    46.790509    1.0010996 
    4800    271.72968    1.2040085    137746.05   -43372.364    3731.5528   -47103.917    48.108507    1.0007293 
    4900    272.88074   -25.209599    137769.98   -43335.403    3747.3599   -47082.763    49.298777    1.0005556 
    5000     268.8492     50.69914    137859.37   -43460.444    3691.9964    -47152.44    50.491284   0.99990674 
    5100    270.84292    86.774584    137861.06   -43383.657    3719.3752   -47103.033    51.748537    0.9998945 
    5200     267.4586    57.241818    137626.72   -43442.927    3672.8998   -47115.827    52.831133    1.0015971 
    5300    268.78937    178.09039    137640.64   -43461.505    3691.1748   -47152.679    53.994795    1.0014958 
    5400    273.44674   -134.37022    137676.54   -43368.463    3755.1324   -47123.595    55.308448    1.0012346 
    5500    270.05973    86.628664    137617.98   -43315.339    3708.6201   -47023.959    56.481589    1.0016606 
    5600    276.79847    152.96011    137748.27   -43244.616    3801.1604   -47045.777    57.941678    1.0007132 
    5700    271.71747   -32.556711    137640.45   -43376.291    3731.3852   -47107.676    59.470913    1.0014971 
    5800    275.68418    100.09957    137720.21   -43300.544    3785.8583   -47086.402    60.646875    1.0009171 
    5900    270.72702    22.126065    137621.18   -43410.945    3717.7836   -47128.728    61.778467    1.0016373 
    6000    264.01145    111.68994    137541.85   -43460.199    3625.5615    -47085.76    63.047042    1.0022151 
    6100    266.69848    2.0744781    137487.48   -43444.621    3662.4614   -47107.082    64.172526    1.0026114 
    6200    268.15743   -6.6622447    137548.84   -43455.026    3682.4966   -47137.522    65.607706    1.0021641 
    6300    264.02676    149.59559    137371.23   -43486.733    3625.7717   -47112.504    66.981516    1.0034599 
    6400     268.6109    26.305423    137349.39   -43403.053    3688.7238   -47091.777    68.242337    1.0036194 
    6500     269.4645    78.288567    137620.02   -43330.524     3700.446    -47030.97    69.686073    1.0016458 
    6600    268.72917    269.83858    137522.23   -43431.111     3690.348   -47121.459    70.875663    1.0023581 
    6700    268.00864    35.368743    137557.08   -43420.598    3680.4533   -47101.052    72.212706    1.0021041 
    6800    268.56658   -209.82342    137501.98   -43504.376    3688.1152   -47192.491    73.529537    1.0025057 
    6900    265.98416    78.508679    137671.26    -43497.21     3652.652   -47149.862    74.982483     1.001273 
    7000    269.21056   -54.048134    137852.56   -43354.757    3696.9588   -47051.716    76.704479   0.99995617 
    7100    267.19904   -58.941649    138008.52   -43459.963    3669.3353   -47129.299     78.20917   0.99882613 
    7200    270.49046   -16.375278    137901.42   -43461.659    3714.5351   -47176.194    79.168625   0.99960184 
    7300    268.49129   -182.81465    137765.34   -43482.559    3687.0813   -47169.641    80.514399    1.0005892 
    7400    267.96442   -34.644427    137711.52   -43526.792     3679.846   -47206.638    81.740333    1.0009803 
    7500    267.22592    82.192489    137721.38   -43476.417    3669.7045   -47146.121    82.993116    1.0009086 
    7600    267.21899    17.284891    137761.49    -43399.52    3669.6093   -47069.129    84.691707    1.0006172 
    7700    277.96678    119.23551    137615.88   -43358.786    3817.2044    -47175.99     86.13887    1.0016759 
    7800    272.66766   -71.427587    137722.33   -43428.211    3744.4337   -47172.645    86.998734    1.0009017 
    7900    271.20698   -63.165304    137575.32   -43491.023    3724.3748   -47215.398    88.003159    1.0019713 
    8000    268.16944   -35.705928    137572.21   -43540.787    3682.6615   -47223.449    89.247172    1.0019939 
    8100    267.21773    235.41285    137719.08   -43435.069     3669.592   -47104.661    90.217232    1.0009253 
    8200    268.65985   -324.91466    137643.51    -43400.19     3689.396   -47089.586     91.57043    1.0014749 
    8300    271.13735    70.150945    137399.13   -43363.283    3723.4186   -47086.702    92.364129    1.0032561 
    8400     264.8956    1.1761508    137425.38   -43397.325    3637.7031   -47035.029    93.522449    1.0030644 
    8500    264.26384   -9.6012732    137189.96   -43449.078    3629.0275   -47078.105    94.301522    1.0047858 
    8600    270.52538    157.18392    137501.71   -43330.603    3715.0147   -47045.617    96.227758    1.0025076 
    8700    272.02659   -222.76706    137579.81   -43315.943    3735.6301   -47051.573    97.501248    1.0019386 
    8800    273.84177    68.710935    137812.29   -43255.105    3760.5573   -47015.663    99.644206    1.0002483 
    8900    270.83373     88.55864    137508.46   -43322.863    3719.2491   -47042.112    100.92156    1.0024585 
    9000    276.28018   -60.315853    137726.97    -43267.87     3794.043   -47061.913    102.13333     1.000868 
    9100    271.24772   -79.964726     137765.5   -43257.298    3724.9342   -46982.232    103.54345    1.0005881 
    9200    267.48982   -68.718847    137677.34   -43313.867    3673.3285   -46987.195    105.06231    1.0012288 
    9300    271.83833   -39.679544    137475.61   -43353.413    3733.0449   -47086.458    106.16952     1.002698 
    9400    272.93545    95.329868     137483.4   -43336.983    3748.1111   -47085.094    107.82864    1.0026411 
    9500    271.01586   -148.83011    137612.35   -43390.506    3721.7502   -47112.256    109.30805    1.0017017 
    9600    268.45457   -24.750685     137404.2   -43424.997     3686.577   -47111.574     110.8389    1.0032191 
    9700     273.1467   -53.639344    137537.51   -43346.101    3751.0121   -47097.113    112.47324    1.0022467 
    9800    267.84408   -81.517721    137427.43   -43369.665    3678.1934   -47047.859    113.46065    1.0030495 
    9900     276.9186    51.237782    137555.63   -43242.786    3802.8101   -47045.596    114.73055    1.0021147 
   10000    266.06515   -75.587421    137345.58   -43423.277    3653.7642   -47077.041    115.47398    1.0036473 
   10100    272.84618    2.0224019    137244.46   -43352.981    3746.8852   -47099.866    116.05069    1.0043868 
   10200    268.94191   -29.242409    137392.19   -43405.912    3693.2694   -47099.181    117.53907    1.0033068 
   10300    270.56433   -87.273122     137261.3   -43385.629    3715.5495   -47101.178    119.17238    1.0042635 
   10400    278.86022    121.32742    137402.46   -43286.368    3829.4736   -47115.842    121.17455    1.0032318 
   10500    273.41363    15.145473    137423.28   -43313.128    3754.6778   -47067.806    122.65408    1.0030798 
   10600    273.03581   -48.546432    137543.82   -43333.545    3749.4893   -47083.034    123.89812    1.0022007 
   10700    270.05754    84.028058    137197.54   -43405.267      3708.59   -47113.857    125.08944    1.0047302 
   10800    272.03234    51.373455    137249.85   -43319.927    3735.7091   -47055.636    126.20124    1.0043473 
   10900    273.93523    77.114841     137584.5   -43244.946    3761.8407   -47006.787    127.33571    1.0019044 
   11000    276.41607    18.807873    137434.29   -43286.049    3795.9092   -47081.958    128.20079    1.0029994 
   11100    272.50502    27.574361    137849.08   -43300.757    3742.2002   -47042.958    129.90503    0.9999814 
   11200    270.35714   -152.60435    137775.89   -43287.482    3712.7043   -47000.186    131.57506    1.0005126 
   11300    273.51703    23.342059    137566.36   -43322.079    3756.0978   -47078.176    132.75748    1.0020365 
   11400    270.18648    17.682116    137435.97   -43345.555    3710.3606   -47055.916    133.96671    1.0029872 
   11500    268.67396     54.81976    137423.58   -43481.354    3689.5898   -47170.943    135.29937    1.0030776 
   11600    269.35342     58.55442     137494.4   -43530.309    3698.9205    -47229.23    137.08183     1.002561 
   11700    266.20421    88.696166    137590.24   -43488.881    3655.6738   -47144.555    138.06594    1.0018626 
   11800    273.35049    49.003249    137548.62   -43424.081    3753.8107   -47177.891    138.70859    1.0021658 
   11900    266.99776   -148.33455    137416.09   -43517.813    3666.5712   -47184.384    139.70903    1.0031323 
   12000    268.31099   -177.86451    137504.75   -43494.431    3684.6054   -47179.037    141.19255    1.0024855 
   12100    269.83167    151.72876    137278.49   -43489.235    3705.4882   -47194.723    142.61102    1.0041378 
   12200    274.68589    48.543931    137169.19   -43380.179    3772.1492   -47152.328    143.88138    1.0049379 
   12300    274.11585    299.65847    137396.32   -43339.518    3764.3211   -47103.839    145.62896    1.0032766 
   12400    270.42501    177.54106    137631.89   -43230.583    3713.6363   -46944.219    147.70957    1.0015594 
   12500    278.19515    47.854765    137536.11   -43259.845    3820.3405   -47080.186    148.92303    1.0022569 
   12600    275.85055    118.34763     137620.8   -43277.354     3788.143   -47065.497    150.49256    1.0016401 
   12700    269.51815   -279.45078    137550.71    -43220.98    3701.1827   -46922.163    151.35113    1.0021506 
   12800      272.968   -55.400363     137175.1   -43299.863    3748.5582   -47048.422    152.71345    1.0048946 
   12900    274.87906     205.5011    137258.49   -43317.901     3774.802   -47092.703    154.43234    1.0042841 
   13000    272.14324      173.637    137260.83    -43321.19     3737.232   -47058.422    155.21117    1.0042669 
   13100    273.19157      123.086    137573.19   -43346.222    3751.6283    -47097.85    157.05333    1.0019868 
   13200    275.86413    -45.45907    137646.82   -43306.355    3788.3295   -47094.684    158.57389    1.0014508 
   13300    275.44057    92.730654    137739.95    -43293.98     3782.513   -47076.493    159.84239    1.0007737 
   13400    270.20519    196.57451    137676.91   -43349.537    3710.6176   -47060.155    161.66271    1.0012319 
   13500    265.72877    23.707409    137518.01   -43347.098    3649.1447   -46996.242    162.86652    1.0023888 
   13600    269.27665   -120.11598    137285.78   -43397.529    3697.8663   -47095.395    164.22829    1.0040844 
   13700    270.05009    70.701585    137114.11   -43376.828    3708.4877   -47085.316    166.26271    1.0053416 
   13800    267.23818    73.586876    137174.67   -43384.121    3669.8729   -47053.994    167.67527    1.0048977 
   13900    268.32854   -79.230762    137167.51   -43433.748    3684.8463   -47118.594    168.76708    1.0049502 
   14000    265.48455    305.09775     137238.5   -43497.003     3645.791   -47142.794    170.19679    1.0044304 
   14100    263.90027   -73.753717    137604.87   -43479.426    3624.0347   -47103.461    172.24448    1.0017561 
   14200    272.18677   -153.63077    137357.45   -43404.119    3737.8299   -47141.949    172.90363    1.0035605 
   14300    271.48976    179.71551     137625.8   -43416.696    3728.2581   -47144.954    174.28964    1.0016038 
   14400    272.97919    146.25093    137486.67   -43464.505    3748.7118   -47213.217    175.50568    1.0026173 
   14500    271.68282   -102.17406    137692.27    -43446.71    3730.9093   -47177.619    177.21763    1.0011202 
   14600    269.33986   -58.752421    137632.02   -43371.042    3698.7344   -47069.776    178.90016    1.0015585 
   14700    273.40003   -95.779689    137608.26   -43287.513     3754.491   -47042.004    179.82317    1.0017314 
   14800    267.46669    13.897528     137504.6    -43335.29    3673.0109   -47008.301    181.64966    1.0024866 
   14900    275.31674    41.602149    137350.14    -43311.59    3780.8124   -47092.403    183.40788     1.003614 
   15000    269.20832    117.90443    137603.53   -43392.022     3696.928    -47088.95    185.13032    1.0017658 
   15100    269.47062   -228.33813    137660.14    -43395.09      3700.53    -47095.62    185.64579    1.0013539 
   15200    273.94633   -70.069264    137561.13   -43462.288    3761.9932   -47224.281    186.27131    1.0020746 
   15300    270.58931     56.19993    137657.27   -43388.922    3715.8926   -47104.814    187.42251    1.0013748 
   15400     265.0766   -74.534799    137654.52    -43386.78    3640.1888   -47026.969    189.30991    1.0013948 
   15500    272.03372    236.18999    137784.37   -43352.908     3735.728   -47088.636    190.42414    1.0004511 
   15600    275.15618   -95.425237    137620.85   -43393.356    3778.6075   -47171.964    191.76973    1.0016398 
   15700    266.21253   -109.08945    137715.81   -43429.676    3655.7881   -47085.464    193.18593    1.0009491 
   15800    268.35442   -62.128642    137531.56   -43407.791    3685.2018   -47092.993    194.21283    1.0022901 
   15900    263.08849   -108.29929    137776.69   -43342.019    3612.8869   -46954.906    195.69405    1.0005068 
   16000    269.56359    192.82647    137899.78   -43393.541    3701.8068   -47095.348    196.82868   0.99961377 
   16100    271.45813   -44.102161    137824.07   -43416.159    3727.8237   -47143.983    197.90261    1.0001629 
   16200    273.97155    106.07852    137995.49   -43339.492    3762.3394   -47101.831    199.20057   0.99892043 
   16300    272.72169   -62.000871    137953.58   -43273.452    3745.1756   -47018.628    200.01397   0.99922389 
   16400    273.51912    66.380334    138166.26   -43281.101    3756.1265   -47037.227    201.75277   0.99768582 
   16500    275.17057   -98.360885    137961.54   -43276.465    3778.8051    -47055.27    202.41734   0.99916628 
   16600    273.56577    39.425387       137983   -43321.037    3756.7671   -47077.804    203.38214   0.99901087 
   16700    273.26659   -140.72314    137843.27   -43326.986    3752.6585   -47079.645    204.52027    1.0000236 
   16800    274.08388   -199.99908    137841.87    -43326.19    3763.8821   -47090.072    206.07786    1.0000337 
   16900    268.52231   -147.18421    137529.43   -43346.875    3687.5073   -47034.382    207.51699    1.0023056 
   17000    273.50596  -0.46248459    137396.23   -43364.336    3755.9457   -47120.282    208.65998    1.0032773 
   17100    272.69977   -80.039845    137332.16   -43389.945    3744.8747   -47134.819    210.41972    1.0037453 
   17200    272.78482    17.071557    137644.99   -43323.376    3746.0425   -47069.418    212.57448    1.0014641 
   17300    271.35027    -36.56454    137709.83   -43259.428    3726.3425    -46985.77    214.86952    1.0009926 
   17400    270.77549   -164.79096    137750.69   -43321.438    3718.4493   -47039.887    216.57596    1.0006956 
   17500    269.29262    232.94978    137754.77   -43290.006    3698.0857   -46988.092    218.02733     1.000666 
   17600    272.52505   -92.531358    137492.18   -43377.696    3742.4752   -47120.171    219.29433    1.0025772 
   17700    269.62008    6.0250353    137346.01   -43387.285    3702.5825   -47089.868      220.945    1.0036441 
   17800    268.18629   -5.9090741    137498.99   -43356.054    3682.8929   -47038.947    222.50822    1.0025275 
   17900    271.31117   -93.540549       137396   -43398.059    3725.8056   -47123.864    223.77864     1.003279 
   18000    269.35893    -55.31467    137148.51   -43483.551    3698.9962   -47182.547    224.95792    1.0050895 
   18100    268.87112   -149.66303    137232.89   -43509.737    3692.2974   -47202.034    226.49213    1.0044715 
   18200    273.86668   -53.735501    137512.81   -43374.266    3760.8993   -47135.165    227.84229    1.0024267 
   18300    269.43605    211.64521    137480.13   -43440.528    3700.0553   -47140.583    228.90929     1.002665 
   18400     267.5341    59.669065    137471.25   -43459.295    3673.9366   -47133.232     230.1856    1.0027298 
   18500    269.94984   -29.996866    137583.52   -43390.843     3707.111   -47097.954    231.28082    1.0019116 
   18600    272.33723    49.400843    137566.73   -43351.181    3739.8961   -47091.077    232.31154    1.0020338 
   18700    268.06622   -201.02619    137172.53   -43290.298    3681.2439   -46971.542    233.49793    1.0049134 
   18800     269.1316    210.86607    137097.45    -43288.79    3695.8744   -46984.665    234.80385    1.0054638 
   18900    271.04147   -123.16623    137325.32   -43393.407     3722.102   -47115.509    236.02249    1.0037953 
   19000    274.56659    83.795555     137232.3   -43352.917     3770.511   -47123.428    237.64736    1.0044757 
   19100    267.32789    189.50369     137350.3   -43402.823    3671.1048   -47073.927    239.35651    1.0036128 
   19200     268.3555    91.384791    137596.14   -43402.228    3685.2166   -47087.444     241.1134    1.0018197 
   19300    274.87517   -225.13052    137652.05   -43358.809    3774.7486   -47133.557    241.80347    1.0014127 
   19400    266.43333   -87.751166    137538.25   -43372.487    3658.8202   -47031.307     243.1855    1.0022413 
   19500    268.71205   -26.279842    137431.92   -43338.398     3690.113   -47028.511    244.11948    1.0030167 
   19600    272.19245    95.206211    137503.65   -43353.538    3737.9078   -47091.446    246.10564    1.0024935 
   19700    274.36662   -78.038783    137482.61   -43363.516    3767.7648   -47131.281    247.24414    1.0026469 
   19800     274.3959   -56.972326    137443.05   -43283.315     3768.167   -47051.482     248.5273    1.0029355 
   19900    279.52456    16.606542    137474.38   -43295.135    3838.5966   -47133.731    250.57535     1.002707 
   20000    274.06884       113.11    137603.55   -43235.596    3763.6755   -46999.271    252.05338    1.0017657 
   20100    271.14461   -18.211438    137779.66   -43254.315    3723.5183   -46977.833    253.96516    1.0004852 
   20200    271.52561    39.771786    137814.74   -43226.159    3728.7504   -46954.909    255.11252    1.0002306 
   20300    274.98691    63.316847    137946.74    -43187.76     3776.283   -46964.043    255.82465   0.99927348 
   20400    272.84938   -30.716724    137772.44   -43289.315    3746.9292   -47036.244    257.30732    1.0005376 
   20500    272.27162   -154.49983    137782.14   -43235.796     3738.995   -46974.791    258.29231    1.0004672 
   20600    271.47761    9.2129458    137593.34   -43279.961    3728.0912   -47008.052    259.80648      1.00184 
   20700    268.10801    116.23857    137609.89   -43314.816    3681.8179   -46996.634    260.92464    1.0017195 
   20800    273.73658    7.8189357    137718.81   -43322.975    3759.1128   -47082.088    262.10334    1.0009273 
   20900    274.44922    14.466704     137924.5   -43361.167    3768.8991   -47130.066    263.44107   0.99943456 
   21000     270.8314    34.458781    137893.02   -43298.982     3719.217   -47018.199    265.71014   0.99966277 
   21100    272.05955   -71.188989    137746.54   -43326.011    3736.0828   -47062.094    266.92817    1.0007258 
   21200    268.33903    16.679349    137465.27   -43441.645    3684.9904   -47126.635    268.26775    1.0027734 
   21300    268.08407   -101.27407    137145.89   -43487.507    3681.4891   -47168.996    268.60315    1.0051086 
   21400    275.44557    45.000831    137270.96   -43425.403    3782.5816   -47207.984    270.55385    1.0041928 
   21500    272.88668    78.785916    137311.26   -43293.328    3747.4414   -47040.769     271.9197    1.0038982 
   21600    270.40375   -70.798148    137269.24   -43397.684    3713.3444   -47111.029    273.52741    1.0042054 
   21700    266.64639    44.693568     137169.1     -43389.7    3661.7461   -47051.446    275.38578    1.0049385 
   21800    268.71687    216.92832    137484.25   -43275.495    3690.1791   -46965.674    276.73975     1.002635 
   21900    274.91209    48.025947    137436.88   -43258.752    3775.2555   -47034.008    277.76909    1.0029806 
   22000    271.29967    43.373212    137611.94   -43268.029    3725.6477   -46993.677    278.95449    1.0017046 
   22100    270.52112     16.13517    137629.83   -43245.303    3714.9561   -46960.259    280.26647    1.0015744 
   22200    278.06108    35.411461    137561.82   -43185.329    3818.4993   -47003.829    282.68361    1.0020696 
   22300    273.32839   -83.786983    137463.55   -43212.672    3753.5072   -46966.179    284.30668    1.0027859 
   22400    272.33564    -39.83402    137637.38   -43382.949    3739.8743   -47122.823    285.28952    1.0015195 
   22500    272.66507   -176.09452    137624.82   -43354.646    3744.3982   -47099.044     286.6264    1.0016109 
   22600    272.64578   -37.856595    137464.24   -43372.789    3744.1332   -47116.922    287.72926    1.0027809 
   22700     269.0102    73.049793    137630.99   -43395.916    3694.2073   -47090.123    289.62609     1.001566 
   22800    266.12329    18.262272       137641   -43460.098    3654.5625    -47114.66    290.92814    1.0014931 
   22900    267.37234      -145.48    137195.41   -43500.377    3671.7153   -47172.093    290.38328    1.0047458 
   23000    268.81888    16.929193    136925.13   -43401.313      3691.58   -47092.893    291.67775    1.0067291 
   23100    272.00196    75.009711    137235.76    -43377.55    3735.2919   -47112.842    293.94745    1.0044504 
   23200    264.13705    289.22608    137419.33   -43356.303    3627.2864   -46983.589    295.51467    1.0031087 
   23300    271.14005   -25.618178    137423.24   -43402.522    3723.4556   -47125.977    296.80302    1.0030801 
   23400     269.2141   -3.1488085    137227.53   -43418.577    3697.0074   -47115.584    297.97893    1.0045107 
   23500    268.41447   -10.323404    137067.69   -43380.115    3686.0264   -47066.142    298.96438     1.005682 
   23600    273.97648    55.420366    137151.53   -43428.039    3762.4072   -47190.446    300.30493    1.0050673 
   23700    268.63849    -45.89179    137298.91   -43457.791    3689.1028   -47146.894     301.4009    1.0039884 
   23800    272.52195    -113.8668    137522.95   -43400.836    3742.4328   -47143.269    303.05639    1.0023528 
   23900     270.1394    107.61254    137454.62    -43356.35    3709.7142   -47066.064    304.38078    1.0028511 
   24000    275.17494    298.67363    137450.35   -43314.888    3778.8651   -47093.753    305.91975    1.0028823 
   24100    277.09715    18.015676     137694.3   -43359.698    3805.2621    -47164.96    307.74224    1.0011054 
   24200    278.05353   -9.6725798    137817.33   -43259.073    3818.3956   -47077.468    309.60228    1.0002118 
   24300    269.74569    38.490339    137869.29   -43342.625    3704.3075   -47046.933    310.41252   0.99983479 
   24400    274.07733   -69.573406    137670.01   -43283.872    3763.7921   -47047.664    311.44242    1.0012821 
   24500    270.53716   -90.715516    137858.22   -43324.464    3715.1764    -47039.64    313.11616   0.99991512 
   24600    273.44734   -133.15744    138001.67   -43350.614    3755.1407   -47105.755    314.12762   0.99887574 
   24700    273.53614   -89.183856    138008.48   -43296.797    3756.3602   -47053.158    315.50865    0.9988264 
   24800    274.65536    88.632737    137730.37   -43270.291      3771.73   -47042.021    316.74259    1.0008433 
   24900    272.13272    105.88599    137961.44   -43364.265    3737.0876   -47101.353    318.48747   0.99916701 
   25000    272.68228   -86.476949    137639.66   -43419.733    3744.6344   -47164.368    319.58986    1.0015029 
   25100    270.63437   -46.901305    137578.69   -43395.868    3716.5113   -47112.379    320.81888    1.0019467 
   25200    268.58867   -13.837485    137389.16   -43419.531    3688.4186   -47107.949    322.11629    1.0033289 
   25300    266.92716    7.0838201    137460.71   -43448.672    3665.6017   -47114.274    323.87233    1.0028067 
   25400    269.55929   -29.075927    137378.13    -43414.59    3701.7477   -47116.338     325.2798    1.0034094 
   25500     270.6013    135.80371    137269.63   -43361.341    3716.0572   -47077.398    326.42151    1.0042026 
   25600    268.04634   -31.190367    137340.69   -43448.153     3680.971   -47129.124    328.03713     1.003683 
   25700    267.85589   -76.045275    137322.76   -43467.109    3678.3556   -47145.465    329.00508     1.003814 
   25800    274.75847    43.740858    137405.54   -43443.682    3773.1459   -47216.828    330.17492    1.0032093 
   25900    265.78922   -28.973822    137361.32   -43590.028    3649.9749   -47240.003    331.95657    1.0035323 
   26000    273.87059    129.14761    137485.22   -43451.656    3760.9531   -47212.609    333.89586    1.0026279 
   26100    266.04856    61.726688    137667.83   -43517.547    3653.5363   -47171.083    335.15427     1.001298 
   26200    275.59637   -61.449079    137413.36   -43391.431    3784.6525   -47176.084    336.07665    1.0031522 
   26300    274.39944    6.9237065    137219.21   -43332.868    3768.2155   -47101.084    337.26418    1.0045716 
   26400    268.43707    135.50623    137302.32   -43415.898    3686.3368   -47102.234    338.65455    1.0039635 
   26500    270.01492    128.29834    137536.18   -43257.135    3708.0047    -46965.14    340.40629    1.0022564 
   26600    274.58389     11.03929    137895.92   -43270.295    3770.7484   -47041.044    342.13468   0.99964173 
   26700     275.2037    18.852436    137770.81   -43316.779    3779.2601   -47096.039    343.82772    1.0005495 
   26800    274.94077    2.5231243    137627.84   -43301.209    3775.6494   -47076.858     345.2655    1.0015889 
   26900    272.05797   -128.70199    137626.05   -43377.587    3736.0611   -47113.648    347.09427    1.0016019 
   27000    271.10424   -118.54239    137709.02   -43381.221     3722.964   -47104.185    348.64179    1.0009985 
   27100    272.24823    -109.3604    137582.97   -43383.898    3738.6738   -47122.572    349.40199    1.0019156 
   27200    275.55296    102.66489    137438.63   -43313.253    3784.0563   -47097.309    350.52179    1.0029678 
   27300    272.80597   -141.84048    137687.28   -43284.105     3746.333   -47030.438    352.21128    1.0011565 
   27400    275.28993   -103.48865    137858.42    -43252.72    3780.4442   -47033.164     354.6087   0.99991363 
   27500    269.70218   -137.76858    138199.92   -43363.027      3703.71   -47066.737    355.74044   0.99744283 
   27600    273.57021   -118.63653    137909.87   -43348.892    3756.8281    -47105.72    356.45494   0.99954061 
   27700     270.5657    107.17208    137946.43    -43370.04    3715.5683   -47085.608    357.34758   0.99927573 
   27800    271.88002   -52.022971    138050.43   -43307.669    3733.6173   -47041.286    359.14411   0.99852289 
   27900    269.56529    159.28338    137793.64   -43319.594    3701.8301   -47021.424    359.95267    1.0003837 
   28000    274.49879   -57.697031     137887.6   -43185.557    3769.5798   -46955.137    361.41978   0.99970206 
   28100    276.36051   -100.84589    137947.45   -43246.605    3795.1461   -47041.751    362.87807   0.99926836 
   28200    266.69741   -62.018634    137426.73   -43370.353    3662.4467     -47032.8    362.90768    1.0030546 
   28300    266.92218    89.330973    137547.14   -43414.977    3665.5334    -47080.51    364.91404    1.0021765 
   28400    269.24776    -10.42057    137501.63    -43284.26    3697.4696   -46981.729    366.52131    1.0025082 
   28500    269.27202     13.95711     137504.6   -43302.273    3697.8027   -47000.076    367.90211    1.0024866 
   28600    271.24195   -127.21207    137317.51   -43359.391     3724.855   -47084.246    368.85325    1.0038524 
   28700    270.00557   -31.553275    137326.56   -43412.325    3707.8762   -47120.201    370.04427    1.0037863 
   28800     270.7486    21.614416    137366.13    -43389.28      3718.08    -47107.36    372.19411    1.0034971 
   28900      272.541    1.2549331    137384.13     -43394.2    3742.6944   -47136.894    372.92996    1.0033656 
   29000     269.4161    25.004995     137561.2   -43402.127    3699.7813   -47101.909    374.90031    1.0020741 
   29100    269.74832    111.41348     137631.2   -43342.468    3704.3435   -47046.811    376.14852    1.0015644 
   29200    271.42201   -22.926517    137389.23   -43359.444    3727.3278   -47086.772    377.62407    1.0033284 
   29300    266.56636    19.509418    137270.86    -43398.27     3660.647   -47058.917    378.54474    1.0041935 
   29400    271.59259    -41.21062    137422.77   -43383.991    3729.6703   -47113.662    379.98531    1.0030836 
   29500    271.28265   -63.338921    137334.09   -43403.238     3725.414   -47128.652    381.23238    1.0037313 
   29600    269.27298    234.74342    137484.07    -43388.68    3697.8159   -47086.496    382.46155    1.0026363 
   29700    268.66181   -31.387748    137503.02   -43368.102     3689.423   -47057.525    383.96504    1.0024981 
   29800    270.93792   -43.654757    137458.79    -43371.29    3720.6799    -47091.97    385.34946    1.0028206 
   29900    276.81081    182.75727    137615.81   -43312.357    3801.3299   -47113.687    387.24293    1.0016764 
   30000    265.37287    24.158034    137757.59   -43284.571    3644.2573   -46928.828     389.0467    1.0006455 
   30100    272.71175    25.260636    137590.94   -43275.643    3745.0391   -47020.683    389.97108    1.0018575 
   30200     274.1049    41.986899    137502.57   -43323.165    3764.1708   -47087.336     390.9141    1.0025014 
   30300    276.56996   -43.418471    137797.32   -43290.389    3798.0224   -47088.412     392.8504     1.000357 
   30400    267.92168    48.685439    137728.72   -43388.563     3679.259   -47067.822    394.04612    1.0008553 
   30500    268.46808    146.56325     137413.9   -43448.116    3686.7626   -47134.879    394.44397    1.0031482 
   30600    268.96102    96.246362    137488.35    -43411.42     3693.532   -47104.952    396.92124    1.0026051 
   30700    270.48547     108.2643    137498.93   -43408.065    3714.4665   -47122.531    397.80954     1.002528 
   30800    274.00149    243.03408    137938.01   -43410.106    3762.7507   -47172.857    400.30344   0.99933671 
   30900    271.57641   -32.378481    138359.77   -43400.417    3729.4481   -47129.865    402.11587   0.99629042 
   31000    275.86664   -92.246417    138181.71   -43398.459     3788.364   -47186.823    402.52759   0.99757424 
   31100    270.42224   -123.42891    138142.82   -43491.126    3713.5982   -47204.724    403.46157   0.99785512 
   31200    267.75189    163.46761    137967.77   -43570.605    3676.9275   -47247.532    404.72643   0.99912116 
   31300     269.4736   -93.827406    138071.93   -43429.006    3700.5709   -47129.577     405.5122   0.99836739 
   31400    268.78249   -6.4023128    138095.05   -43508.763    3691.0803   -47199.843    406.96092   0.99820027 
   31500    269.27754    -122.7846    137960.94    -43397.41    3697.8785   -47095.289    408.38974   0.99917064 
   31600    271.32227   -135.66212    137956.96   -43395.207     3725.958   -47121.165    409.48345   0.99919943 
   31700    271.73928   -97.988609    137771.34   -43385.556    3731.6847   -47117.241    410.43979    1.0005456 
   31800    268.38399   -84.819364    137670.01   -43381.563    3685.6079   -47067.171    411.31586    1.0012821 
   31900    271.53083    111.91368     137683.3   -43345.223    3728.8221   -47074.045    412.31195    1.0011855 
   32000    268.06165   -85.918108    137761.73   -43320.673    3681.1812   -47001.855    413.63186    1.0006155 
   32100    271.69942   -92.219851    137628.56   -43386.622    3731.1372   -47117.759    414.75196    1.0015837 
   32200    269.74924   -115.77505    137564.37   -43326.572    3704.3562   -47030.928    415.95182     1.002051 
   32300    269.11438    102.12548    137820.44   -43371.198     3695.638   -47066.836    417.91573    1.0001892 
   32400    274.41401    -91.81287    137680.72   -43319.386    3768.4156   -47087.801    419.59515    1.0012042 
   32500    268.46243    94.869096    137482.14   -43360.245     3686.685    -47046.93     420.8637    1.0026503 
   32600    268.95014   -18.246743    137531.03   -43380.888    3693.3825   -47074.271    422.66637    1.0022939 
   32700    272.74847   -11.167747    137523.32   -43355.288    3745.5434   -47100.831    423.54211    1.0023501 
   32800    274.87325   -249.20262     137416.6   -43401.226    3774.7222   -47175.948    423.89235    1.0031285 
   32900    265.56569    6.1531919    137340.36   -43467.208    3646.9052   -47114.114    425.45444    1.0036854 
   33000    266.85438    59.085051    137346.76   -43444.437    3664.6023   -47109.039     426.4907    1.0036387 
   33100    270.52522    45.958685    137164.56   -43502.243    3715.0125   -47217.256    427.38312    1.0049718 
   33200    274.41353   -49.746357    137324.58   -43391.812     3768.409   -47160.221    429.46688    1.0038008 
   33300    269.73453    205.94681    137509.33   -43368.629    3704.1542   -47072.783    431.77715    1.0024521 
   33400    270.44021   -2.3322789    137294.03   -43435.501     3713.845   -47149.346    432.31456    1.0040241 
   33500    271.39886    194.53007    137362.66    -43300.74    3727.0098    -47027.75    433.78591    1.0035225 
   33600    271.34715    46.744256    137311.96   -43366.916    3726.2997   -47093.216    434.22326     1.003893 
   33700    269.80072   -69.749192    137317.57    -43377.12    3705.0632   -47082.183    435.74817     1.003852 
   33800    270.37643    36.611083    137509.74   -43374.366    3712.9692   -47087.335    438.36763    1.0024491 
   33900     275.6965   -116.49849    137593.93   -43380.695    3786.0276   -47166.722     439.9495    1.0018357 
   34000    274.05802   -195.20333    137377.89   -43374.559    3763.5269   -47138.086    442.05539    1.0034112 
   34100    274.86558    96.974775    137373.83   -43436.893    3774.6169    -47211.51    444.09507    1.0034409 
   34200    270.84291    249.10662    137494.55   -43434.284    3719.3751   -47153.659    446.03037    1.0025598 
   34300    268.30304   -68.275009    137566.25   -43424.187    3684.4961   -47108.683    447.25285    1.0020373 
   34400    277.53365    151.95065    137425.71   -43295.317    3811.2564   -47106.573    448.93418    1.0030621 
   34500    280.13728   -127.65912    137581.65   -43265.919     3847.011    -47112.93    451.10682    1.0019252 
   34600    277.71069    168.31555    137255.27   -43284.081    3813.6876   -47097.769    451.95497    1.0043076 
   34700    271.39127     138.6807     137405.2   -43342.446    3726.9055   -47069.351    453.77493    1.0032118 
   34800    270.96481   -88.222462    137506.63   -43373.587    3721.0492   -47094.636    455.87079    1.0024718 
   34900    268.50352     13.75711    137306.08   -43363.142    3687.2492   -47050.391    457.06373     1.003936 
   35000    269.62163    100.56397    137138.59   -43381.247    3702.6038   -47083.851    458.44118    1.0051621 
   35100    271.67828    252.13534    137202.68    -43336.35     3730.847   -47067.197    460.26455    1.0046926 
   35200    272.76967     94.65439    137414.46    -43227.12    3745.8346   -46972.954    462.59791    1.0031442 
   35300    275.26788    5.5502579    137546.39   -43247.483    3780.1414   -47027.625    464.27446     1.002182 
   35400    268.43305    90.767101    137508.22   -43359.071    3686.2815   -47045.353    465.35148    1.0024602 
   35500    273.48686    90.941714    137503.43    -43342.36    3755.6835   -47098.044    467.06877    1.0024951 
   35600    270.13479    70.555389    137513.36   -43366.881    3709.6508   -47076.532    468.92842    1.0024227 
   35700    273.96818    125.00438    137559.73   -43340.002    3762.2932   -47102.295    469.60818    1.0020848 
   35800    269.44462   -87.931079    137677.12   -43332.913     3700.173   -47033.086    471.16441    1.0012304 
   35900    272.37446    55.518301     137516.3    -43286.48    3740.4072   -47026.887      472.506    1.0024013 
   36000    270.74674    161.15536    137385.36   -43326.631    3718.0545   -47044.686    474.80391    1.0033566 
   36100    272.59839    50.269445     137427.8   -43379.918    3743.4824     -47123.4    476.55216    1.0030468 
   36200    272.12969   -36.355778    137504.79   -43331.692    3737.0459   -47068.737    477.75521    1.0024852 
   36300    268.36388    144.07079    137670.81   -43330.864    3685.3316   -47016.195    480.05574    1.0012763 
   36400    267.35209   -60.576579     137693.8   -43305.882    3671.4372   -46977.319    482.12404    1.0011091 
   36500    275.17014    101.59595    137831.76   -43216.468    3778.7992   -46995.267    483.48022    1.0001071 
   36600    271.19663   -61.711138    137692.11   -43310.372    3724.2327   -47034.605     484.6666    1.0011214 
   36700    277.23537   -53.484142    137457.43   -43326.247    3807.1602   -47133.407    485.17627    1.0028306 
   36800    273.01862    38.384812     137344.6   -43408.149    3749.2533   -47157.403    486.82088    1.0036544 
   36900    265.70756   -35.136586    137704.09    -43446.12    3648.8534   -47094.973    489.35721    1.0010343 
   37000    274.31465    45.055333    137896.65   -43351.735    3767.0511   -47118.786    491.04051   0.99963647 
   37100    265.59653  -0.34008693    137771.12   -43412.938    3647.3288   -47060.266    492.57604    1.0005473 
   37200    273.02807    91.929421    137477.91    -43386.06    3749.3831   -47135.443    492.58619    1.0026812 
   37300    270.87811    -281.2309    137428.09    -43408.75    3719.8585   -47128.609    493.97654    1.0030447 
   37400    267.86493   -82.922663    137585.84    -43443.92    3678.4798     -47122.4    495.76564    1.0018946 
   37500    266.35405    62.897996    137758.26   -43473.391    3657.7315   -47131.123     497.3451    1.0006406 
   37600    270.27451    95.235538    137943.49   -43385.477    3711.5696   -47097.047    498.29409   0.99929699 
   37700    271.48508    -56.22227    137814.82   -43417.617    3728.1939   -47145.811    498.82551      1.00023 
   37800    269.61629   -26.587115    137570.27   -43443.034    3702.5305   -47145.565    500.22278     1.002008 
   37900    262.60956    87.729702    137367.23   -43439.383    3606.3099   -47045.693    500.53464    1.0034891 
   38000    268.53866   -120.72154    137590.92    -43452.82    3687.7319   -47140.552    502.13126    1.0018577 
   38100    272.84486    14.389879    137583.26   -43486.719    3746.8671   -47233.586    503.68086    1.0019134 
   38200    268.97926   -159.45294    137862.74   -43478.386    3693.7824   -47172.168    505.39569   0.99988231 
   38300    267.92331   -99.433245    137304.66   -43529.009    3679.2815   -47208.291     505.4108    1.0039464 
   38400    269.26338   -34.877201    137253.17   -43572.806    3697.6841    -47270.49    506.54516     1.004323 
   38500    261.76422     20.09364    137433.52   -43605.759    3594.7012    -47200.46    508.43679     1.003005 
   38600    269.28094   -55.289241    137399.32   -43506.077    3697.9252   -47204.002     510.6551    1.0032547 
   38700    269.53118    124.55476    137493.87   -43441.446    3701.3617   -47142.808    512.55458    1.0025648 
   38800    270.02385   -31.242274    137361.76   -43377.666    3708.1273   -47085.793    513.71338     1.003529 
   38900    274.25235   -11.730448    137580.07    -43316.03    3766.1956   -47082.226    515.74277    1.0019367 
   39000    270.93369   -91.727881    137607.41   -43356.624    3720.6218   -47077.245     517.1398    1.0017376 
   39100    273.83492   -152.33305    137581.89    -43328.86    3760.4633   -47089.323    518.78857    1.0019234 
   39200    272.78708   -63.721618    137565.15   -43366.887    3746.0737   -47112.961    520.06453    1.0020454 
   39300    278.22599    43.070198    137834.73   -43344.354    3820.7639   -47165.118    522.89085    1.0000855 
   39400    270.20769   -70.440099     137827.4   -43353.872     3710.652   -47064.524    524.14091    1.0001387 
   39500    271.15305    36.030925    137352.87   -43324.708    3723.6341   -47048.342    523.57465     1.003594 
   39600    272.37001   -164.11102    137648.88   -43326.375    3740.3462   -47066.721    526.37401    1.0014358 
   39700    276.86019   -122.73362    137623.87    -43337.74     3802.008   -47139.748    527.32863    1.0016178 
   39800    276.28936    44.968408     137491.7   -43348.036    3794.1691   -47142.205    528.49717    1.0025806 
   39900    268.91034   -149.97673    137463.37   -43443.024    3692.8359    -47135.86      529.751    1.0027873 
   40000    270.61344   -25.050234    137232.47   -43466.697    3716.2239   -47182.921    529.88239    1.0044745 
   40100    270.81268   -102.75984    137435.92   -43412.843      3718.96   -47131.803    530.97358    1.0029875 
   40200    275.96568    64.442222     137370.4   -43354.442    3789.7241   -47144.166    531.87525    1.0034659 
   40300    271.82482   -78.308497    137707.43    -43324.14    3732.8593   -47056.999    534.98259    1.0010101 
   40400    268.28408   -85.067931    137799.18   -43328.073    3684.2357   -47012.309    536.78806    1.0003435 
   40500    265.65661    -18.13152    137818.67   -43374.802    3648.1539   -47022.956    538.80326    1.0002021 
   40600     273.1523    51.002133    137882.82   -43312.928    3751.0891   -47064.017    540.48575   0.99973669 
   40700    271.60008   -25.544944    137834.53    -43387.37    3729.7731   -47117.143    542.20282    1.0000869 
   40800     275.0718    4.3370527    137830.71   -43380.168    3777.4487   -47157.617    543.17117    1.0001147 
   40900     269.6695    27.399396    137823.85    -43351.44    3703.2612   -47054.701    545.07176    1.0001645 
   41000    272.27483   -101.35994    137865.41   -43388.618    3739.0391   -47127.657    547.14909   0.99986294 
   41100    263.98999   -130.91882     137562.4   -43436.944    3625.2669   -47062.211    547.21009    1.0020653 
   41200    270.57674   -8.7777302    137538.26   -43268.677      3715.72   -46984.397    548.97629    1.0022412 
   41300    274.96252   -190.55378    137435.21   -43397.788    3775.9481   -47173.736    550.17861    1.0029927 
   41400    267.44959   -26.335569     137310.7   -43413.686    3672.7761   -47086.462    550.46131    1.0039022 
   41500    265.31457    27.086799    137446.05   -43402.575    3643.4567   -47046.031    551.36662    1.0029136 
   41600    271.69587    268.39566    137327.77   -43357.103    3731.0885   -47088.191    551.29765    1.0037774 
   41700    268.21589   -145.63084    137350.25   -43509.425    3683.2993   -47192.724    553.02593    1.0036132 
   41800    271.62428    72.742475    137286.32   -43409.259    3730.1055   -47139.365    553.77148    1.0040805 
   41900    276.07922    26.463422    137377.73   -43315.146    3791.2833   -47106.429    554.95878    1.0034124 
   42000    268.41611   -223.08705    137382.86   -43411.916    3686.0489   -47097.965    555.46855     1.003375 
   42100    270.56857    18.316057     137230.5   -43376.034    3715.6078   -47091.642    555.82593     1.004489 
   42200    271.73341     111.7323    137229.63   -43367.988    3731.6041   -47099.592    556.80145    1.0044953 
   42300    270.86869   -28.568056    137356.24   -43404.637    3719.7292   -47124.366    557.69443    1.0035694 
   42400    267.29218   -106.80703    137548.11   -43463.862    3670.6144   -47134.476    559.85481    1.0021695 
   42500    266.57633   -80.979304    137467.93   -43382.584    3660.7839   -47043.368    561.26896     1.002754 
   42600    267.89347   -38.802689    137406.95   -43430.194    3678.8717   -47109.065    562.31804     1.003199 
   42700    270.51079    39.023323    137436.61   -43423.034    3714.8143   -47137.848    563.92021    1.0029825 
   42800     266.0825    147.31164    137685.47   -43542.206    3654.0024   -47196.209    566.77856    1.0011697 
   42900    267.29048    -43.58699     137586.9    -43472.13    3670.5911   -47142.721    568.81128     1.001887 
   43000    268.45145   -17.682484    137505.17   -43405.182    3686.5342   -47091.716    570.53454    1.0024824 
   43100    269.20013   -162.53858    137358.08   -43439.208    3696.8156   -47136.024    570.57129    1.0035559 
   43200    263.55549   -67.209902     137225.8   -43416.424    3619.2999   -47035.724    571.90465    1.0045234 
   43300    269.45368    74.669129     137358.1   -43412.234    3700.2975   -47112.532     574.4988    1.0035558 
   43400    267.40377   -8.3750309    137325.95   -43474.588    3672.1468   -47146.734    575.09236    1.0037908 
   43500    271.84892    22.191709    137342.56   -43447.353    3733.1903   -47180.543    575.84629    1.0036693 
   43600    270.26038    75.071461    137438.12   -43397.882    3711.3755   -47109.257    578.26169    1.0029715 
   43700    268.33018   -67.895424    137212.11   -43429.571    3684.8688    -47114.44    579.48454    1.0046235 
   43800    271.58598     88.33061     137293.2   -43361.364    3729.5794   -47090.943    580.73534    1.0040302 
   43900    274.71249   -89.274597    137111.92   -43378.417    3772.5145   -47150.932     580.9171    1.0053577 
   44000    272.75168   -68.915927     137294.1   -43383.744    3745.5875   -47129.331    582.83532    1.0040236 
   44100    270.85116    10.880043    137229.64   -43324.381    3719.4884   -47043.869    584.82938    1.0044952 
   44200    272.88884   -165.50487    137163.99   -43337.095    3747.4711   -47084.566    586.02365     1.004976 
   44300    266.54503   -16.679674    137100.38   -43409.344    3660.3541   -47069.698    587.09292    1.0054423 
   44400    268.91369    3.2772791    137125.78   -43411.972    3692.8819   -47104.854    588.56383     1.005256 
   44500    261.51663    213.90398    137385.18   -43466.378    3591.3012   -47057.679    590.80967     1.003358 
   44600    269.27426   -15.935108    137276.87    -43443.52    3697.8335   -47141.354    591.11968    1.0041496 
   44700    269.36964    12.865961    137219.39   -43491.847    3699.1433    -47190.99    592.44796    1.0045702 
   44800     263.4706    167.50592    137512.22   -43439.206    3618.1342    -47057.34    594.10216     1.002431 
   44900    266.80364   -23.208822    137544.54   -43410.464    3663.9055   -47074.369    594.64201    1.0021955 
   45000    271.86146    52.165223    137440.33   -43429.837    3733.3624     -47163.2    596.20676    1.0029553 
   45100    267.19003    137.03691    137756.29   -43445.619    3669.2116   -47114.831    599.09802     1.000655 
   45200    268.47901    9.4926885    137462.49   -43430.768    3686.9126    -47117.68    599.54865    1.0027937 
   45300    270.77421   -129.17173    137650.18   -43440.023    3718.4318   -47158.455    601.57569    1.0014263 
   45400    267.60471    -34.94549    137732.71   -43434.837    3674.9063   -47109.744    603.35623    1.0008263 
   45500    267.71205    103.69569    137724.37   -43386.192    3676.3804   -47062.572    604.49502    1.0008869 
   45600    274.81141    152.10835    137713.12   -43369.736    3773.8729   -47143.609    606.07355    1.0009687 
   45700    269.91664   -143.19812    137549.44   -43416.944     3706.655   -47123.599    607.05547    1.0021598 
   45800    273.54142   -27.413644    137581.99   -43326.241    3756.4327   -47082.673    608.62885    1.0019227 
   45900    266.72449   -14.773362    137466.46   -43340.128    3662.8186   -47002.947    609.65871    1.0027647 
   46000    270.65734    294.84056    137691.53   -43390.323    3716.8268    -47107.15    611.11404    1.0011256 
   46100    269.33281    187.45085    137624.69   -43421.004    3698.6376   -47119.641    611.93665    1.0016118 
   46200    272.42755   -49.478676    137593.92   -43356.592    3741.1364   -47097.728    613.13815    1.0018358 
   46300    271.48468    75.374532    137508.82   -43314.077    3728.1883   -47042.265    614.29092    1.0024558 
   46400    273.56535    139.87204    137426.59   -43327.703    3756.7614   -47084.464    615.75395    1.0030557 
   46500    271.42064    9.7551842    137613.35   -43356.301    3727.3089    -47083.61    618.78293    1.0016943 
   46600    275.87949    4.7098546    137529.03   -43250.119    3788.5405    -47038.66    619.24989    1.0023085 
   46700    273.10694     77.95384    137618.12   -43261.766    3750.4662   -47012.233    620.03591    1.0016597 
   46800    275.22373   -113.54015     137824.2   -43171.541    3779.5352   -46951.076     622.0889    1.0001619 
   46900    272.09303    47.490887    137843.88   -43225.041    3736.5426   -46961.583    623.99223    1.0000191 
   47000    274.44655    -185.5033    137877.15   -43247.932    3768.8625   -47016.794    626.47148   0.99977781 
   47100    275.46718   -230.44381       137804   -43289.133    3782.8783   -47072.011    627.76554    1.0003085 
   47200     275.1936    181.48478    138033.27   -43263.599    3779.1214    -47042.72    629.44024   0.99864704 
   47300     271.1013    283.47083    138206.85   -43321.871    3722.9235   -47044.795     630.7554   0.99739282 
   47400     278.5191   -126.70774    138049.36   -43309.267    3824.7892   -47134.057    632.19822   0.99853066 
   47500    266.31986   -78.016425    137768.25    -43343.46     3657.262   -47000.722    632.93708    1.0005681 
   47600    268.43495   -63.628036    137752.48   -43311.544    3686.3076   -46997.851    634.24902    1.0006826 
   47700     270.7448   -89.699712    137831.74   -43358.462    3718.0279    -47076.49    635.41484    1.0001072 
   47800    269.44127    139.90161     137623.2   -43353.181     3700.127   -47053.308       636.38    1.0016227 
   47900    274.95864   -62.301307    137489.09   -43354.184    3775.8948   -47130.079    637.25888    1.0025997 
   48000    269.06516   -35.031486    137675.88   -43455.091     3694.962   -47150.053    638.74322    1.0012394 
   48100    266.48564     10.17186    137646.79   -43434.187    3659.5385   -47093.726    640.71549     1.001451 
   48200     274.2232   -216.40361     137666.7    -43398.79    3765.7953   -47164.585    641.86072    1.0013062 
   48300    270.20064    213.41675    137751.44   -43366.337    3710.5551   -47076.892    643.34101    1.0006902 
   48400    272.29817    112.06888    137946.15   -43344.205    3739.3596   -47083.565     644.7349   0.99927771 
   48500    270.35299    17.727281    137887.68   -43386.639    3712.6473   -47099.286    645.81405   0.99970147 
   48600    271.92258   -171.50618     137886.8   -43419.466    3734.2018   -47153.668     647.2821   0.99970786 
   48700      268.949   -120.11538    137948.12     -43482.3    3693.3668   -47175.666    648.78977   0.99926343 
   48800    271.29761   -91.222923    138008.97    -43478.29    3725.6194   -47203.909    649.94346   0.99882286 
   48900    271.66428    102.42223    137987.45    -43444.09    3730.6547   -47174.744    650.45457   0.99897862 
   49000    268.83949    3.5715538     137912.3   -43462.665     3691.863   -47154.528    650.69008   0.99952304 
   49100    266.99624   -35.424921    137695.57   -43432.547    3666.5504   -47099.098    651.31075    1.0010962 
   49200    263.55057   -32.200078    137422.53   -43538.687    3619.2324   -47157.919    652.24994    1.0030853 
   49300    264.33313     141.7087    137413.28   -43492.411    3629.9791    -47122.39    653.08645    1.0031528 
   49400    268.81127    23.225312       137813   -43359.879    3691.4755   -47051.355    655.92192    1.0002432 
   49500    271.40373   -121.91926    137931.35   -43336.082    3727.0767   -47063.158    656.85977   0.99938496 
   49600    275.44022    -193.0052    137882.82   -43407.806    3782.5081   -47190.314    658.31684   0.99973669 
   49700    268.40551   -130.66247       137920   -43381.394    3685.9033   -47067.298    659.26066   0.99946722 
   49800    274.51261    3.6499584    137787.43    -43325.19    3769.7697    -47094.96    660.09879    1.0004288 
   49900    267.68883    72.250827    137801.95   -43417.937    3676.0614   -47093.999      662.192    1.0003234 
   50000    267.24467   -225.25367    137735.99   -43424.227     3669.962   -47094.189    662.64226    1.0008025 
   50100    266.22512   -23.414919     137728.8   -43455.226    3655.9609   -47111.187    663.95602    1.0008547 
   50200    269.59182    63.264422    137560.38   -43406.685    3702.1945   -47108.879    664.53937    1.0020801 
   50300    265.94296    -97.40655    137423.99   -43411.677    3652.0862   -47063.763    666.49412    1.0030746 
   50400    270.45604    122.35814    137122.74   -43385.983    3714.0624   -47100.045    666.84418    1.0052783 
   50500    267.74427    67.715131    137275.99    -43420.66    3676.8228   -47097.483    668.62965    1.0041561 
   50600    263.81777   -12.388642    137708.55   -43375.876    3622.9017   -46998.778     671.4066    1.0010019 
   50700    268.78008    7.8854462    137705.77   -43383.761    3691.0472   -47074.808    672.27534    1.0010221 
   50800    273.05358   -187.10063    137550.74   -43283.001    3749.7334   -47032.734    673.83666    1.0021503 
   50900    274.98569   -165.91779    137335.04   -43303.426    3776.2662   -47079.693    674.60276    1.0037243 
   51000    271.94054   -121.53437    137078.15   -43338.889    3734.4485   -47073.337    675.96925    1.0056053 
   51100    270.50454    76.954518    137290.55   -43361.635    3714.7284   -47076.364    677.80232    1.0040496 
   51200    273.83856    128.37393    137577.31   -43269.167    3760.5131   -47029.681    680.71854    1.0019567 
   51300    275.30708   -80.477159    137538.34   -43218.243    3780.6798   -46998.923    682.96217    1.0022407 
   51400    268.05787   -146.86685    137344.09     -43403.3    3681.1293   -47084.429    684.25394    1.0036582 
   51500    267.31411     206.7903     137343.8    -43410.97    3670.9156   -47081.885    686.06892    1.0036603 
   51600    261.51732   -56.220127    137291.82   -43384.886    3591.3106   -46976.197    686.95994    1.0040403 
   51700    269.54101    45.686004    137179.17   -43341.923    3701.4967   -47043.419    687.77354    1.0048648 
   51800    272.15397    235.89698    137493.81   -43404.095    3737.3794   -47141.474    690.00878    1.0025652 
   51900    270.41937   -266.33883    137385.21   -43467.108    3713.5588   -47180.667    691.45824    1.0033577 
   52000    266.87927    161.74975    137338.25   -43476.205    3664.9441   -47141.149    693.37639    1.0037009 
   52100    271.82344   -3.9992155    137599.57   -43424.432    3732.8403   -47157.273    696.49138    1.0017947 
   52200    269.47107    132.49919    137451.12   -43499.263    3700.5363   -47199.799    697.47295    1.0028767 
   52300    266.87002    90.485324     137467.6   -43418.672     3664.817   -47083.489    698.81416    1.0027564 
   52400    275.68794    164.54036    137624.18   -43313.253      3785.91   -47099.163    701.17944    1.0016156 
   52500    273.24791   -187.31982    137355.03   -43354.386     3752.402   -47106.788    701.00168    1.0035782 
   52600    264.22385    8.6391266    137072.04   -43421.667    3628.4783   -47050.145    701.47676    1.0056501 
   52700    267.18219    58.934066    136928.45   -43388.956     3669.104    -47058.06    701.87265    1.0067047 
   52800    267.73407   -38.424778    136797.87   -43437.273    3676.6828   -47113.956    702.63191    1.0076657 
   52900    270.52874    63.228743    137145.37   -43484.022    3715.0608   -47199.082    704.70762    1.0051124 
   53000     262.8143    10.945446    136956.66   -43536.205    3609.1215   -47145.326     705.2957    1.0064973 
   53100    261.90742    106.24766    136855.83   -43563.542    3596.6677    -47160.21    706.59155    1.0072389 
   53200    269.42957    86.987322    137068.49   -43392.809    3699.9663   -47092.775    709.27539    1.0056762 
   53300    267.73707    119.76114       137342   -43431.115    3676.7239   -47107.839    711.90181    1.0036735 
   53400    271.81025   -41.354157    137650.85    -43345.81    3732.6592   -47078.469    713.65196    1.0014215 
   53500    276.37898   -47.212921    137673.04   -43316.278    3795.3997   -47111.678    713.39344    1.0012601 
   53600    272.37727   -169.85087    137699.65   -43331.429    3740.4459   -47071.874    715.38446    1.0010666 
   53700    276.20651    20.798862    137715.27   -43300.048    3793.0313   -47093.079    716.13099     1.000953 
   53800     263.2465   -150.50812    137679.15   -43472.406    3615.0567   -47087.463    717.20718    1.0012156 
   53900    266.00535   -141.05284    137380.76   -43478.389    3652.9429   -47131.332    718.29208    1.0033903 
   54000    267.31702    42.123893    137293.32   -43458.493    3670.9556   -47129.448     718.9426    1.0040293 
   54100      268.259    12.815662    137074.25   -43408.895    3683.8914   -47092.786    719.25692    1.0056339 
   54200    266.00043   -178.00255    137419.82    -43377.33    3652.8754   -47030.205    721.50518     1.003105 
   54300    272.78449   -54.598959    137471.45   -43410.167    3746.0381   -47156.205    722.73661    1.0027284 
   54400     272.2527   -6.4134296    137582.81   -43426.171    3738.7353   -47164.906    724.50252    1.0019167 
   54500    270.01741    83.893786     137744.4   -43448.448    3708.0389   -47156.487    726.46488    1.0007413 
   54600    268.69025   -67.510031    137431.01   -43425.859    3689.8136   -47115.672     726.8781    1.0030234 
   54700    269.21596   -226.55172    137152.44   -43411.538    3697.0329   -47108.571     726.7245    1.0050606 
   54800    266.26524    134.47941    137037.21   -43438.514    3656.5118   -47095.026    726.94645    1.0059057 
   54900    272.31824   -72.105627    137324.38   -43378.917    3739.6352   -47118.552    730.62401    1.0038022 
   55000    270.76188    4.3973779    137479.83   -43330.463    3718.2624   -47048.725    732.07728    1.0026672 
   55100    271.64812    148.71615    137666.09    -43260.58    3730.4328   -46991.012     734.8561    1.0013106 
   55200    275.98024    64.118507    137697.05   -43340.609     3789.924   -47130.533    736.53927    1.0010854 
   55300    270.67734   -92.853507    137729.52   -43335.483    3717.1014   -47052.585    738.13317    1.0008495 
   55400    270.49276    73.732977     137775.2   -43359.107    3714.5667   -47073.674    740.77599    1.0005176 
   55500    266.94222    121.92735    137834.91   -43326.972    3665.8086    -46992.78    742.67064    1.0000842 
   55600    271.28992   -241.84851    137661.73   -43332.419    3725.5137   -47057.933     742.4805    1.0013423 
   55700    268.38988   -271.06471    137332.94    -43383.59    3685.6887   -47069.279    743.40368    1.0037396 
   55800    271.72912    1.5917175    137322.51    -43388.91    3731.5452   -47120.456    745.11129    1.0038159 
   55900    267.98456   -65.719731    137212.74   -43470.259    3680.1226   -47150.382    746.38756     1.004619 
   56000    269.15367   -51.407852    137317.43   -43512.146    3696.1775   -47208.324    747.44645     1.003853 
   56100     262.9489    120.75505    137382.01   -43451.007    3610.9699   -47061.977    748.57282    1.0033811 
   56200    270.52263   -35.654365     137514.9   -43394.154    3714.9769   -47109.131     750.2454    1.0024115 
   56300    274.61603      190.893    137688.54   -43358.085    3771.1899   -47129.275    751.76468    1.0011473 
   56400    273.72638   -272.03668    137475.17   -43309.715    3758.9727   -47068.688    751.44508    1.0027012 
   56500    267.21816   -5.9133697    137305.54   -43276.195     3669.598   -46945.793    752.37221      1.00394 
   56600     270.3589    98.015256    137461.34   -43231.986    3712.7285   -46944.714    754.27501     1.002802 
   56700    277.46061   -69.801591    137389.95   -43264.746    3810.2533       -47075    755.16818    1.0033231 
   56800    275.50685     257.7319    137280.83    -43224.66    3783.4232   -47008.083    755.86957    1.0041206 
   56900    276.13163    16.408716    137515.11   -43299.413    3792.0029   -47091.416    756.74365      1.00241 
   57000     273.9169   -277.71073    137683.89    -43382.57     3761.589   -47144.159    758.43258    1.0011812 
   57100    266.72842   -160.56937    137645.46   -43405.475    3662.8726   -47068.348    759.42636    1.0014607 
   57200    263.99783   -60.733126    137497.94   -43469.919    3625.3745   -47095.294    759.95549    1.0025352 
   57300    269.56185   -18.562103    137452.47   -43509.617    3701.7829     -47211.4    760.98451    1.0028668 
   57400    267.93296    67.410002    137401.05   -43467.088    3679.4141   -47146.502     762.3557    1.0032421 
   57500    272.66177   -112.20725    137612.97   -43441.269    3744.3528   -47185.622    764.54376    1.0016972 
   57600    271.12971    79.076563    137642.52   -43487.383    3723.3137   -47210.697    765.33168    1.0014821 
   57700    268.08298    18.057099    137479.25    -43492.35    3681.4741   -47173.824    766.34687    1.0026714 
   57800    268.52202   -38.152514    137577.11   -43375.818    3687.5033   -47063.321    767.78071    1.0019582 
   57900    267.85801    67.338738    137482.21   -43383.563    3678.3848   -47061.948    768.60017    1.0026498 
   58000     266.4423   -56.708169    137589.14   -43502.341    3658.9433   -47161.284    770.03712    1.0018706 
   58100    272.84805   -162.05037    137761.11   -43434.227    3746.9109   -47181.137    773.58261      1.00062 
   58200    269.62289   -40.376372    137880.49   -43450.924    3702.6211   -47153.545     775.3571   0.99975358 
   58300    265.14625    125.76086    137770.57    -43497.84    3641.1452   -47138.985    776.09386    1.0005513 
   58400    273.07236     115.2218     137754.9   -43393.767    3749.9913   -47143.759    777.16494    1.0006651 
   58500    274.00177   -204.96811    137730.45   -43365.997    3762.7545   -47128.751     777.2273    1.0008427 
   58600    270.20768   -114.38638    137325.06   -43422.126    3710.6518   -47132.778    777.86222    1.0037973 
   58700    268.88291   -128.90356    137302.37   -43352.032    3692.4592   -47044.492    778.65429    1.0039631 
   58800    268.58326   -38.152591    137273.23   -43398.262    3688.3443   -47086.606    780.88857    1.0041762 
   58900    270.91845    149.07842    137285.71   -43297.983    3720.4125   -47018.396    781.55413     1.004085 
   59000    274.56325   -148.13154    137100.72   -43368.106     3770.465   -47138.571    781.87447    1.0054398 
   59100    270.53684    353.64248    137270.74   -43375.942    3715.1721   -47091.114    784.08155    1.0041945 
   59200    267.44176   -310.16517    137519.57   -43389.247    3672.6685   -47061.916    786.94736    1.0023775 
   59300     272.4606   -172.05444    137248.57   -43404.999    3741.5902    -47146.59    786.80576    1.0043567 
   59400    270.77291    166.29218    137167.39   -43332.826    3718.4139    -47051.24    788.82744    1.0049511 
   59500    268.80888   -281.68266    136842.59   -43364.501    3691.4427   -47055.943    788.90751    1.0073364 
   59600    274.07788     77.06011    136858.28   -43292.598    3763.7997   -47056.398    789.98138    1.0072209 
   59700    271.61813   -2.3274821    137237.59   -43302.735    3730.0209   -47032.756    792.83777     1.004437 
   59800    271.50207    20.860624    137498.48   -43277.631    3728.4271   -47006.058    796.09134    1.0025312 
   59900    266.11969    166.13067    137393.41   -43367.414    3654.5131   -47021.927    797.82819    1.0032979 
   60000    271.38574   -58.981974     137300.3   -43362.521    3726.8296   -47089.351     799.0825    1.0039783 
   60100    272.65237   -100.56082    137356.63   -43305.399    3744.2237   -47049.623    800.63774    1.0035666 
   60200      266.846   -53.345175    137136.26   -43426.314    3664.4873   -47090.801    801.67524    1.0051792 
   60300    271.39388    20.122161    137057.53   -43389.447    3726.9414   -47116.389    803.14212    1.0057566 
   60400    268.42608    1.2899175    137099.87   -43373.083    3686.1859   -47059.269    805.30622     1.005446 
   60500    270.89996   -70.333825    136987.09   -43460.078    3720.1585   -47180.237    805.82736    1.0062738 
   60600    267.63979   -173.07781    137024.57   -43483.273     3675.388   -47158.661    807.21238    1.0059985 
   60700    272.79398    98.065415    137306.71   -43473.524    3746.1684   -47219.692    809.18955    1.0039314 
   60800      269.326    54.392881    137629.62   -43470.335    3698.5441   -47168.879    811.45205    1.0015759 
   60900    271.80194   -63.146344    137791.68   -43411.732    3732.5451   -47144.278    814.37741     1.000398 
   61000    270.19137     -187.043    137603.87   -43331.107    3710.4278   -47041.534    816.61312    1.0017633 
   61100     275.8648   -116.70648    137665.39   -43274.701    3788.3387   -47063.039    819.39973    1.0013157 
   61200     272.2055    122.45845    137536.16   -43333.546    3738.0871   -47071.634    820.00009    1.0022565 
   61300    274.04574   -194.73872     137580.5    -43331.58    3763.3583   -47094.938    821.32723    1.0019335 
   61400    277.15165   -50.466933    137845.53   -43221.077    3806.0106   -47027.088     824.2734    1.0000071 
   61500    273.75115    253.22725    137853.62   -43264.589    3759.3129   -47023.902    825.65969   0.99994848 
   61600      273.199    119.78055    137643.17   -43308.131    3751.7304   -47059.862    827.00052    1.0014773 
   61700    269.80996    159.43987    137642.74   -43344.482    3705.1901   -47049.672    828.77272    1.0014805 
   61800    270.52073   -58.898174    137553.09   -43346.368    3714.9508   -47061.319    829.55213    1.0021332 
   61900    273.32462     130.3958    137718.33   -43267.101    3753.4555   -47020.557    831.39134    1.0009308 
   62000    268.88421   -39.035885    137903.52   -43351.086    3692.4771   -47043.563    833.60466   0.99958668 
   62100    267.90808     2.295226    137834.66   -43360.286    3679.0723   -47039.358     834.8448     1.000086 
   62200    268.26727   -187.37839    137813.92   -43359.775    3684.0049    -47043.78    835.60125    1.0002365 
   62300    269.93634   -86.810763    137566.98   -43386.048    3706.9257   -47092.974    836.02661     1.002032 
   62400    264.66547     -124.321    137401.79    -43461.49    3634.5428   -47096.032    837.08585    1.0032367 
   62500    266.82994    25.792925    137538.41   -43424.234    3664.2667   -47088.501    839.26149    1.0022402 
   62600    272.43166    90.910299    137247.67   -43375.597    3741.1928    -47116.79    840.30652    1.0043633 
   62700    264.74584   -109.71155    137179.42   -43369.713    3635.6466    -47005.36    842.24721    1.0048629 
   62800    271.04147   -79.954946    137093.67   -43389.442     3722.102   -47111.544    842.98096    1.0054915 
   62900    271.04789    132.88621    137469.84   -43346.325      3722.19   -47068.515    846.19511    1.0027401 
   63000     270.2825   -54.217709    137350.66    -43407.66    3711.6792   -47119.339    846.80149    1.0036101 
   63100     269.3134    85.711848    137421.49   -43364.514     3698.371   -47062.885     848.2439    1.0030928 
   63200    266.95449    67.165657     137446.9   -43409.646     3665.977   -47075.623     849.9996    1.0029075 
   63300    265.17717    57.597713    137352.24   -43438.924    3641.5699   -47080.494    851.23096    1.0035986 
   63400    266.98574   -69.724231    137677.26   -43490.501    3666.4062   -47156.907    853.60229    1.0012294 
   63500    266.19891    -41.25793    137462.67   -43415.587     3655.601   -47071.188    854.37585    1.0027923 
   63600    268.44106    69.447012    137458.95   -43374.478    3686.3915    -47060.87    855.37629    1.0028195 
   63700    273.75553   -127.37073     137328.4   -43422.425    3759.3729   -47181.798    856.20293    1.0037728 
   63800    266.67098   -52.761659    137143.78   -43474.385    3662.0838   -47136.469    856.10371    1.0051241 
   63900    273.07145    82.934362    137429.27   -43403.085    3749.9788   -47153.064      858.645    1.0030361 
   64000    264.25558    204.62036    137561.69   -43469.246    3628.9141    -47098.16    860.68896    1.0020705 
   64100    268.99182   -242.07838    137377.12   -43476.052    3693.9549   -47170.007    860.64617    1.0034169 
   64200    266.28017     31.01572    137670.58   -43484.154    3656.7169   -47140.871    863.97521    1.0012779 
   64300     266.7002   -21.878353    137698.68   -43513.834     3662.485   -47176.319    864.74038    1.0010737 
   64400     269.0946    22.866183    137824.68   -43495.042    3695.3663   -47190.409    867.21396    1.0001585 
   64500    265.14023    79.949563    137718.12     -43559.2    3641.0626   -47200.262    867.94449    1.0009323 
   64600    272.83585    117.58416    137605.37   -43457.564    3746.7434   -47204.307    868.13381    1.0017524 
   64700    276.64889    -8.499475     137757.1   -43417.112    3799.1063   -47216.218    870.17663    1.0006491 
   64800    275.26677    99.428904    137914.07   -43348.015    3780.1262   -47128.141     871.9196   0.99951016 
   64900    271.47046    17.358559    137940.43   -43365.067    3727.9931    -47093.06    873.01804   0.99931918 
   65000    272.55875   -35.024461    137852.87   -43399.616    3742.9381   -47142.554    873.12145   0.99995392 
   65100    265.50455   -21.001371    137773.06   -43455.928    3646.0657   -47101.994    873.00805    1.0005332 
   65200    267.89668    194.66788    137555.84   -43419.405    3678.9158   -47098.321    873.79607    1.0021132 
   65300    266.60967    13.827499    137556.48   -43460.236    3661.2418   -47121.478    874.89224    1.0021085 
   65400    269.21396   -99.278764    137506.52   -43454.681    3697.0054   -47151.686    876.27308    1.0024726 
   65500    272.52256   -111.01778    137378.74   -43381.243    3742.4411   -47123.684     876.6584     1.003405 
   65600    276.83212    27.669838    137600.03     -43342.4    3801.6225   -47144.023    878.64734    1.0017913 
   65700    274.25784   -180.06879    137535.07   -43323.721     3766.271   -47089.992     879.4497    1.0022645 
   65800    268.43722    69.465995    137448.26   -43423.866    3686.3389   -47110.205    880.34866    1.0028975 
   65900    271.25606   -110.86902    137641.22   -43378.098    3725.0488   -47103.146    882.70606    1.0014915 
   66000    271.37519    43.880578     137601.9   -43363.845    3726.6847    -47090.53     883.5297    1.0017777 
   66100    267.69352    13.877677    137947.83   -43371.422    3676.1258   -47047.548     886.2086   0.99926556 
   66200    274.54933    41.266615    137799.63   -43284.335    3770.2739   -47054.609    886.43749    1.0003403 
   66300    275.10038   -3.2441812    137678.28   -43289.588    3777.8412   -47067.429    887.00215    1.0012219 
[...]
   84600    270.41333    52.143675       137933   -43454.327    3713.4759   -47167.803    1125.0223   0.99937304 
   84700    267.27057   -164.36824    138034.15   -43502.659    3670.3176   -47172.977    1126.5685   0.99864066 
   84800    268.19301   -35.192656    137933.51   -43433.179    3682.9852   -47116.164    1127.0297   0.99936934 
   84900    264.59123    -90.56689    137944.84   -43400.771    3633.5234   -47034.294     1129.421   0.99928722 
   85000    268.95973   -100.68703    137750.55   -43371.527    3693.5142   -47065.041    1130.0155    1.0006967 
   85100     266.4661   -112.45108    137661.75   -43409.207    3659.2702   -47068.477     1131.326    1.0013422 
   85200    271.44264   -6.4172395    137668.96   -43416.329     3727.611    -47143.94    1134.0293    1.0012897 
   85300    272.20059   -117.48374    137547.85   -43332.471    3738.0196    -47070.49    1135.2795    1.0021714 
   85400     273.7767   -4.9815542    137576.42   -43328.697    3759.6637   -47088.361    1136.7683    1.0019633 
   85500    270.58342   -109.31965       137531   -43353.105    3715.8116   -47068.916    1136.4151    1.0022941 
   85600    268.97142   -3.1851991    137455.39   -43306.068    3693.6747   -46999.743    1136.5877    1.0028455 
   85700    273.59845   -252.27506    137314.88   -43335.009    3757.2158   -47092.225    1136.0604    1.0038717 
   85800    273.23238    92.730584    137267.26    -43347.65    3752.1888   -47099.839    1138.1147    1.0042199 
   85900    270.64712    253.55914    137406.34   -43383.238    3716.6865   -47099.925    1139.3041    1.0032034 
   86000    270.63911    51.240564    137624.32   -43374.484    3716.5764   -47091.061      1141.73    1.0016145 
   86100    268.15578    112.76732    137598.66   -43364.815    3682.4739   -47047.289    1143.2603    1.0018013 
   86200     271.5386    102.01163    137556.82   -43378.143    3728.9288   -47107.072    1143.1951     1.002106 
   86300    266.42918   -350.26015    137441.78   -43406.434    3658.7632   -47065.197    1144.7521    1.0029448 
   86400    267.86649    274.50639     137454.4   -43350.097    3678.5011   -47028.598    1144.8563    1.0028527 
   86500    275.34968   -12.323571     137559.7   -43318.093    3781.2648   -47099.358    1144.7528     1.002085 
   86600    269.95003   -203.03775    137594.42   -43292.545    3707.1135   -46999.658    1146.2244    1.0018322 
   86700    277.25955    -53.06671    137697.36   -43326.098    3807.4923    -47133.59    1150.1969    1.0010832 
   86800     271.6369   -35.894543    137598.08   -43306.924    3730.2787   -47037.202    1151.0086    1.0018055 
   86900    273.43184   -191.13447    137432.19   -43315.275    3754.9279   -47070.203    1150.9866    1.0030148 
   87000    277.35099   -2.9441496    137375.52   -43354.908    3808.7479   -47163.656    1152.1057    1.0034285 
   87100     272.4204    -26.12128    137503.04   -43409.472    3741.0381    -47150.51    1154.7656    1.0024979 
   87200    267.93297    216.13352    137460.65   -43409.939    3679.4142   -47089.353    1156.2165    1.0028071 
   87300     275.7576    22.235401    137523.35   -43290.108    3786.8666   -47076.974    1157.4796    1.0023499 
   87400    274.32961    149.58715    137426.86   -43348.982    3767.2566   -47116.238    1158.3456    1.0030537 
   87500    269.52092   -63.698294    137344.98   -43426.467    3701.2207   -47127.687    1160.4884    1.0036517 
   87600    270.77493    48.530105    137124.95   -43380.005    3718.4417   -47098.447     1160.845    1.0052621 
   87700     268.5025    51.693699     137130.3   -43388.626    3687.2353   -47075.861    1161.6815    1.0052229 
   87800    269.99189    165.41869    137381.06   -43266.132    3707.6885    -46973.82    1164.2813    1.0033881 
   87900    274.54049    205.70406    137574.15    -43260.05    3770.1526   -47030.203    1166.3341    1.0019798 
   88000    276.21293    284.71019    137750.22   -43276.981    3793.1195   -47070.101    1168.4354    1.0006991 
   88100     266.6381   -118.98922    137537.66    -43341.66    3661.6322   -47003.292    1168.3398    1.0022456 
   88200    274.63311   -67.694528    137451.93   -43288.147    3771.4244   -47059.571    1169.7645    1.0028707 
   88300    276.45499    37.095264    137509.53   -43297.598    3796.4435   -47094.042    1173.1158    1.0024506 
   88400    275.41401    -275.0693    137618.18   -43312.469    3782.1482   -47094.617    1175.0715    1.0016592 
   88500    268.63046    102.10334    137479.67   -43388.085    3688.9924   -47077.078    1175.1429    1.0026684 
   88600    271.90026   -273.05467    137478.66   -43375.889    3733.8954   -47109.785    1177.2504    1.0026757 
   88700    267.15237   -174.32129    137550.94   -43421.847    3668.6945   -47090.541     1178.826    1.0021489 
   88800    265.81522   -48.074036    137431.12   -43369.931    3650.3319   -47020.263    1178.9388    1.0030226 
   88900    271.49093   -25.296126     137437.7   -43405.626    3728.2742     -47133.9    1180.9234    1.0029745 
   89000    267.45115    -39.97067    137476.09   -43379.006    3672.7974   -47051.803    1182.8143    1.0026945 
   89100    270.29829   -273.93389    137357.99   -43360.772    3711.8961   -47072.669     1182.942    1.0035566 
   89200    270.00189    81.896688    137298.38    -43424.39    3707.8258   -47132.216    1185.4683    1.0039923 
   89300    269.93114   -7.3902719     137347.5    -43434.19    3706.8541   -47141.044    1187.2249    1.0036332 
   89400    272.10784     -215.934    137536.61   -43361.585    3736.7459   -47098.331    1190.2268    1.0022533 
   89500    265.11355    135.80891    137628.47   -43451.514    3640.6962    -47092.21     1191.938    1.0015843 
   89600    268.92766    73.740491    137713.46   -43399.502    3693.0738   -47092.576    1193.7284    1.0009662 
   89700     269.7892    69.164184    137866.84    -43373.28    3704.9049   -47078.185    1196.7676   0.99985259 
   89800    265.61963   -16.242994    137687.23   -43448.856     3647.646   -47096.502    1195.7028    1.0011569 
   89900    272.10906   -80.537359    137724.41   -43404.617    3736.7627    -47141.38    1196.8035    1.0008866 
   90000    267.85355   -97.547796     137630.2   -43455.935    3678.3234   -47134.258    1197.0125    1.0015717 
   90100    269.58533   -70.463725    137519.83   -43326.248    3702.1053   -47028.353    1197.5726    1.0023755 
   90200    271.56018   -29.443527    137583.34   -43438.661    3729.2251   -47167.886    1199.8427    1.0019129 
   90300    268.94333    201.81819    137700.37   -43503.472     3693.289   -47196.761    1201.4585    1.0010613 
   90400    268.55601    59.685886    137570.04   -43438.378    3687.9701   -47126.348     1203.206    1.0020097 
   90500     268.7832    201.39714    137478.79   -43361.713    3691.0901   -47052.803    1203.8565    1.0026748 
   90600    269.07206    75.727977    137579.35   -43387.282    3695.0568   -47082.339    1206.1026    1.0019419 
   90700    272.02578   -81.887301    137596.63   -43402.392     3735.619   -47138.011    1206.9581    1.0018161 
   90800    268.89393    46.432348    137478.39   -43363.131    3692.6106   -47055.742    1207.7423    1.0026777 
   90900    270.17494    11.741052    137660.99   -43447.776    3710.2022   -47157.978    1210.9457    1.0013477 
   91000    270.93986  -0.49414512    137584.48   -43438.617    3720.7065   -47159.323    1211.3415    1.0019045 
   91100    271.25096    -93.60953    137242.61   -43383.055    3724.9787   -47108.033    1210.6096    1.0044003 
   91200    275.78194   -66.181381    137366.25   -43385.102    3787.2008   -47172.303    1213.4143    1.0034962 
   91300    271.93463    33.792067    137443.47   -43419.692    3734.3673   -47154.059    1215.5763    1.0029325 
   91400    265.04814   -35.037332    137576.25   -43467.709    3639.7979   -47107.507    1217.2268    1.0019645 
   91500    267.65074   -137.57263    137416.63   -43443.439    3675.5384   -47118.977    1218.4073    1.0031284 
   91600    272.16921    135.12241    137455.57   -43424.823    3737.5887   -47162.411    1220.6322    1.0028442 
   91700    271.98675   -186.69061    137301.86   -43439.399    3735.0831   -47174.482    1221.1874    1.0039669 
   91800    264.68688   -26.300706    137554.61   -43506.703    3634.8369    -47141.54    1224.1191    1.0021221 
   91900    266.62881    26.648152    137396.64   -43492.862    3661.5046   -47154.366    1224.6891    1.0032743 
   92000    267.08327    18.778589    137432.16   -43422.319    3667.7455   -47090.065    1225.8865     1.003015 
   92100     268.1952   -358.96096    137284.91   -43379.865    3683.0152    -47062.88    1226.1096    1.0040908 
   92200     271.9144   -67.012468    137164.18   -43271.754    3734.0895   -47005.843    1227.4158    1.0049746 
   92300    272.68518    39.781385    137116.86   -43293.331    3744.6743   -47038.005    1227.9892    1.0053214 
   92400    270.59181   -66.603955    137260.55   -43340.705     3715.927   -47056.632    1230.2102     1.004269 
   92500    275.29055   -40.422381    137281.44   -43280.811    3780.4527   -47061.263    1231.5844    1.0041162 
   92600    269.58157     103.1201    137292.23   -43307.753    3702.0536   -47009.807    1233.1047    1.0040373 
   92700    274.57943   -100.97966    137608.82   -43356.862    3770.6873   -47127.549    1236.1669    1.0017273 
   92800    275.65652    -22.99601    137725.69   -43329.829    3785.4784   -47115.307    1237.9656    1.0008773 
   92900    270.06043   -180.21348    137252.04   -43364.946    3708.6296   -47073.576    1236.9528    1.0043313 
   93000    273.26016   -19.991789     137441.5   -43265.071    3752.5702   -47017.642    1239.6253    1.0029468 
   93100    272.61989   -84.717279    137378.64   -43353.566    3743.7777   -47097.344    1239.4255    1.0034057 
   93200    272.49001    117.33723    137461.35    -43277.93     3741.994   -47019.924     1241.283     1.002802 
   93300    275.10824    211.24046    137533.49   -43221.443    3777.9491   -46999.392    1242.5935     1.002276 
   93400    273.20804   -132.49294     137501.8   -43341.152    3751.8546   -47093.007    1244.3742     1.002507 
   93500    268.19393   -40.430293    137666.97   -43363.416    3682.9978   -47046.414    1246.1665    1.0013042 
   93600     271.3037   -99.332942    137481.57     -43400.6    3725.7029   -47126.303    1244.9819    1.0026545 
   93700    269.41329     118.3183    137474.73   -43424.438    3699.7428   -47124.181    1246.1655    1.0027044 
   93800    272.39056    33.971512    137473.51   -43336.033    3740.6284   -47076.661    1248.7046    1.0027133 
   93900    270.70068    24.243253    137458.97   -43435.302    3717.4219   -47152.724     1250.541    1.0028193 
   94000    270.29513    199.32763    137632.42   -43456.792    3711.8527   -47168.644     1252.117    1.0015555 
   94100    265.07792   -65.068949    137849.05   -43514.677    3640.2069   -47154.884    1256.0862   0.99998164 
   94200    266.69399   -91.800945    137676.87   -43495.386    3662.3998   -47157.785    1255.3286    1.0012322 
   94300    268.33086   -40.791382    137560.05   -43429.351    3684.8782   -47114.229    1255.3302    1.0020825 
   94400    273.38246    57.644531    137790.22   -43408.444    3754.2498   -47162.694    1257.4849    1.0004085 
   94500    264.72411    20.918282    137662.86   -43452.441    3635.3481   -47087.789    1258.2916    1.0013341 
   94600    266.52198   -101.82296    137667.09   -43512.541    3660.0376   -47172.578    1258.2564    1.0013033 
   94700    266.46785    249.36304    137656.48   -43477.397    3659.2942   -47136.691    1259.8488    1.0013805 
   94800    269.29573    29.853313    137833.24   -43393.396    3698.1284   -47091.524    1260.9652    1.0000963 
   94900    272.98378    56.330037    137637.03   -43349.187    3748.7748   -47097.962    1261.1636     1.001522 
   95000    270.23528    119.58343    137662.53   -43334.228    3711.0308   -47045.259    1262.1139    1.0013365 
   95100    274.21582    25.384433    137557.08   -43364.424     3765.694   -47130.118    1262.9257    1.0021041 
   95200    273.29062   -41.429676    137725.84   -43335.124    3752.9885   -47088.113    1265.8574    1.0008762 
   95300    270.48615    58.238072    137475.88    -43383.23    3714.4759   -47097.706    1265.4215     1.002696 
   95400    274.98617   -147.89665    137409.72   -43414.675    3776.2728   -47190.948    1265.5163    1.0031788 
   95500    271.98698   -93.647841    137155.79   -43382.118    3735.0862   -47117.205      1265.75     1.005036 
   95600    267.64614     -110.045    137264.89   -43429.633    3675.4753   -47105.108    1267.9736    1.0042373 
   95700     268.5896    109.11142    137279.08   -43418.324    3688.4314   -47106.755    1269.4994    1.0041335 
   95800    272.80979   -25.687689    137652.92   -43361.867    3746.3855   -47108.252     1271.787    1.0014064 
   95900    270.58486   -78.700303    137592.94   -43380.752    3715.8315   -47096.584    1273.3673    1.0018429 
   96000    270.85171    84.733513    137711.37    -43313.58     3719.496   -47033.075    1274.8688    1.0009814 
   96100    268.41499   -310.72401    137747.89   -43293.692    3686.0335   -46979.726    1276.0683     1.000716 
   96200     271.9942   -260.70293    137581.09   -43280.842    3735.1854   -47016.027    1276.8738    1.0019293 
   96300    275.09995    85.740343    137361.54   -43283.142    3777.8354   -47060.977    1277.0725    1.0035307 
   96400    265.24611    61.486711    137357.88   -43352.699    3642.5165   -46995.216    1278.6612    1.0035574 
   96500    272.46642   -142.25148    137262.72   -43293.225    3741.6702   -47034.895    1281.4355    1.0042531 
   96600    273.45618    194.87359     137174.5   -43285.338    3755.2621   -47040.601    1282.7153     1.004899 
   96700    270.07858    24.245244    137330.89    -43311.18    3708.8789   -47020.059    1286.0318    1.0037546 
   96800    271.83476   -137.59264    137248.24   -43264.598    3732.9958   -46997.594     1287.557    1.0043591 
   96900    271.99999    290.50484    137540.44   -43259.426    3735.2648   -46994.691    1291.3435    1.0022254 
   97000    268.49275   -64.285698    137765.05   -43301.968    3687.1013   -46989.069    1293.4123    1.0005913 
   97100    277.04925  -0.92615191     137340.7   -43321.826    3804.6043    -47126.43    1292.9509     1.003683 
   97200    270.14159    163.83861    137480.63   -43284.374    3709.7442   -46994.119    1295.2991    1.0026614 
   97300    272.61534    85.912224    137424.97   -43374.721    3743.7152   -47118.436    1296.4231    1.0030674 
   97400    270.11992    209.42864    137248.59   -43382.538    3709.4466   -47091.985    1297.0115    1.0043565 
   97500    269.91153    -142.6509     137614.6   -43375.231    3706.5849   -47081.815    1300.3961    1.0016853 
   97600    270.42596    126.26104    137765.21   -43361.554    3713.6493   -47075.203    1302.5325    1.0005902 
   97700    271.20698    31.317887    137628.56   -43400.914    3724.3748   -47125.289    1303.8034    1.0015837 
   97800    271.51787     83.19144    137616.74   -43429.528    3728.6441   -47158.172     1304.969    1.0016697 
   97900    272.27069    18.285436    137636.88   -43357.676    3738.9823   -47096.658    1307.1356    1.0015231 
   98000    268.24824     89.16974    137679.72   -43301.146    3683.7436    -46984.89    1309.0839    1.0012115 
   98100    272.20858   -63.804139    137592.93   -43362.915    3738.1293   -47101.044    1309.7682     1.001843 
   98200    268.90813   -38.595611    137655.97   -43316.277    3692.8056   -47009.083    1311.7463    1.0013842 
   98300    273.66969    81.458079    137614.34   -43242.575    3758.1942    -47000.77    1312.6967    1.0016872 
   98400    275.19314    8.6563436     137622.6   -43218.634    3779.1151   -46997.749    1313.9342     1.001627 
   98500    270.94272    183.11132    137467.52   -43301.274    3720.7458    -47022.02    1315.0787     1.002757 
   98600    272.71503   -149.11562    137815.91   -43284.071    3745.0842   -47029.155    1319.4207    1.0002221 
   98700    270.90049    76.419588    137801.99   -43356.952    3720.1659   -47077.118    1320.3054    1.0003231 
   98800    269.87444   -156.38134    137837.15   -43356.005    3706.0756    -47062.08    1321.3635     1.000068 
   98900    270.71989    124.60581    137918.88   -43331.915    3717.6858   -47049.601    1322.7974   0.99947535 
   99000    276.18459    -47.64048    137969.78   -43250.998    3792.7303   -47043.728    1323.6878   0.99910659 
   99100    272.21653   -92.095415    137752.01   -43365.486    3738.2386   -47103.724    1323.1311    1.0006861 
   99200    273.88765     169.4444    137732.88   -43293.391    3761.1873   -47054.578    1325.9815     1.000825 
   99300    267.96342    40.241986    137693.59   -43319.879    3679.8323   -46999.711    1326.6374    1.0011107 
   99400    273.84581    164.43694    137705.47   -43262.075    3760.6128   -47022.688    1328.5612    1.0010243 
   99500    275.77235    43.003083     137521.6   -43315.103    3787.0691   -47102.172    1327.5058    1.0023627 
   99600    271.39971   -23.224131    137697.24   -43364.368    3727.0214    -47091.39    1329.3228    1.0010841 
   99700    271.51461    47.996251    137855.98    -43337.51    3728.5994    -47066.11    1330.5261   0.99993136 
   99800     270.8278   -147.05668    137786.91    -43401.94    3719.1676   -47121.108     1331.002    1.0004326 
   99900    269.71378   -91.720452     137542.5    -43417.68    3703.8693    -47121.55    1329.7722    1.0022103 
  100000    269.24566    11.994815    137523.68   -43375.837    3697.4408   -47073.277    1331.4898    1.0023475 
  100100    268.79988    17.565688    137546.08   -43398.916     3691.319   -47090.235    1332.3356    1.0021842 
  100200    271.88718    100.57663    137277.85    -43362.61    3733.7157   -47096.326    1332.4374    1.0041424 
  100300    263.97791    118.10828    137229.47   -43339.495     3625.101   -46964.596    1334.2817    1.0044965 
  100400    276.07377   -48.463013    137109.22   -43374.167    3791.2084   -47165.376    1334.9714    1.0053775 
  100500    272.61195   -54.812314    137164.59   -43399.919    3743.6687   -47143.588    1336.6049    1.0049716 
  100600    268.06768    135.25471    137227.64   -43445.144     3681.264   -47126.408    1337.7748    1.0045099 
  100688    267.54487   -60.895633    137359.91   -43378.734    3674.0845   -47052.819    1340.8655    1.0035426 
Loop time of 185.658 on 6 procs for 100000 steps with 4608 atoms

Performance: 232.686 ns/day, 0.103 hours/ns, 538.624 timesteps/s
99.3% CPU use with 6 MPI tasks x no OpenMP threads

MPI task timing breakdown:
Section |  min time  |  avg time  |  max time  |%varavg| %total
---------------------------------------------------------------
Pair    | 165.45     | 166.09     | 167.3      |   5.3 | 89.46
Neigh   | 7.4256     | 7.4713     | 7.5409     |   1.6 |  4.02
Comm    | 8.1542     | 9.326      | 9.97       |  23.0 |  5.02
Output  | 0.17272    | 0.17348    | 0.17692    |   0.4 |  0.09
Modify  | 1.8546     | 1.9491     | 2.0236     |   3.6 |  1.05
Other   |            | 0.6434     |            |       |  0.35

Nlocal:        768.000 ave         783 max         762 min
Histogram: 1 3 1 0 0 0 0 0 0 1
Nghost:        1672.83 ave        1689 max        1663 min
Histogram: 1 1 0 2 0 1 0 0 0 1
Neighs:        0.00000 ave           0 max           0 min
Histogram: 6 0 0 0 0 0 0 0 0 0
FullNghs:      25828.7 ave       26472 max       25531 min
Histogram: 1 1 2 1 0 0 0 0 0 1

Total # of neighbors = 154972
Ave neighs/atom = 33.631076
Neighbor list builds = 7015
Dangerous builds = 0

undump              1
unfix               2
unfix               3
unfix               4


################################################
#######         Run Simulation         #########
################################################

reset_timestep      0
log                 log.run_${NAME}
log                 log.run_liq_271K_1atm_mW
