
# Set production fixes - Nose/Hoover
#
fix                 2 all nph iso ${PRES} ${PRES} ${PCOUPL}
fix                 2 all nph iso 1 ${PRES} ${PCOUPL}
fix                 2 all nph iso 1 1 ${PCOUPL}
fix                 2 all nph iso 1 1 10000.0
fix                 3 all temp/csvr ${TEMP} ${TEMP} ${TCOUPL} 837492
fix                 3 all temp/csvr 271 ${TEMP} ${TCOUPL} 837492
fix                 3 all temp/csvr 271 271 ${TCOUPL} 837492
fix                 3 all temp/csvr 271 271 5000.0 837492

# Define Order parameter
#
compute             2 all orientorder/atom nnn NULL cutoff 3.5
thermo              200
thermo_style        custom step temp press vol etotal ke pe c_1[4]

# Run 1ns simulation
dump		    1 all custom 400 prod.${NAME}.dump id type x y z vx vy vz c_2[*]
dump		    1 all custom 400 prod.ice_271K_1atm_mW.dump id type x y z vx vy vz c_2[*]
run                 200000
Neighbor list info ...
  update every 1 steps, delay 0 steps, check yes
  max neighbors/atom: 2000, page size: 100000
  master list distance cutoff = 6.3065
  ghost atom cutoff = 6.3065
  binsize = 3.15325, bins = 18 16 16
  2 neighbor lists, perpetual/occasional/extra = 1 1 0
  (1) pair sw, perpetual
      attributes: full, newton on
      pair build: full/bin/atomonly
      stencil: full/bin/3d
      bin: standard
  (2) compute orientorder/atom, occasional, copy from (1)
      attributes: full, newton on
      pair build: copy
      stencil: none
      bin: none
Per MPI rank memory allocation (min/avg/max) = 5.839 | 5.840 | 5.841 Mbytes
Step Temp Press Volume TotEng KinEng PotEng c_1[4] 
       0    267.15658   -21.010322    140854.19   -49184.717    3668.7523    -52853.47    0.3693354 
     200    268.65101   -15.259586    140832.13   -49174.186    3689.2747   -52863.461   0.37529304 
     400    271.83227    17.905171    140829.88   -49168.761    3732.9617   -52901.723   0.37073056 
     600    268.91089    -30.59696    140905.35   -49204.189    3692.8436   -52897.033    0.3718153 
     800    272.16012   -31.903075    140930.23    -49218.47    3737.4639   -52955.934   0.35872991 
    1000    272.15216    3.1924003    140823.48   -49229.483    3737.3545   -52966.838   0.37058956 
    1200    270.87092    50.456696    140740.89   -49252.596    3719.7598   -52972.356   0.37146202 
    1400    267.78939   -8.7108585    140822.21   -49243.907    3677.4425   -52921.349   0.36700048 
    1600    268.86371   -83.650384    140942.99   -49246.754    3692.1956   -52938.949   0.35695405 
    1800    269.78714   -56.668657    140876.84   -49251.618    3704.8767   -52956.495   0.35955141 
    2000    268.93228    78.337654    140722.15   -49208.209    3693.1372   -52901.346   0.38516835 
    2200    269.15314    65.347774    140740.94   -49179.349    3696.1703    -52875.52   0.37746614 
    2400    273.49531   -65.584929    140970.73   -49197.061    3755.7994    -52952.86   0.35566073 
    2600    269.41593   -102.17298    141009.22   -49237.269     3699.779   -52937.048   0.37268451 
    2800    268.31098    47.498202    140688.66   -49252.865    3684.6051    -52937.47   0.36640976 
    3000    264.10532    164.76142    140507.76   -49262.659    3626.8505   -52889.509    0.3818265 
    3200    265.76273   -3.5470628    140865.97   -49213.996    3649.6111   -52863.607   0.37813347 
    3400    268.67411   -256.79728    141282.09   -49249.566    3689.5919   -52939.158   0.35190046 
    3600    270.57188   -67.166524       140957   -49276.877    3715.6532    -52992.53   0.35531443 
    3800    272.64456    300.37185    140339.42   -49207.123    3744.1165    -52951.24   0.40701943 
    4000    269.93756    175.34103    140543.21   -49202.475    3706.9424   -52909.418   0.38318043 
    4200    274.15146   -226.14411    141311.77   -49216.211    3764.8101   -52981.022   0.32171225 
    4400     271.9208   -278.07484    141327.18   -49202.852    3734.1774    -52937.03    0.3533481 
    4600     277.5453     202.5375    140514.07   -49184.318    3811.4163   -52995.734   0.38708308 
    4800    268.65989    349.54342    140234.14   -49174.557    3689.3967   -52863.953   0.38925267 
    5000    269.91154   -58.364496    140967.39    -49157.19    3706.5851   -52863.775   0.36678681 
    5200    273.22138   -366.06648    141476.78   -49156.167    3752.0377   -52908.204   0.33211639 
    5400    272.29821    1.7191104    140904.07   -49118.727    3739.3602   -52858.088   0.35905313 
    5600    271.38292    371.84269     140266.6   -49102.725    3726.7908   -52829.516   0.42065428 
    5800    268.72329    109.59484    140642.93   -49094.901    3690.2672   -52785.169   0.38753834 
    6000     273.7398    -274.3068    141376.83   -49081.896     3759.157   -52841.053   0.33069938 
    6200     274.4732   -236.57371    141291.64   -49074.499    3769.2284   -52843.728   0.34819193 
    6400    273.88261    230.62483     140584.4   -49045.083    3761.1181   -52806.201   0.38900175 
    6600     272.1652    215.81908    140471.98   -49083.743    3737.5336   -52821.277   0.38706023 
    6800    269.57279   -128.92102    141047.88   -49121.571    3701.9331   -52823.504   0.36792744 
    7000    274.20101   -223.99843     141270.3   -49123.301    3765.4906   -52888.792   0.34065125 
    7200    276.54491    25.024408    140852.94   -49075.477    3797.6784   -52873.156   0.37221722 
    7400    272.82411    199.37428    140549.07   -49060.588    3746.5821    -52807.17   0.39442279 
    7600    271.00358    4.8572143     140842.7   -49092.366    3721.5815   -52813.947   0.37148429 
    7800    270.36392   -184.75329    141208.34   -49118.418    3712.7973   -52831.215   0.34250134 
    8000    274.65394   -46.240574    141063.83   -49087.351    3771.7105   -52859.061   0.35459869 
    8200    272.37058    108.98122    140658.25   -49120.786     3740.354    -52861.14   0.37444335 
    8400    271.17211    196.62898    140591.93   -49143.007    3723.8959   -52866.903   0.38150167 
    8600    270.87413   -62.036412    140942.77   -49105.612    3719.8038   -52825.415   0.37884221 
    8800    271.26781   -140.90131    141149.07   -49038.725    3725.2101   -52763.935   0.35767181 
    9000    280.20853    18.324763     140891.3   -49019.346    3847.9893   -52867.335   0.35748154 
    9200    278.82889    130.05105     140611.1   -49005.269    3829.0433   -52834.313   0.38748691 
    9400    277.33153    64.103239    140760.33   -49052.324    3808.4808   -52860.805   0.37534175 
    9600    270.43793   -131.76443    141060.97   -49041.804    3713.8138   -52755.618   0.36511655 
    9800    272.88554   -137.58841       141015   -49056.671    3747.4258   -52804.096   0.37291758 
   10000    275.61159    99.688542    140717.54   -49052.451    3784.8615   -52837.313   0.37724627 
   10200     278.3349    130.20929    140674.97   -49045.533    3822.2595   -52867.792   0.37828228 
   10400     277.5276    -42.48068    140952.33   -49033.328    3811.1732   -52844.501   0.37207667 
   10600    275.57145   -112.82936    141119.94   -49015.732    3784.3103   -52800.042   0.35764465 
   10800    275.10496   -34.908993    140937.14   -49046.323    3777.9042   -52824.227     0.362077 
   11000    273.37286    65.302901    140691.05   -49086.188    3754.1179   -52840.306   0.37872599 
   11200    274.87868    92.290167    140753.05   -49103.074    3774.7968   -52877.871   0.37316316 
   11400    271.13682   -78.769059    140996.92    -49127.53    3723.4113   -52850.942   0.36130602 
   11600    273.79736    -75.78862    141009.17    -49100.79    3759.9474   -52860.737   0.36323895 
   11800    269.99007    76.568303    140754.76   -49169.357    3707.6634    -52877.02   0.36774984 
   12000     276.3427     166.5643    140648.66   -49169.806    3794.9015   -52964.708   0.36622577 
   12200    269.84315   -31.995935    140912.33   -49150.193    3705.6458   -52855.839   0.36474094 
   12400    271.93774   -125.24361    141108.75   -49120.122      3734.41   -52854.532   0.36141227 
   12600    270.65504    -1.500837    140906.28   -49131.665    3716.7952    -52848.46    0.3727596 
   12800    270.11278    152.04582    140646.42   -49142.166    3709.3485   -52851.514   0.38331481 
   13000    273.04956    56.745674    140803.95    -49124.25    3749.6782   -52873.928   0.36887037 
   13200    275.07054   -162.99829    141190.23    -49098.26    3777.4314   -52875.692   0.34904658 
   13400    274.96655   -110.56278    141126.85   -49116.044    3776.0035   -52892.048   0.34688449 
   13600    274.53783    167.58874    140625.44   -49108.465     3770.116   -52878.581   0.38162506 
   13800     272.6598    175.03028    140513.16   -49103.775    3744.3258   -52848.101   0.38925207 
   14000     272.4085   -117.31489    141057.49   -49124.035    3740.8747    -52864.91   0.35856776 
   14200    271.65662   -292.89707    141390.97   -49147.493    3730.5495   -52878.043   0.33239453 
   14400    269.94199   -5.9594954    140889.69   -49171.009    3707.0032   -52878.012   0.36973188 
   14600    274.94474    286.44775    140313.69   -49166.873    3775.7039   -52942.577   0.39615016 
   14800    271.38021    104.33542    140610.68    -49152.28    3726.7536   -52879.034   0.38033938 
   15000    265.52567   -299.06344    141301.77   -49200.385    3646.3556    -52846.74   0.35385234 
   15200    267.38684   -236.55982    141168.93    -49248.66    3671.9143   -52920.575   0.34750988 
   15400    265.86926    252.42485    140381.67   -49263.475     3651.074   -52914.549   0.38723737 
   15600    269.22868    313.32356    140257.12   -49298.753    3697.2076   -52995.961   0.40272279 
   15800    267.96752   -117.51319    140998.91   -49254.691    3679.8886    -52934.58   0.35964961 
   16000    270.26333   -337.83397     141368.5   -49239.879     3711.416   -52951.295   0.33900681 
   16200    265.80337    38.030879    140770.18   -49190.048    3650.1692   -52840.217   0.38141161 
   16400     271.8746    339.67331    140279.21   -49187.565    3733.5429   -52921.108   0.39692245 
   16600     269.5735    58.723808    140714.12   -49205.573    3701.9429   -52907.516   0.37502109 
   16800    272.58648   -242.69508    141284.11   -49162.159    3743.3189   -52905.478   0.34443178 
   17000    273.53217    -131.7638    141085.25   -49184.162    3756.3057   -52940.468   0.34982228 
   17200    273.27598    173.95064    140517.23    -49166.87    3752.7875   -52919.657    0.3851942 
   17400    269.50645    169.65991    140518.68   -49210.317    3701.0221   -52911.339   0.38659314 
   17600    264.57348    -102.7908    141023.02   -49245.439    3633.2796   -52878.719   0.35928891 
   17800    266.64855   -211.80048     141172.7   -49262.165    3661.7757   -52923.941   0.34756384 
   18000    267.47079    39.220915    140740.56   -49293.091    3673.0672   -52966.158   0.36696098 
   18200    266.06693    195.59711    140446.01   -49317.777    3653.7885   -52971.565   0.38171855 
   18400    267.49034    21.504695    140743.97   -49338.492    3673.3357   -53011.828   0.36140193 
   18600    263.63903   -160.67417    141086.82   -49296.814    3620.4472   -52917.261   0.35745509 
   18800    264.83816   -102.62243    140946.72   -49235.633    3636.9143   -52872.547   0.36135212 
   19000    268.69264    102.23723    140611.94   -49262.381    3689.8464   -52952.227   0.37770104 
   19200    268.50961    131.43138    140587.45    -49237.73    3687.3329   -52925.063   0.39195419 
   19400     271.0674   -46.453561    140883.87   -49228.233     3722.458   -52950.691   0.35211827 
   19600     266.3741    -119.0002     141014.1   -49254.174    3658.0069   -52912.181   0.35753387 
   19800    271.22353    43.731199    140775.17   -49251.476    3724.6021   -52976.078   0.37800316 
   20000     267.9965    139.25724    140559.58   -49241.781    3680.2865   -52922.068   0.38247172 
   20200    265.02089    49.214036    140753.64     -49266.6    3639.4237   -52906.023   0.37324111 
   20400     269.9637   -125.11572    141026.45   -49247.757    3707.3013   -52955.058   0.35554787 
   20600    273.31024   -51.046636    140960.28   -49244.147     3753.258   -52997.405   0.35825641 
   20800    268.98127    85.948414    140687.98   -49246.044      3693.81   -52939.854   0.37700272 
   21000    269.55807    69.269235    140678.46   -49242.044     3701.731   -52943.775   0.37860013 
   21200    271.70809   -63.724242    140968.61    -49233.47    3731.2563   -52964.726   0.36062255 
   21400    271.91861   -95.903512    141065.95   -49228.469    3734.1473   -52962.616   0.35236107 
   21600    270.93979    38.933621    140825.86   -49187.673    3720.7056   -52908.379   0.37347942 
   21800    273.13935    142.48045    140678.45   -49142.892    3750.9112   -52893.803    0.3835965 
   22000    271.09715   -42.326802    140883.65   -49149.143    3722.8665   -52872.009   0.36933566 
   22200    272.44698   -75.817377    141088.39    -49109.23    3741.4031   -52850.633   0.35284888 
   22400    278.90252    -53.49682    140966.07   -49088.765    3830.0545    -52918.82    0.3597873 
   22600    273.39368    113.84172    140732.04    -49094.32    3754.4039   -52848.724   0.38488419 
   22800    275.66234    73.664396    140764.73   -49129.157    3785.5584   -52914.715   0.37282976 
   23000    269.84512   -47.460183    140986.27    -49144.75     3705.673   -52850.423   0.36218204 
   23200    275.02815   -114.92059     141005.8   -49139.283    3776.8494   -52916.132   0.35759843 
   23400    275.29397    50.177785     140771.7   -49147.033    3780.4998   -52927.533   0.36709345 
   23600     271.0671    111.04475    140605.78   -49161.327    3722.4538   -52883.781   0.38107983 
   23800    265.80957   -6.1407862    140772.38   -49104.325    3650.2543   -52754.579   0.39407718 
   24000    270.25396   -177.64344    141091.16   -49139.797    3711.2874   -52851.084   0.35454659 
   24200    271.76809   -93.811137    141042.47   -49122.597    3732.0803   -52854.677   0.35276623 
   24400    271.13662    117.34545    140631.64   -49128.481    3723.4086    -52851.89   0.39064063 
   24600    272.91714    159.29132    140585.27    -49129.85    3747.8597   -52877.709   0.38023292 
   24800    278.41474   -94.509491    141089.16    -49059.17    3823.3561   -52882.526   0.35444217 
   25000    274.39557   -277.42646    141288.07   -49054.994    3768.1624   -52823.156   0.35281249 
   25200    270.44133    52.183434    140749.78   -49077.844    3713.8604   -52791.704   0.37770238 
   25400    274.28023    265.41343    140346.17   -49135.523    3766.5785   -52902.101   0.39353923 
   25600    272.31736    26.258294    140784.42   -49157.843    3739.6232   -52897.467   0.37204974 
   25800    270.92875   -271.26224    141372.64   -49134.682     3720.554   -52855.236    0.3443371 
   26000    273.80294   -186.87078    141086.49   -49113.491     3760.024   -52873.515   0.35262932 
   26200    270.18897    262.44746    140383.05   -49157.032    3710.3948   -52867.427   0.39646466 
   26400     270.2294     202.5577    140449.48   -49179.601    3710.9501   -52890.551   0.39458998 
   26600    271.51049   -153.14906    141180.72   -49189.173    3728.5428   -52917.716   0.34831404 
   26800    265.66658     -294.631    141366.48   -49191.442    3648.2907   -52839.733   0.33864791 
   27000    270.75912    95.206469    140704.72   -49192.999    3718.2245   -52911.223   0.37101533 
   27200    271.18203    313.01551    140302.07   -49187.936    3724.0322   -52911.968    0.3937715 
   27400     269.7315    12.159482    140805.02   -49158.025    3704.1126   -52862.137   0.37234091 
   27600    268.73582   -303.14999    141325.05   -49159.757    3690.4394   -52850.196   0.34727239 
   27800    271.39006     -87.4677    140987.32   -49155.281    3726.8889    -52882.17    0.3620737 
   28000    269.75223    217.85659    140459.73    -49144.56    3704.3973   -52848.957   0.38957216 
   28200     272.0742     142.3809    140603.04   -49163.757     3736.284   -52900.041   0.37586989 
   28400    270.19184   -153.63915     141086.3   -49158.931    3710.4343   -52869.365   0.35362872 
   28600    269.52646   -154.91591    141071.23   -49177.549    3701.2969   -52878.846   0.35996641 
   28800    268.18135    117.36498    140606.22   -49187.819     3682.825   -52870.644     0.388496 
   29000    270.46113    170.28578    140472.68   -49221.914    3714.1323   -52936.046   0.39042879 
   29200    272.93819   -52.645088     140859.2   -49257.699    3748.1488   -53005.848   0.37968579 
   29400    266.20521   -175.18484    141098.35   -49255.959    3655.6875   -52911.647   0.35829886 
   29600    268.96216    31.075873     140799.6   -49219.769    3693.5476   -52913.316    0.3696775 
   29800    269.62686    169.51952    140540.58   -49146.665    3702.6756   -52849.341   0.39570242 
   30000    272.21342    22.979829    140776.04   -49139.286    3738.1958   -52877.481   0.36840463 
   30200    267.04569   -170.66434    141074.42   -49146.914    3667.2295   -52814.144    0.3565795 
   30400    268.22289   -91.398475    140930.53   -49195.196    3683.3955   -52878.592   0.37885124 
   30600    274.11649    114.51668    140592.28   -49146.331    3764.3298   -52910.661   0.37767725 
   30800    276.29042    113.85028    140668.08   -49116.944    3794.1836   -52911.127   0.38653417 
   31000    272.61848   -98.000747    141076.27   -49104.917    3743.7584   -52848.675   0.35500932 
   31200    272.31604   -111.41262     141145.7   -49106.989    3739.6051   -52846.594   0.33741903 
   31400    267.07142    15.949352    140823.97   -49105.214    3667.5829   -52772.796   0.37643845 
   31600    270.70444    129.56716    140641.42   -49163.454    3717.4735   -52880.928   0.39187667 
   31800    269.56457    18.343465    140839.44   -49138.205    3701.8202   -52840.026   0.36805987 
   32000    272.43529   -91.593641    141060.99   -49109.981    3741.2426   -52851.224   0.35548142 
   32200    271.38404   -76.569908    140969.41   -49141.407    3726.8062   -52868.213   0.36660099 
   32400    271.45701    84.481032    140705.77   -49135.645    3727.8083   -52863.453   0.36506905 
   32600    271.99959    81.664669    140699.25   -49123.824    3735.2594   -52859.083   0.37475048 
   32800    269.01789   -99.919724    140967.71   -49120.389    3694.3129   -52814.701   0.38463068 
   33000    270.60278    -102.2311    141040.76   -49109.796    3716.0776   -52825.874    0.3553113 
   33200     271.6398    10.523654    140826.17   -49104.568    3730.3185   -52834.886   0.36948188 
   33400    276.37897    41.483501    140680.22   -49068.262    3795.3996   -52863.662   0.38109126 
   33600    275.06047    66.614676    140805.16    -49004.24    3777.2932   -52781.534   0.36571955 
   33800    274.86322   -75.201499    141007.19   -49036.331    3774.5844   -52810.916   0.36726296 
   34000    271.09869   -84.389987    140938.35   -49056.212    3722.8877   -52779.099   0.38283137 
   34200    273.91268    49.449555    140716.14   -49085.067     3761.531   -52846.598    0.3789246 
   34400    272.62833    85.484696    140683.61   -49146.315    3743.8935   -52890.209   0.37050579 
   34600    271.84713   -66.675182    140860.13   -49121.481    3733.1657   -52854.647   0.38493911 
   34800    271.90787   -72.287572    140953.93    -49159.22    3733.9998    -52893.22   0.35757204 
   35000    271.96937   -5.0231385    140851.91   -49182.897    3734.8444   -52917.741   0.36143561 
   35200     271.9177    64.122464     140690.4   -49170.323    3734.1349   -52904.458    0.3811168 
   35400    275.55023    72.189259    140708.62   -49135.267    3784.0188   -52919.286    0.3678861 
   35600    271.10256   -25.069039    140898.92    -49129.57    3722.9409   -52852.511   0.36346424 
   35800    270.58096    -57.23845    140981.67   -49129.737    3715.7779   -52845.515   0.37061891 
   36000     275.2012   -9.9907015    140853.86   -49131.551    3779.2258   -52910.777   0.36290423 
   36200    268.73156    50.872129    140771.68   -49145.599    3690.3808    -52835.98   0.36409925 
   36400    268.52298   -7.0981691    140881.89   -49171.916    3687.5165   -52859.433   0.36296982 
   36600    269.35253   -15.994322    140975.68   -49149.787    3698.9084   -52848.696   0.36559403 
   36800    276.60562   -30.246164    140921.94   -49191.912    3798.5122   -52990.425    0.3593655 
   37000     270.6239     29.94019    140806.15   -49182.347    3716.3676   -52898.715   0.36816021 
   37200    270.84259    26.285047    140794.99   -49146.213    3719.3707   -52865.583   0.37343634 
   37400    269.27461   -37.745995    140923.85   -49138.856    3697.8383   -52836.694   0.35251706 
   37600    270.94675   -49.095744    140963.49   -49164.571    3720.8012   -52885.372   0.36139001 
   37800    271.92596     52.12444    140807.33   -49131.739    3734.2483   -52865.987   0.38657498 
   38000    268.09387    67.364676     140718.1   -49182.375    3681.6237   -52863.998   0.37226297 
   38200    272.08706    3.9887356    140857.55   -49177.207    3736.4606   -52913.668   0.36163715 
   38400     270.2306     -106.189    140958.36   -49143.841    3710.9666   -52854.807   0.38012553 
   38600    270.57455    20.779422    140806.95   -49140.833    3715.6898   -52856.523   0.35618276 
   38800    269.26614     87.36659    140676.68   -49188.338    3697.7221    -52886.06   0.37254833 
   39000    268.31265    1.6916014     140776.2   -49213.342    3684.6281    -52897.97    0.3916719 
   39200      266.273   -77.654666    140895.77   -49231.907    3656.6185   -52888.525   0.35909604 
   39400    268.70368    2.3780578    140850.48   -49223.346     3689.998   -52913.344   0.36515018 
   39600    264.82243    1.3978121    140760.21   -49290.105    3636.6983   -52926.803   0.38975322 
   39800    270.84552    41.209564    140753.59   -49279.804    3719.4109   -52999.215   0.36433154 
   40000     264.3506    4.8844698    140818.65   -49290.234     3630.219   -52920.453   0.35358787 
   40200    271.94871    10.667288    140842.02   -49267.181    3734.5607   -53001.742     0.373058 
   40400    267.02297    11.933063    140785.79   -49260.984    3666.9174   -52927.902   0.37730934 
   40600    270.38947    50.847584    140729.26   -49288.491    3713.1482   -53001.639   0.35753661 
   40800    266.64209    11.226181    140787.57   -49306.624    3661.6869   -52968.311   0.38500279 
   41000    266.12532   -57.219971    140876.86   -49264.211    3654.5904   -52918.802   0.37147956 
   41200    265.41287    9.6706485    140829.61   -49294.732    3644.8066   -52939.538   0.34586707 
   41400    266.83581    64.674822    140729.35   -49262.159    3664.3472   -52926.507   0.39304063 
   41600    269.45275    9.9888535    140759.43   -49257.809    3700.2846   -52958.094   0.36923728 
   41800     268.4835   -53.244997     140870.5   -49256.262    3686.9744   -52943.237   0.35199594 
   42000    270.95757   -31.693995    140890.25   -49230.707    3720.9497   -52951.656   0.37774011 
   42200    270.82013    3.0362298    140779.26   -49255.916    3719.0623   -52974.979   0.37357365 
   42400    263.63731    60.066219    140698.01   -49303.261    3620.4235   -52923.685   0.36662736 
   42600    265.40996   -32.585477    140783.07    -49328.05    3644.7667   -52972.817    0.3700029 
   42800    264.13227   -51.543129    140884.05   -49328.321    3627.2206   -52955.542   0.36609024 
   43000    265.20985   -12.562639     140844.9   -49285.802    3642.0186   -52927.821    0.3587619 
   43200    271.87593    42.511996    140746.38   -49290.483    3733.5612   -53024.045   0.37708793 
   43400    270.30588    27.109927    140746.86   -49282.052    3712.0003   -52994.052   0.39426301 
   43600    266.31309   -27.959585    140832.66   -49278.056     3657.169   -52935.225   0.35115478 
   43800    273.77414   -26.069611    140879.93    -49253.01    3759.6285   -53012.639   0.35947976 
   44000    264.89148   -42.979335    140817.42   -49269.565    3637.6466   -52907.212   0.38875881 
   44200    265.92057    11.262827       140712    -49309.53    3651.7787   -52961.309   0.35463593 
   44400    267.31487    41.965508    140735.66   -49284.901     3670.926   -52955.827   0.38809301 
   44600    264.90572   -69.448303    140903.12   -49226.508    3637.8421    -52864.35   0.38065155 
   44800    272.99219   -60.898055    140955.47   -49193.597    3748.8903   -52942.487   0.34608071 
   45000    270.78567    40.404349    140804.28   -49227.065    3718.5892   -52945.654    0.3742224 
   45200    267.15419    90.941079    140694.58   -49246.181    3668.7194     -52914.9   0.37674682 
   45400    271.48915   -11.396589    140778.38   -49292.655    3728.2497   -53020.905   0.36396817 
   45600     268.1872   -32.870743    140879.59   -49281.265    3682.9054   -52964.171   0.35756828 
   45800    265.16549   -9.4745438    140840.57   -49257.523    3641.4095   -52898.933   0.37814148 
   46000    270.42309    55.212618    140750.49   -49254.819    3713.6099   -52968.428   0.37730007 
   46200    270.24479    46.922938    140761.52   -49286.138    3711.1614     -52997.3   0.35391872 
   46400    269.94494   -1.7276867     140847.9   -49269.667    3707.0437   -52976.711    0.3782105 
   46600    264.80967   -24.946272    140901.71    -49266.67    3636.5231   -52903.193   0.35259741 
   46800    273.64298    6.9986083    140838.75   -49234.979    3757.8273   -52992.806   0.35232327 
   47000    265.72779     11.75919     140744.8    -49214.76    3649.1313   -52863.891   0.39601802 
   47200    272.15803    15.272924    140782.31   -49188.281    3737.4352   -52925.716   0.36578684 
   47400    272.46247     -66.1799    140940.28   -49123.684    3741.6159     -52865.3   0.36796254 
   47600    266.58329    -45.33462    141012.82   -49098.208    3660.8795   -52759.088   0.37287464 
   47800    278.33946   -24.405681    140898.56   -49070.129    3822.3222   -52892.451    0.3632823 
   48000    273.77654    90.012335    140756.09   -49073.243    3759.6615   -52832.905    0.3680759 
   48200    274.77176    36.865664    140827.77   -49074.238    3773.3284   -52847.566   0.37726716 
   48400    277.17478   -53.815188    141035.28   -49056.177    3806.3281   -52862.505   0.36757314 
   48600    272.89885   -107.72905    141019.58   -49116.004    3747.6085   -52863.613   0.35198411 
   48800    280.54542    122.37355    140746.68   -49062.416    3852.6157   -52915.032   0.37089914 
   49000    275.10958    76.637212    140724.49   -49041.179    3777.9676   -52819.147   0.38531692 
   49200     274.0584   -51.111808    141017.16     -49073.4    3763.5322   -52836.933   0.33864141 
   49400    276.69769   -101.60673    141149.14   -49082.404    3799.7765   -52882.181   0.35748103 
   49600    275.07373    34.559473    140883.46    -49098.74    3777.4753   -52876.215    0.3759353 
   49800    277.23446     162.5413    140657.67   -49080.857    3807.1478   -52888.005   0.36601183 
   50000    279.12849    16.785583    140866.59   -49083.062    3833.1576    -52916.22   0.37878054 
   50200      273.619   -143.04947    141135.03    -49116.45    3757.4981   -52873.948   0.34790213 
   50400    272.12907   -77.189393    140977.02   -49120.478    3737.0375   -52857.516   0.35752992 
   50600    271.00033    148.38939    140618.21   -49139.933    3721.5369    -52861.47    0.3908674 
   50800    271.42793    97.958732    140664.53   -49150.584    3727.4089   -52877.993    0.3888386 
   51000    275.33883   -114.21236    141064.97   -49090.235    3781.1158    -52871.35   0.36337664 
   51200    271.96337   -210.03858    141171.92   -49118.589    3734.7619   -52853.351   0.35037695 
   51400    272.73114    65.474517    140770.91   -49083.213    3745.3054   -52828.518   0.39800809 
   51600    276.78887    212.22565    140530.02     -49084.9    3801.0286   -52885.928   0.38555997 
   51800    277.32183    27.672718    140853.57   -49081.715    3808.3475   -52890.062   0.36170876 
   52000    280.12995   -178.13179    141237.38   -49044.956    3846.9102   -52891.866   0.37378155 
   52200    272.56993    -110.1359    141098.45   -49018.266    3743.0916   -52761.358   0.35134064 
   52400    282.72368    177.21533    140686.47   -49001.509     3882.529   -52884.038   0.38473745 
   52600    273.00123    102.17372    140704.29   -49038.261    3749.0145   -52787.275    0.3903018 
   52800    272.77184   -103.20928    141129.72   -49055.833    3745.8643   -52801.697   0.34136159 
   53000    274.64345   -178.99562     141241.7   -49060.406    3771.5663   -52831.972    0.3655541 
   53200    273.71548    49.824081    140810.13   -49067.729     3758.823   -52826.552   0.36938983 
   53400     275.3961     245.9553    140499.03   -49095.443    3781.9023   -52877.345   0.39383333 
   53600    270.71967    41.886446    140784.43   -49120.192    3717.6827   -52837.875   0.36964395 
   53800    272.57055   -189.45864    141193.35   -49097.678    3743.1002   -52840.778   0.34792851 
   54000    279.30823   -103.21752    141037.81     -49088.2     3835.626   -52923.826   0.36761704 
   54200    275.84299    182.79907    140542.29   -49094.395    3788.0392   -52882.435   0.37496661 
   54400     270.7263    164.19299    140529.96   -49119.858    3717.7738   -52837.632   0.39730179 
   54600    274.52971    -117.7461    141049.06   -49115.151    3770.0045   -52885.155   0.36592003 
   54800    273.94238   -201.19062    141266.29   -49060.867    3761.9389   -52822.806   0.33642281 
   55000    272.16166    26.575525    140769.65   -49062.872     3737.485   -52800.357   0.39572302 
   55200    274.78982    288.32085    140321.75   -49090.162    3773.5765   -52863.738   0.39985364 
   55400    276.31237     82.51209    140707.86   -49113.647     3794.485   -52908.132   0.37249597 
   55600    274.29369   -288.98704    141322.68   -49147.126    3766.7633   -52913.889   0.35340224 
   55800    275.44942   -153.30061    141123.66   -49120.771    3782.6345   -52903.406   0.35162157 
   56000    274.38409    218.54091    140449.89   -49107.022    3768.0048   -52875.027   0.41346681 
   56200    270.11814    236.79654    140481.65   -49140.646    3709.4222   -52850.068   0.38900212 
   56400    269.61928   -172.41258    141174.71    -49143.26    3702.5715   -52845.831   0.36178818 
   56600    269.90481   -249.73695    141341.42   -49143.682    3706.4926   -52850.175   0.33981993 
   56800    268.70294    36.112485    140689.25   -49097.396    3689.9879   -52787.384   0.38252462 
   57000     275.8793    318.61744    140357.45   -49104.931    3788.5378   -52893.469   0.41860778 
   57200    273.16002   -3.8351172    140853.43   -49134.652    3751.1951   -52885.847     0.359677 
   57400    266.82241   -255.97355    141288.68   -49150.728    3664.1632   -52814.891    0.3586329 
   57600    271.63698    -65.98476    140970.31   -49141.682    3730.2799   -52871.962   0.36983901 
   57800    273.89921    162.00727    140521.39   -49153.886    3761.3461   -52915.232   0.38481169 
   58000    270.75202    107.87983    140651.27   -49166.849    3718.1271   -52884.976   0.39284979 
   58200    269.26847   -122.54779    141027.82    -49204.32     3697.754   -52902.074   0.35181406 
   58400    268.60936   -101.14849    140994.36   -49196.664    3688.7028   -52885.367   0.36635132 
   58600    268.15909     62.20336    140713.41   -49177.048    3682.5194   -52859.567   0.37995871 
   58800    268.77117    85.345998    140697.16   -49208.226    3690.9248   -52899.151    0.3836297 
   59000    268.60236     -29.2513    140916.69   -49231.128    3688.6066   -52919.734   0.37096551 
   59200     266.9674   -110.88495     140962.1   -49230.957    3666.1543   -52897.111    0.3502406 
   59400    267.56898    42.459218    140759.16   -49176.625    3674.4156   -52851.041   0.39315486 
   59600    270.80441    70.717248    140684.44   -49174.031    3718.8465   -52892.877   0.38254045 
   59800    274.37096    22.013209    140845.16   -49160.543    3767.8244   -52928.368   0.35350349 
   60000    267.22188   -96.389919    140990.58   -49148.035     3669.649   -52817.684   0.38425779 
   60200    273.54636   -67.579317    140935.97   -49122.796    3756.5005   -52879.296   0.36056584 
   60400    274.03043    47.789687    140774.31   -49092.429    3763.1481   -52855.577   0.37299727 
   60600    272.99285    69.370949    140793.89   -49131.125    3748.8994   -52880.024   0.37667428 
   60800    271.73291   -12.343686    140947.61   -49072.938    3731.5972   -52804.535   0.35629327 
   61000    272.21571   -28.672936    140996.79   -49109.498    3738.2272   -52847.725   0.37028372 
   61200    270.24362    22.002195    140846.52   -49112.646    3711.1453   -52823.791   0.37721773 
   61400    270.69484    68.340343    140711.11   -49111.133    3717.3417   -52828.475   0.39837153 
   61600    274.57589    4.0706103     140798.8   -49103.436    3770.6387   -52874.075   0.36354947 
   61800    271.48088   -63.329671    140979.36   -49102.757    3728.1361   -52830.893   0.35434292 
   62000    273.17273      -56.531    140941.49   -49125.613    3751.3696   -52876.982   0.38663621 
   62200     272.7269    47.686407    140741.32   -49136.452    3745.2472   -52881.699    0.3677365 
   62400    268.98364    67.387172    140761.33   -49100.731    3693.8426   -52794.574   0.39057223 
   62600    273.40803   -96.300575    141029.32   -49121.518    3754.6009   -52876.119   0.36900696 
   62800    273.34531   -116.31785    141066.15   -49098.799    3753.7395   -52852.538    0.3339003 
   63000    270.22469      54.0811    140777.93   -49068.083    3710.8854   -52778.968   0.39246396 
   63200    276.10915     122.5992    140611.71   -49073.097    3791.6942   -52864.791    0.3918354 
   63400    268.36764    53.317355    140850.75   -49032.053    3685.3832   -52717.436   0.37202883 
   63600    276.29362   -171.40261    141157.96   -49013.359    3794.2275   -52807.587   0.35762967 
   63800      272.488   -44.947349    141003.28   -49038.451    3741.9665   -52780.418   0.36456584 
   64000    274.97966    119.75492    140609.01    -49033.41    3776.1835   -52809.594   0.39908761 
   64200    276.47218    122.82162    140679.64   -49035.862    3796.6796   -52832.541   0.37254596 
   64400    280.03989   -110.91614    141172.35   -49024.445    3845.6736   -52870.119   0.36746486 
   64600    274.72731   -210.99745    141261.53   -49074.785    3772.7181   -52847.503   0.33738379 
   64800    276.51665    166.82612    140664.09   -49084.298    3797.2903   -52881.588   0.36223997 
   65000    273.39895     255.4587    140381.04   -49075.484    3754.4762    -52829.96   0.43477591 
   65200    272.76597   -22.968769    140965.55   -49102.821    3745.7837   -52848.605   0.35835616 
   65400    274.61964   -376.37215    141489.37   -49124.825    3771.2394   -52896.064   0.33291626 
   65600    268.38388   -98.756135    140990.78   -49147.909    3685.6063   -52833.516   0.36709855 
   65800    272.37525    305.76667    140216.77   -49123.373    3740.4182   -52863.791   0.39009584 
   66000    274.28495    179.16127    140487.94   -49125.323    3766.6433   -52891.966   0.39164333 
   66200    271.12233   -299.48447    141390.21   -49149.413    3723.2124   -52872.625    0.3548948 
   66400    266.90412   -302.22234    141371.29   -49141.765    3665.2854    -52807.05   0.35262616 
   66600    270.48431    179.19193     140426.1   -49153.957    3714.4507   -52868.408   0.37622567 
   66800    271.73703    358.28844    140152.41   -49137.802    3731.6538   -52869.455    0.4182878 
   67000    273.20527   -73.926337    140998.66    -49167.71    3751.8165   -52919.527   0.37826122 
   67200    271.50167   -384.79533    141564.59   -49183.626    3728.4216   -52912.047   0.31182512 
   67400    267.80477    -58.15532    140963.27   -49214.567    3677.6537   -52892.221   0.38272004 
   67600     272.3732    301.06514    140306.14   -49173.693      3740.39   -52914.083   0.39859812 
   67800     270.6965    159.63559    140638.43   -49127.088    3717.3646   -52844.453   0.36173804 
   68000    275.26865   -218.13675    141265.04   -49123.551    3780.1521   -52903.704   0.37175387 
   68200    269.26557   -151.68854    141187.84   -49189.114    3697.7142   -52886.828   0.34423121 
   68400    268.10767    124.87216    140660.38   -49136.063    3681.8133   -52817.877   0.37970044 
   68600    274.58683    170.32905    140548.38   -49123.776    3770.7889   -52894.565   0.38925394 
   68800    271.39307    -63.00594    140966.85   -49094.313    3726.9302   -52821.243   0.37229829 
   69000    275.58322   -168.12824     141217.1   -49135.709    3784.4719   -52920.181   0.34461951 
   69200    270.19554    6.7289604     140892.2   -49140.931    3710.4851   -52851.416   0.36669293 
   69400    270.98765    190.16792    140563.65   -49177.807    3721.3628   -52899.169   0.39283491 
   69600     273.9686    65.506729    140733.87   -49190.153     3762.299   -52952.453   0.35966506 
   69800    271.92246   -141.73692     141056.9   -49159.007    3734.2002   -52893.208   0.36057537 
   70000    269.79864   -95.051655     141013.8   -49120.392    3705.0347   -52825.427    0.3869902 
   70200    274.54254    80.164033    140706.92   -49104.133    3770.1807   -52874.314   0.35737102 
   70400    273.27793    123.85892    140631.33    -49116.93    3752.8143   -52869.744   0.39482745 
   70600     272.5207    11.509787    140909.11   -49092.089    3742.4155   -52834.505   0.37811614 
   70800    271.00031   -146.73867    141130.16   -49114.501    3721.5366   -52836.037   0.33869757 
   71000    273.59049     -27.9928     140918.8   -49156.967    3757.1066   -52914.073   0.37604383 
   71200    271.63775    148.04107    140583.64   -49164.228    3730.2904   -52894.518   0.38371101 
   71400    271.80939    109.91368    140671.07   -49133.766    3732.6475   -52866.413   0.37467595 
   71600    269.17372   -111.82055    141060.57   -49112.654    3696.4528   -52809.106   0.36088738 
   71800    272.39004   -122.44989    141077.04   -49130.756    3740.6213   -52871.377   0.36070894 
   72000    268.47863    69.751894    140743.04    -49154.64    3686.9074   -52841.547   0.36740324 
   72200    270.77858    155.23431    140613.02   -49188.243    3718.4917   -52906.735   0.37104451 
   72400     270.4912   -29.672126     140902.9   -49171.443    3714.5452   -52885.988    0.3899043 
   72600    272.98277   -150.05516    141129.09   -49140.149     3748.761    -52888.91   0.34565506 
   72800    266.38702   -14.702341    140898.28   -49211.331    3658.1843   -52869.515   0.34892464 
   73000     272.6271    171.50172    140560.96   -49209.486    3743.8767   -52953.363   0.39876728 
   73200    270.39352     80.17628    140682.69   -49222.944    3713.2039   -52936.148   0.36784692 
   73400    272.30036   -116.96365    141064.84   -49218.366    3739.3898   -52957.756   0.34512385 
   73600    265.99151   -108.62822    141038.79   -49200.456    3652.7528   -52853.208    0.3744205 
   73800    261.09126    157.03554    140597.41   -49194.555    3585.4597   -52780.015   0.37665051 
   74000    270.84776    191.94673    140490.63   -49239.709    3719.4417   -52959.151   0.37631172 
   74200     269.1339   -56.870591    140953.79   -49236.859    3695.9061   -52932.765    0.3734454 
   74400    271.02617   -209.15947    141217.88   -49200.199    3721.8918   -52922.091   0.34959244 
   74600    267.39718   -18.975223    140806.68   -49221.845    3672.0563   -52893.901   0.35246059 
   74800    270.12531     254.9572    140403.42   -49231.503    3709.5206   -52941.024   0.39197528 
   75000    272.60538    76.552976    140722.42   -49198.428    3743.5785   -52942.006   0.37434778 
   75200    266.70923    -237.9731    141292.63   -49185.053     3662.609   -52847.662    0.3324205 
   75400    266.97183   -188.73197    141172.32   -49173.537    3666.2152   -52839.752   0.38101866 
   75600    269.82223    234.58288    140523.16   -49154.684    3705.3586   -52860.043   0.39404884 
   75800    272.43948    272.30064     140445.8   -49134.978    3741.3002   -52876.278   0.36182763 
   76000    265.81383   -184.82068    141142.47   -49121.882    3650.3129   -52772.195   0.37385884 
   76200    269.83234   -328.16667    141427.37   -49144.767    3705.4974   -52850.265   0.34029859 
   76400     269.0807    28.081822    140748.89    -49116.74    3695.1754   -52811.916   0.37569529 
   76600    271.60964    358.30571    140243.29   -49104.545    3729.9043   -52834.449   0.42420771 
   76800    269.50311    32.771213    140797.26   -49105.936    3700.9762   -52806.912   0.36381278 
   77000    271.69337   -354.92512    141476.08   -49105.739    3731.0542   -52836.793   0.32833965 
   77200    271.87683   -155.63428    141109.69   -49148.857    3733.5735    -52882.43   0.36268668 
   77400    274.86641    295.04809    140336.58   -49139.318    3774.6283   -52913.947   0.41792851 
   77600    270.18578     238.4075    140482.28   -49156.263     3710.351   -52866.614   0.38066539 
   77800    272.96858   -231.00341    141270.04   -49168.071    3748.5661   -52916.638   0.33291157 
   78000    272.80204   -243.40355    141346.67   -49166.477    3746.2791   -52912.756     0.345942 
   78200    270.57962    127.47899    140653.07   -49161.541    3715.7594   -52877.301   0.36464905 
   78400    270.63602    254.36953    140368.98   -49179.793     3716.534   -52896.327   0.40577803 
   78600     273.4572    17.217348    140839.16   -49198.116    3755.2761   -52953.392   0.37272128 
   78800    267.98861   -226.20905    141207.26   -49183.076    3680.1782   -52863.254   0.33415304 
   79000    272.38369    10.103171    140949.67   -49167.872    3740.5341   -52908.406   0.37448373 
   79200    276.40321    114.85507    140634.04   -49178.325    3795.7325   -52974.057   0.37928945 
   79400    272.73037    51.641109    140733.93   -49134.517    3745.2949   -52879.812   0.37776461 
   79600    274.36277    -113.8401    140980.87    -49124.79    3767.7119   -52892.502   0.36498232 
   79800    270.22188   -66.834785    140952.89   -49147.463    3710.8467    -52858.31   0.35966105 
   80000    271.64853    65.344044    140763.02   -49120.824    3730.4384   -52851.262   0.37720483 
   80200     273.1189    56.713774    140767.55    -49088.39    3750.6304    -52839.02   0.37075921 
   80400    276.32599   -32.600788    140977.21   -49060.573    3794.6721   -52855.245    0.3746662 
   80600    269.91773   -127.58823    141075.93   -49078.409      3706.67   -52785.079   0.36500484 
   80800    279.31701   -23.673359     140887.1   -49025.263    3835.7466   -52861.009   0.36090463 
   81000    269.23497    111.95476    140708.92   -49073.219     3697.294   -52770.513   0.39824427 
   81200    272.68075    38.919296    140831.23   -49055.967    3744.6135   -52800.581   0.36152449 
   81400    273.80356   -93.777384    141085.89   -49034.463    3760.0326   -52794.496   0.35966713 
   81600    272.47023   -91.953553    141084.42     -49054.2    3741.7224   -52795.922   0.36741574 
   81800    273.87813    63.941421    140829.77    -49058.88    3761.0566   -52819.936   0.36724575 
   82000    277.12273    84.440211    140740.57   -49029.007    3805.6134   -52834.621   0.38557538 
   82200    273.57209   -16.309737    140947.31   -49071.074    3756.8539   -52827.927   0.35997685 
   82400    275.56938   -80.696489    141103.09   -49073.141    3784.2818   -52857.423   0.35825103 
   82600    273.75758    -38.36502    140961.44   -49114.789    3759.4011   -52874.191   0.36829286 
   82800    271.78945    103.31325    140754.26   -49151.489    3732.3736   -52883.862   0.36017497 
   83000    274.15742    50.484369    140823.69   -49137.969     3764.892   -52902.861   0.38376767 
   83200    268.85274   -106.66148    141085.31   -49157.846    3692.0449   -52849.891   0.33956868 
   83400    270.52506   -123.00729    141078.71   -49176.117    3715.0102   -52891.127   0.35165853 
   83600    271.31143    83.243579    140777.31    -49191.92    3725.8091   -52917.729   0.38064978 
   83800    275.99814    186.91885    140647.41   -49145.523    3790.1699   -52935.693   0.36478416 
   84000    269.89086   -23.501681    140937.57   -49174.066     3706.301   -52880.367    0.3650078 
   84200    270.99688   -151.34067    141187.84   -49162.623    3721.4896   -52884.112   0.33869737 
   84400     273.4309   -21.372939    140973.56   -49166.517     3754.915   -52921.432   0.35369659 
   84600    271.03876    160.08536    140648.67   -49163.362    3722.0647   -52885.426   0.38518196 
   84800    269.40077    90.734992    140758.58   -49174.023    3699.5708   -52873.594    0.3703233 
   85000    272.58101   -122.95818    141165.93   -49140.083    3743.2437   -52883.327   0.35287095 
   85200    275.03838     -140.529    141189.38    -49110.51    3776.9898     -52887.5   0.33059203 
   85400    271.68669    94.783592    140743.72   -49098.588    3730.9624   -52829.551   0.36749017 
   85600    271.50136    201.74989    140539.36     -49096.6    3728.4174   -52825.017    0.4050159 
   85800    271.37578    -43.99795    140980.48   -49110.692    3726.6928   -52837.385   0.34673499 
   86000    274.42925   -248.10909     141357.3   -49065.642    3768.6249   -52834.267   0.34394749 
   86200    271.04652   -41.114582    140997.05   -49075.003    3722.1713   -52797.174   0.35883738 
   86400    274.10987    236.04001    140419.93   -49068.655    3764.2389   -52832.894   0.38676828 
   86600    274.65171    185.17418    140600.68   -49069.503    3771.6799   -52841.183   0.39683037 
   86800    269.76168   -274.00444    141356.94   -49095.886     3704.527   -52800.413   0.33342518 
   87000    273.34737   -270.61771    141366.37   -49114.786    3753.7679   -52868.554   0.33461078 
   87200    276.44182    226.16177    140513.58    -49086.83    3796.2627   -52883.093   0.38475462 
   87400    274.63202    359.76734    140229.26   -49052.189    3771.4094   -52823.598   0.40757203 
   87600    272.71033   -107.40212    141015.82   -49116.662    3745.0197   -52861.681     0.364119 
   87800    267.27436   -392.80889    141534.02   -49118.638    3670.3697   -52789.008   0.33000552 
   88000    274.03513   -20.175925    140902.26   -49072.859    3763.2127   -52836.072   0.37407681 
   88200    276.84262     355.9387    140267.74   -49084.237    3801.7668   -52886.004    0.3927404 
   88400    274.39015     121.3717    140686.11   -49072.379     3768.088   -52840.467   0.37161736 
   88600    272.63664   -289.14367    141348.72   -49083.576    3744.0078   -52827.584   0.35853285 
   88800    265.52121    -128.5911    141129.37   -49072.378    3646.2944   -52718.672   0.34711921 
   89000    270.94372    200.89205    140493.28   -49092.435    3720.7596   -52813.195   0.39051861 
   89200    277.67859     227.1899     140510.3    -49070.05    3813.2467   -52883.297   0.38828481 
   89400    275.98147   -154.17825    141113.75     -49044.4    3789.9409    -52834.34   0.35335717 
   89600    278.58035   -243.94446    141284.02   -49064.689    3825.6303   -52890.319   0.34749814 
   89800    272.79863    41.996818    140779.25   -49097.572    3746.2323   -52843.804   0.37299323 
   90000    277.23392    270.74135    140480.72   -49114.036    3807.1404   -52921.176   0.38570655 
   90200    275.03196     18.94166    140866.82   -49158.794    3776.9017   -52935.695   0.35445959 
   90400    271.76652   -238.95156    141269.55    -49176.02    3732.0588   -52908.079   0.34141702 
   90600    273.65665   -41.662208    140997.65    -49168.38    3758.0151   -52926.395   0.36069615 
   90800    267.58332    212.20597    140515.29   -49190.525    3674.6126   -52865.137   0.36497887 
   91000    264.83343    120.31536     140619.6   -49192.622    3636.8495   -52829.471   0.39430453 
   91200    270.63719   -161.99552    141116.66   -49206.241    3716.5501   -52922.791   0.35138195 
   91400    269.78418   -213.95088    141174.87   -49196.448    3704.8361   -52901.284    0.3342156 
   91600    271.54619     91.14459    140678.48   -49200.025     3729.033   -52929.058   0.39217955 
   91800    269.97441    248.13942    140424.68   -49177.152    3707.4484   -52884.601   0.38040587 
   92000    267.90848   -24.398193    140826.76     -49192.2    3679.0778   -52871.277   0.36417903 
   92200     264.9101   -237.96453    141191.73    -49211.49    3637.9023   -52849.393    0.3520542 
   92400    271.19053   -54.212499    140941.53    -49192.34    3724.1489   -52916.489   0.35109472 
   92600    269.00935    159.91308    140515.28   -49244.807    3694.1956   -52939.003   0.38626669 
   92800    264.91772    106.00116    140616.78   -49216.503    3638.0069    -52854.51   0.37921491 
   93000    271.17286   -105.83409    141063.64   -49149.547    3723.9062   -52873.454   0.36005061 
   93200     269.6619   -152.18861    141146.37   -49147.588    3703.1568   -52850.745   0.34398918 
   93400    268.85632     46.49269    140726.75   -49150.553    3692.0941   -52842.647   0.37417807 
   93600    271.87585    175.56877    140512.56   -49135.274      3733.56   -52868.834   0.39464138 
   93800    272.18951   -26.861401    140863.38   -49127.165    3737.8675   -52865.032   0.35923801 
   94000    271.88608   -169.90133    141176.26    -49127.69    3733.7006   -52861.391    0.3590015 
   94200    268.44025   -73.816183    140921.24   -49203.739    3686.3804    -52890.12   0.36461708 
   94400     268.8106    170.57313    140520.51    -49188.79    3691.4662   -52880.257   0.37499811 
   94600    268.69139    103.88148     140632.2   -49186.964    3689.8292   -52876.793   0.38895658 
   94800    267.70346   -121.83668    141008.55   -49235.493    3676.2624   -52911.755   0.35428979 
   95000    265.19367   -114.78956       141013   -49240.244    3641.7964   -52882.041   0.35903514 
   95200     266.2591     125.8944    140650.35   -49245.667    3656.4275   -52902.094   0.38041276 
   95400    270.77228    164.59878    140558.36   -49257.304    3718.4052    -52975.71   0.37598457 
   95600    270.80985   -13.477429     140893.9   -49223.552    3718.9211   -52942.473   0.36951445 
   95800    273.40406   -142.32735     141105.7   -49188.728    3754.5464   -52943.274   0.34797371 
   96000     270.3888   -48.971706    140838.46   -49181.225    3713.1391   -52894.364   0.37045919 
   96200    267.28818    156.72816    140571.33   -49220.656    3670.5595   -52891.216   0.38021421 
   96400    269.69065     117.5637    140727.25   -49214.849    3703.5516     -52918.4   0.35217099 
   96600    273.21464   -96.353461    141039.24   -49227.089    3751.9451   -52979.034   0.35915414 
   96800    265.17875   -142.76801    141000.39   -49274.747    3641.5916   -52916.339   0.35445438 
   97000    266.23397    96.577555    140682.42   -49259.854    3656.0824   -52915.937   0.36851804 
   97200    270.46114    112.29897    140649.79    -49249.04    3714.1325   -52963.172    0.3851518 
   97400    269.95757   -19.987044    140946.03     -49208.3    3707.2172   -52915.517   0.34743345 
   97600    269.29862   -105.49892    141092.23   -49181.707     3698.168   -52879.875   0.35142121 
   97800    269.50416    6.8174168    140905.99   -49176.817    3700.9906   -52877.807   0.35713915 
   98000     269.9545    82.533626     140710.3   -49150.292     3707.175   -52857.467    0.3762909 
   98200    274.84535    56.484639    140800.77   -49160.483    3774.3391   -52934.822   0.36455002 
   98400    275.46245   -46.608568     141007.3   -49094.937    3782.8135    -52877.75   0.34929099 
   98600    270.32797   -83.377501    141040.89   -49138.893    3712.3037   -52851.197   0.36248619 
   98800     273.7255   -2.9507794    140869.13    -49104.09    3758.9606    -52863.05   0.34676175 
   99000    269.80737    64.986215    140757.98   -49106.876    3705.1545    -52812.03   0.37199946 
   99200    269.55115     4.885727    140871.07   -49167.833    3701.6359   -52869.469   0.37825844 
   99400    267.08573   -60.606001    140988.38   -49255.138    3667.7793   -52922.917   0.33546434 
   99600    264.89451   -27.507509    140873.34   -49276.695    3637.6882   -52914.384   0.37101484 
   99800    267.53537    84.720884    140682.34   -49250.126     3673.954    -52924.08   0.36318983 
  100000    265.57986    29.247185    140727.97   -49250.406    3647.0998   -52897.506   0.36360927 
  100200    268.96764   -66.198369    140895.03   -49210.074    3693.6229   -52903.697   0.36718724 
  100400    263.10515   -78.264892    140905.18   -49206.492    3613.1156   -52819.607   0.36357492 
  100600    269.19796    69.076428    140777.34   -49158.739    3696.7858   -52855.525    0.3704268 
  100800    270.61624    47.795982    140740.25   -49187.054    3716.2623   -52903.316   0.35996303 
  101000    270.14388   0.48504837    140873.68   -49170.347    3709.7756   -52880.123   0.36691787 
  101200    272.75276   -62.180555    141010.26   -49150.987    3745.6024    -52896.59   0.34650598 
  101400    272.30075   -31.876331    140919.02   -49156.507    3739.3951   -52895.902   0.34937113 
  101600     270.9164    122.89985    140718.17   -49171.407    3720.3844   -52891.791   0.37926934 
  101800    272.08045    56.613743    140723.82   -49140.575    3736.3698   -52876.945   0.36067574 
  102000    272.57894   -14.356003    140947.72   -49142.296    3743.2154   -52885.511   0.36056401 
  102200    268.95778    -127.8727    141028.79   -49134.228    3693.4874   -52827.715   0.36174411 
  102400    275.11445    77.519255    140772.24   -49079.995    3778.0344   -52858.029   0.35731771 
  102600    273.49838    109.17014    140618.64   -49091.468    3755.8417   -52847.309   0.39192087 
  102800    271.49555   -5.4419454    140900.96   -49103.081    3728.3376   -52831.419   0.35583554 
  103000    274.60188   -147.10069    141205.88   -49096.928    3770.9955   -52867.924   0.34574074 
  103200    278.95483   -58.139186    140969.01   -49078.258    3830.7728   -52909.031   0.36344038 
  103400    274.86521     235.5962    140480.45   -49105.086    3774.6117   -52879.697   0.38385258 
  103600     274.4033    142.72884    140577.47   -49108.769    3768.2685   -52877.038   0.38322892 
  103800     272.3273   -187.13183    141215.23   -49111.511    3739.7597    -52851.27   0.34050143 
  104000    272.89132   -253.88569    141326.31   -49117.992    3747.5051   -52865.497   0.34311448 
  104200     272.0447    185.85739    140537.95   -49130.898    3735.8789   -52866.777   0.38609414 
  104400    270.19823    411.80978    140156.17   -49147.056     3710.522   -52857.578   0.39978176 
  104600    269.93593   -86.152469    140967.24   -49145.867      3706.92   -52852.787    0.3733401 
  104800    272.84247   -440.24725    141618.25   -49131.563    3746.8344   -52878.397   0.31034427 
  105000     268.2944   -35.738549     140949.6   -49159.376    3684.3775   -52843.754   0.36482618 
  105200    272.51606    418.10617    140103.33   -49158.807    3742.3519   -52901.159   0.42160813 
  105400    270.52963    210.15974    140508.97   -49155.183    3715.0731   -52870.257   0.37293369 
  105600    274.98964    -380.4155    141471.97   -49153.651    3776.3205   -52929.972   0.33855195 
  105800    268.84609   -278.09728    141392.12   -49166.339    3691.9536   -52858.293   0.32904795 
  106000    269.48166    204.82235     140475.2   -49149.523    3700.6816   -52850.204   0.39235216 
  106200    270.11877    358.90579    140257.94   -49128.478    3709.4308   -52837.909   0.41226983 
  106400    271.68683   -91.132947    141002.65    -49141.42    3730.9643   -52872.384   0.35159412 
  106600    272.13525   -339.79346     141438.9   -49141.731    3737.1223   -52878.853   0.34299786 
  106800    274.32897   -44.146851    140926.32   -49135.947    3767.2478   -52903.194   0.35461113 
  107000    273.61494    308.39625    140376.37   -49094.643    3757.4423   -52852.086   0.39681838 
  107200     278.8231    112.32983    140655.03   -49086.206    3828.9639    -52915.17   0.38667155 
  107400    273.73267    -202.6095    141215.48   -49090.533    3759.0591   -52849.592   0.34747518 
  107600    274.76642   -195.56868    141152.21   -49068.459    3773.2551   -52841.715   0.36412789 
  107800    270.07547    113.84686    140653.81   -49086.652    3708.8361   -52795.488   0.37532074 
  108000    277.60481    199.41071    140547.11   -49065.887    3812.2336    -52878.12   0.38986359 
  108200    271.84756   -63.035843    140988.43   -49097.386    3733.1717   -52830.558   0.36985431 
  108400    272.64758   -195.98492    141209.15   -49092.858    3744.1579   -52837.016    0.3459895 
  108600    270.52667   -10.049407    140900.88   -49065.973    3715.0323   -52781.006   0.38194445 
  108800    272.86457    137.07028     140621.4    -49086.82    3747.1378   -52833.958   0.37043012 
  109000    273.31328     79.68185     140754.8   -49122.883    3753.2998   -52876.183   0.37135373 
  109200    270.43393    -97.34649    141070.27   -49125.532    3713.7588   -52839.291   0.36490496 
  109400    277.43613   -143.52311    141059.71   -49112.555    3809.9172   -52922.472   0.34711547 
  109600    273.97528    75.443687    140756.35   -49076.222    3762.3907   -52838.612   0.39109871 
  109800    273.90512    112.17012    140657.94   -49124.034    3761.4272   -52885.461   0.37385463 
  110000    272.01701   -9.9221784    140887.55   -49067.359    3735.4985   -52802.858   0.37179743 
  110200    276.11467   -140.39774     141105.9   -49055.321      3791.77   -52847.091   0.35643073 
  110400    270.37007   -47.517282    140931.24   -49101.985    3712.8818   -52814.867   0.36159755 
  110600    273.38768    141.51679     140641.3   -49170.184    3754.3215   -52924.505   0.38841703 
  110800    267.09488     137.4931    140684.55   -49166.563     3667.905   -52834.468   0.36434486 
  111000    271.89667   -104.81299    140997.43   -49169.938     3733.846   -52903.784    0.3584849 
  111200     272.3826   -126.97829     141101.1   -49158.416    3740.5191   -52898.935   0.35298647 
  111400    269.68455    45.493014    140834.27   -49209.193    3703.4678   -52912.661   0.36174981 
  111600    269.15803    126.69134    140610.46       -49259    3696.2374   -52955.238   0.38144455 
  111800    264.56882  -0.94761971    140722.61   -49289.996    3633.2157   -52923.212   0.36146788 
  112000    264.18946    -115.4737    140951.11   -49281.728    3628.0061   -52909.734   0.36795585 
  112200    265.10019   -91.224842    140883.82   -49242.982    3640.5127   -52883.494   0.36140295 
  112400    269.03477    65.096581    140669.26   -49213.244    3694.5447   -52907.789    0.3762481 
  112600    269.81765     89.46737    140706.34   -49190.165    3705.2957   -52895.461   0.39005558 
  112800    267.22855   -127.21423    140971.35   -49205.547    3669.7406   -52875.288    0.3457602 
  113000    271.58019   -107.47309    141018.96   -49184.299       3729.5   -52913.799    0.3560024 
  113200    273.03432    66.614765    140692.91   -49216.368    3749.4689   -52965.837    0.3773913 
  113400    269.42357    187.99223     140480.7   -49197.797     3699.884   -52897.681    0.3808358 
  113600    272.30146    15.645892    140802.43   -49203.271    3739.4048   -52942.676   0.37281788 
  113800    269.83223   -242.63295    141234.16   -49185.836    3705.4959   -52891.332   0.34423568 
  114000    269.44212    -96.97465    141007.57   -49171.381    3700.1387   -52871.519    0.3575235 
  114200    269.72591    258.41521    140417.69   -49182.951    3704.0358   -52886.987   0.38296734 
  114400    271.55315    183.93164    140515.84   -49130.173    3729.1286   -52859.302   0.38859042 
  114600    270.31349   -212.46822    141261.48   -49105.495    3712.1048     -52817.6   0.35062286 
  114800    274.17211   -297.93627    141410.96   -49090.086    3765.0937    -52855.18   0.32712647 
  115000    270.83343    145.84108    140649.56   -49117.404     3719.245   -52836.649    0.3882727 
  115200    276.88986    340.03977    140240.32   -49131.869    3802.4155   -52934.284   0.39586854 
  115400    270.54608   -20.407004    140910.87   -49146.227    3715.2989   -52861.526   0.36135634 
  115600     268.6689   -348.97072    141540.84   -49127.073    3689.5203   -52816.593   0.33990842 
  115800    274.58898   -91.920965    141071.79   -49142.362    3770.8184    -52913.18   0.34428365 
  116000    272.47902    308.52525    140303.01   -49128.683    3741.8432   -52870.526   0.39833722 
  116200    273.57645    204.72918    140486.75   -49147.429    3756.9137   -52904.343   0.39284242 
  116400    269.61654   -238.15395    141265.82   -49185.896     3702.534    -52888.43   0.33270878 
  116600    266.32556   -265.34536    141343.26   -49196.007    3657.3403   -52853.347   0.34604646 
  116800    273.08743    144.57872    140625.85   -49155.722    3750.1982    -52905.92   0.37946895 
  117000     271.8972    298.30105    140348.28    -49163.03    3733.8533   -52896.884   0.38423777 
  117200    271.10414   -69.399583    140931.32   -49155.565    3722.9626   -52878.527   0.36356912 
  117400    268.75815   -305.48626    141338.63   -49177.767     3690.746   -52868.513   0.34743148 
  117600    271.24937   -11.994803    140901.97   -49159.498    3724.9569   -52884.455   0.36227258 
  117800     274.2201    233.09527    140457.23   -49123.008    3765.7527   -52888.761   0.38438115 
  118000    276.50386    54.978879    140713.51   -49116.815    3797.1147    -52913.93   0.38047999 
  118200     272.5824   -177.62461    141140.32   -49146.255    3743.2628   -52889.518   0.34864733 
  118400    269.69999   -123.02657    141005.38   -49192.215    3703.6799   -52895.895   0.35454913 
  118600    269.31103    164.29988    140576.89   -49218.344    3698.3385   -52916.682   0.39292583 
  118800     263.3822    133.99388    140559.65   -49264.902    3616.9202   -52881.822   0.37158671 
  119000    266.39514   -130.44357    140928.26   -49263.968    3658.2957   -52922.264   0.36592792 
  119200    268.69114   -142.27936    141042.23   -49264.581    3689.8258   -52954.406   0.37190195 
  119400    262.31921    5.2471289     140737.8   -49288.454    3602.3226   -52890.777   0.35627983 
  119600    266.33891    189.45284    140507.34   -49231.992    3657.5235   -52889.516   0.39740765 
  119800    269.03425      3.61887    140739.76   -49229.061    3694.5376   -52923.599   0.38288941 
  120000    272.68924   -126.71501    141047.84   -49244.682    3744.7301   -52989.412   0.35037346 
  120200    266.14916   -95.943644    140940.32   -49218.845    3654.9178   -52873.763   0.37377843 
  120400     271.9511    138.84583    140589.03   -49262.232    3734.5935   -52996.826   0.38059627 
  120600    271.18486    123.76915    140570.14   -49256.577    3724.0711   -52980.648   0.38045258 
  120800    267.82758   -63.164586    140905.59   -49248.239    3677.9669   -52926.206    0.3643821 
  121000    267.98741   -114.29462    141059.31   -49232.749    3680.1617   -52912.911   0.35232811 
  121200    267.02776   -27.934833    140835.88   -49232.221    3666.9833   -52899.204   0.37026041 
  121400    271.68932    141.85096     140615.6   -49232.466    3730.9985   -52963.464   0.36972333 
  121600    271.22472    51.225199    140749.67   -49224.151    3724.6184    -52948.77   0.38203549 
  121800    268.38889   -127.82123     141019.5   -49222.204     3685.675   -52907.879    0.3601893 
  122000     270.5602   -96.408679    140946.68   -49201.363    3715.4928   -52916.855   0.36805351 
  122200    269.53159    121.64525    140649.22   -49170.932    3701.3674     -52872.3   0.39416751 
  122400    276.18138    132.70466     140636.1   -49129.142    3792.6862   -52921.828   0.37028843 
  122600    273.12419   -22.591774    140970.87   -49055.264     3750.703   -52805.967   0.36762229 
  122800    271.80656   -193.08774     141163.3   -49054.573    3732.6085   -52787.181   0.36279736 
  123000    274.49005     1.194596    140872.28   -49097.914    3769.4598   -52867.374   0.35619066 
  123200    272.15773    164.41046    140523.27   -49119.121    3737.4311   -52856.552    0.3901463 
  123400    269.38589    76.566159    140707.75   -49197.684    3699.3664    -52897.05   0.37353615 
  123600    270.25796   -156.50894    141133.44   -49148.285    3711.3423   -52859.627   0.35484809 
  123800    267.61808   -148.02605    141095.48   -49168.262    3675.0899   -52843.352   0.34852264 
  124000    269.45026    160.44528    140635.67   -49152.008    3700.2505   -52852.258   0.38342883 
  124200    270.44811    195.06468    140544.62   -49138.029    3713.9536   -52851.982   0.39020619 
  124400     267.4076   -71.556269    141038.71   -49150.566    3672.1994   -52822.766   0.33581348 
  124600    268.83949   -253.23703     141336.8   -49166.438     3691.863   -52858.301   0.34662767 
  124800    269.26953    25.266701    140850.03   -49171.514    3697.7685   -52869.283   0.37284703 
  125000    272.45216    396.31027    140259.72    -49179.81    3741.4743   -52921.284    0.3820572 
  125200    269.60101    146.42207    140706.15   -49174.016    3702.3206   -52876.337   0.37623337 
  125400    266.89586   -416.91751    141647.36   -49235.008    3665.1719    -52900.18   0.31952793 
  125600    269.92272   -295.04474    141377.92   -49229.753    3706.7385   -52936.492   0.32802968 
  125800    270.12984    408.13373    140161.65   -49221.068    3709.5828   -52930.651   0.40775026 
  126000    266.04917    423.33501    140077.31   -49192.845    3653.5447    -52846.39   0.42951665 
  126200     272.6161   -201.03784    141299.58   -49178.183    3743.7256   -52921.909   0.33539735 
  126400    270.83171   -492.63246    141777.43   -49200.081    3719.2214   -52919.302   0.30140412 
  126600    271.24775    25.833481    140795.17    -49225.62    3724.9346   -52950.554   0.38158604 
  126800    271.87476     448.9084    140057.31   -49198.317    3733.5452   -52931.862   0.40725204 
  127000    265.83689    75.984468    140678.37   -49218.498    3650.6296   -52869.128   0.36644615 
  127200    266.67869   -330.12865    141471.76   -49248.245    3662.1897   -52910.435   0.34275885 
  127400    266.53612   -227.72419    141179.08   -49247.118    3660.2317   -52907.349   0.33725246 
  127600    271.62047    248.12441    140404.59    -49241.41    3730.0531   -52971.463    0.3799784 
  127800    267.49345    252.44097     140399.5   -49232.032    3673.3784    -52905.41   0.39995091 
  128000    268.23434   -108.95206    141072.36   -49228.507    3683.5528    -52912.06   0.34704568 
  128200    268.14736   -256.13996    141307.69   -49194.317    3682.3583   -52876.675   0.33628238 
  128400    274.85253    69.423657     140810.6   -49220.837    3774.4376   -52995.274   0.35890139 
  128600    269.19951    222.58076    140490.46   -49251.641     3696.807   -52948.448   0.39281797 
  128800    265.83376    18.591487    140837.49   -49287.238    3650.5865   -52937.824   0.35618793 
  129000    265.16561   -217.42067    141198.47   -49317.428     3641.411   -52958.839   0.34216159 
  129200     270.9997   -17.909952    140916.74   -49277.769    3721.5282   -52999.297   0.37079562 
  129400    266.82137    183.44083    140504.67   -49276.739     3664.149   -52940.888   0.35957964 
  129600    268.48883    108.68389    140640.48   -49278.105    3687.0475   -52965.152   0.38129234 
  129800    266.59417   -104.09717    141078.16   -49289.312     3661.029   -52950.341   0.35606892 
  130000    268.46992   -148.92705    141089.99   -49297.062    3686.7879    -52983.85   0.32945771 
  130200     266.8645    55.141932    140661.56   -49313.667    3664.7412   -52978.408   0.38749521 
  130400    258.82178    175.48126    140507.05   -49299.254    3554.2939   -52853.548   0.37860876 
  130600    267.79464   -25.855557    140863.39   -49259.784    3677.5145   -52937.298   0.35447521 
  130800    267.14919   -179.14941    141137.84   -49278.594    3668.6508   -52947.245   0.35799365 
  131000    262.76344   -20.628158    140885.65   -49296.953    3608.4231   -52905.376   0.35214101 
  131200    271.09046    155.02921    140550.04   -49272.478    3722.7747   -52995.252   0.37785395 
  131400    266.98288      100.548    140642.72   -49273.648    3666.3669   -52940.015   0.37431484 
  131600    264.73042   -125.68482    140970.91   -49266.622    3635.4348   -52902.056   0.36618102 
  131800    263.46625   -106.42973    141000.35   -49238.774    3618.0745   -52856.848   0.34959803 
  132000    273.35255    57.456806    140735.51   -49187.959    3753.8391   -52941.798   0.36150916 
  132200    267.64392    141.06905    140636.27   -49193.774    3675.4447   -52869.218    0.3942067 
  132400    269.37082    6.2874442     140864.9   -49197.501    3699.1595   -52896.661   0.34336427 
  132600    271.04558   -76.650595    141018.08   -49174.534    3722.1583   -52896.692   0.36648929 
  132800    269.14061   -6.5194731     140849.8   -49146.606    3695.9982   -52842.605   0.38069167 
  133000    272.64081    127.15244    140652.81   -49141.459     3744.065   -52885.524   0.35820884 
  133200    277.54416    27.686686    140783.82   -49092.444    3811.4007   -52903.844     0.385144 
  133400    275.47061   -92.287889    141059.22    -49079.79    3782.9255   -52862.716   0.35594232 
  133600    275.60324   -98.652745    141051.21   -49090.995    3784.7469   -52875.741   0.34738194 
  133800    272.88084    74.545035    140759.33   -49109.458    3747.3612   -52856.819   0.37056666 
  134000    276.91154    147.00018    140633.89   -49062.408    3802.7131   -52865.121   0.38008172 
  134200    273.06102    17.790337    140914.35   -49074.547    3749.8356   -52824.382   0.36419722 
  134400    274.09024   -102.20055    141141.36   -49073.327    3763.9694   -52837.297   0.35041649 
  134600    269.40635   -45.933209    140910.98    -49087.66    3699.6474   -52787.307   0.37584947 
  134800    274.10775     136.8017    140561.94   -49127.146    3764.2099   -52891.356   0.37807313 
  135000    272.66369    96.608597    140652.45   -49179.712    3744.3791   -52924.091    0.3708555 
  135200    270.82218   -129.43184    141051.25    -49187.44    3719.0905    -52906.53   0.36664839 
  135400    269.72305    -154.1773    141090.41   -49206.637    3703.9966   -52910.634   0.34489233 
  135600    269.08794    74.454058    140668.69   -49173.345    3695.2749    -52868.62   0.38024625 
  135800    269.76056    190.45127    140493.32       -49240    3704.5116   -52944.511   0.39065181 
  136000    266.01828   -65.820845    140889.01   -49270.901    3653.1205   -52924.022   0.35691868 
  136200    270.37271    -211.5362    141209.19   -49280.677    3712.9181   -52993.595   0.35272766 
  136400    267.27542    -19.05134    140845.88   -49236.842    3670.3842   -52907.226   0.37052495 
  136600    269.35067    266.22308     140339.3   -49184.271    3698.8828   -52883.154   0.38990135 
  136800    270.73223    137.89124     140631.3   -49194.962    3717.8553   -52912.817   0.37741318 
  137000    263.98608   -302.86356    141357.15    -49198.34    3625.2131   -52823.553   0.34856658 
  137200    271.30556   -260.30662    141275.91   -49227.977    3725.7286   -52953.706   0.35178714 
  137400       266.56    245.54545    140434.38   -49188.281    3660.5597   -52848.841   0.38361202 
  137600    274.71775    313.72803     140243.5    -49181.68    3772.5868   -52954.267   0.39146372 
  137800     275.9932   -125.73985    141092.78   -49159.318     3790.102    -52949.42   0.34975603 
  138000    267.15167   -390.40284    141601.89   -49152.919    3668.6848   -52821.604   0.31206058 
  138200    272.29213    3.3244623     140911.4   -49202.495    3739.2767   -52941.772   0.37096301 
  138400    273.02988    365.28149    140165.69   -49188.253    3749.4079    -52937.66   0.41308196 
  138600    272.12162    165.06641    140570.58   -49203.793    3736.9352   -52940.728   0.36402799 
  138800    271.88502   -277.33694    141393.99   -49155.532     3733.686   -52889.218   0.34193029 
  139000    271.45817   -229.08849    141285.32    -49143.72    3727.8243   -52871.544   0.35028976 
  139200    274.89418     212.6721    140551.05   -49145.661    3775.0096   -52920.671    0.3756822 
  139400    270.42859    219.43165    140407.93     -49171.5    3713.6854   -52885.185   0.41205816 
  139600    271.62294   -76.095633    140968.68   -49154.802     3730.087   -52884.889   0.35433168 
  139800    273.05702    -235.1858    141267.61   -49116.997    3749.7806   -52866.778   0.34636617 
  140000    272.53686    2.5635391    140891.75   -49084.766    3742.6375   -52827.403   0.37553401 
  140200    274.35196    197.05117    140507.22   -49124.434    3767.5636   -52891.998   0.39137383 
  140400    271.17389    69.066149    140688.22   -49148.368    3723.9204   -52872.288   0.37087137 
  140600    273.45884   -73.759423    141050.02   -49145.713    3755.2987   -52901.012   0.34309367 
  140800     271.7489   -47.368797    140986.35   -49138.512    3731.8167   -52870.329   0.36651416 
  141000    269.06416    102.50596    140670.86   -49173.107    3694.9483   -52868.055   0.37158886 
  141200    272.47645    150.03232     140618.5   -49129.448    3741.8079   -52871.256   0.38594291 
  141400    267.65602   -73.743448    140920.87   -49132.863    3675.6109   -52808.474   0.38318333 
  141600    274.15536   -119.31405    141043.32   -49117.373    3764.8637   -52882.236   0.34019776 
  141800    270.81401    9.3982383    140810.85   -49166.956    3718.9782   -52885.934   0.38101377 
  142000    270.95746    86.520836    140608.37   -49182.297    3720.9482   -52903.245   0.39075181 
  142200    272.32722    24.997292    140772.04   -49179.855    3739.7586   -52919.613   0.35849696 
  142400    270.16072   -130.35646    141047.41    -49182.92     3710.007   -52892.927   0.36635677 
  142600    271.79403   -71.599316    140984.81   -49174.359    3732.4365   -52906.795   0.35520572 
  142800    268.98431    71.432966    140702.26   -49178.103    3693.8518   -52871.955   0.37745699 
  143000    269.15662    79.717915    140665.13   -49236.431     3696.218   -52932.649   0.36814289 
  143200    268.05082     -45.2181    140926.87    -49206.59    3681.0325   -52887.622   0.36514904 
  143400    270.38159   -108.12321    141068.36   -49173.145      3713.04   -52886.185   0.35536716 
  143600     272.3938    10.970427    140871.78   -49163.927    3740.6729     -52904.6   0.35684885 
  143800    270.25325    105.32693    140653.73   -49175.225    3711.2776   -52886.502   0.39163235 
  144000    270.59758    81.663975    140772.02   -49164.789    3716.0062   -52880.795   0.36471435 
  144200    271.02228   -102.34146    141074.07   -49140.078    3721.8384   -52861.916   0.34627689 
  144400    270.10248   -136.49982    141088.26   -49142.445    3709.2071   -52851.652   0.36096524 
  144600    272.82782    75.294915    140761.61    -49117.75    3746.6331   -52864.383   0.35414228 
  144800    271.21473    130.49342    140651.81   -49090.506    3724.4812   -52814.987   0.38286574 
  145000      274.712   -9.5492549    140957.69   -49133.612    3772.5078    -52906.12   0.36142739 
  145200    273.94454   -169.60445    141181.91   -49161.165    3761.9686   -52923.133   0.34138827 
  145400     269.4616   -25.760734    140913.37   -49165.847    3700.4062   -52866.254   0.36584199 
  145600    270.45043    185.57212    140556.08   -49182.946    3713.9854   -52896.931   0.38312838 
  145800    270.32387    67.332304    140676.21   -49198.665    3712.2473   -52910.913   0.38116739 
  146000    269.12723   -112.57947    141084.16   -49186.109    3695.8144   -52881.924   0.33293533 
  146200    273.81321   -113.08596    141083.74   -49214.989    3760.1651   -52975.154   0.35148189 
  146400    270.08097    133.71025    140647.41   -49170.463    3708.9117   -52879.374   0.38787931 
  146600    267.73984    184.61555    140533.71   -49136.583     3676.762   -52813.345   0.37478558 
  146800    271.29721   -51.156714    141027.79   -49096.154    3725.6139   -52821.768   0.36482432 
  147000    271.84098   -246.16632    141326.21   -49107.894    3733.0813   -52840.976   0.34114028 
  147200     273.6197    15.239139    140863.07   -49077.963    3757.5077   -52835.471   0.36188399 
  147400    271.35539    302.96494    140365.34    -49137.97    3726.4129   -52864.383   0.40138745 
  147600    272.37144    75.909635    140764.39   -49152.832    3740.3658   -52893.198   0.38069984 
  147800    269.17451   -326.96797    141444.72   -49190.446    3696.4637    -52886.91   0.33090702 
  148000    270.95982   -216.26999     141198.9   -49156.512    3720.9807   -52877.493   0.33570779 
  148200    270.51866    281.88687    140351.47   -49195.556    3714.9224   -52910.478   0.40256223 
  148400    267.83684    315.89499    140311.95   -49242.536     3678.094    -52920.63    0.3954863 
  148600    268.02431   -196.41023    141175.03   -49214.288    3680.6684   -52894.956   0.34684053 
  148800    272.26588   -329.00057    141485.19   -49215.117    3738.9162   -52954.033   0.34478533 
  149000    272.19146    95.207004    140703.79    -49222.58    3737.8942   -52960.474   0.36648747 
  149200    270.03396    415.35122    140156.45   -49226.995    3708.2661   -52935.261   0.41179335 
  149400    268.98621    20.411349    140719.23   -49251.227    3693.8779   -52945.105    0.3922048 
  149600    268.73067   -306.48748    141400.46   -49249.256    3690.3686   -52939.624   0.32806565 
  149800    269.78776   -158.36762    141114.83   -49236.366    3704.8853   -52941.251   0.34326767 
  150000    271.78994    222.73003    140447.67    -49198.73    3732.3803    -52931.11    0.3969186 
  150200    272.93328    206.16717    140483.47   -49148.485    3748.0813   -52896.566   0.38456015 
  150400    270.37978   -114.97563     141039.8   -49121.772    3713.0151   -52834.787   0.36293586 
  150600    273.40978   -212.79208    141200.83   -49167.642     3754.625   -52922.267   0.36169558 
  150800    268.60951    12.457077    140805.35   -49132.296    3688.7048   -52821.001   0.36750178 
  151000     269.2891    147.76723    140543.02   -49169.871    3698.0373   -52867.908   0.38440369 
  151200    270.74425    57.701552    140773.14   -49158.497    3718.0202   -52876.517   0.38344039 
  151400    275.68485   -115.58147    141109.21   -49078.205    3785.8675   -52864.073   0.35097511 
  151600    276.22027   -79.548008    141041.75   -49064.688    3793.2202   -52857.908   0.35518094 
  151800    273.22754    74.255579    140700.61   -49074.259    3752.1223   -52826.381   0.39117227 
  152000    273.30129    127.05497     140632.8    -49075.99    3753.1351   -52829.125   0.37471983 
  152200    273.41187   -26.915066    140918.37   -49095.168    3754.6536   -52849.822    0.3664588 
  152400    271.78994   -113.74157    141093.41    -49139.99    3732.3804   -52872.371   0.37033585 
  152600    273.37101    7.8168781    140899.58   -49110.866    3754.0925   -52864.958   0.35749971 
  152800    277.14685    163.88983    140692.34   -49048.619    3805.9446   -52854.564   0.37203383 
  153000    273.25535    27.400425    140832.22   -49113.516    3752.5043    -52866.02   0.38049935 
  153200    273.11371   -98.481429    141055.65   -49058.249    3750.5591   -52808.808    0.3520941 
  153400    273.80978   -83.379253    140997.85    -49109.35     3760.118   -52869.468   0.35965527 
  153600    273.65332    68.943407       140739   -49133.944    3757.9693   -52891.914    0.3855986 
  153800    272.03285     84.13461    140727.03   -49161.667    3735.7161   -52897.383    0.3718945 
  154000    264.90553   -63.558739       140951   -49174.927    3637.8395   -52812.766   0.36067899 
  154200    275.19746   -56.955724    141012.82   -49124.959    3779.1744   -52904.133   0.36527946 
  154400    272.58073    15.118251    140852.16   -49119.548      3743.24   -52862.788   0.36701018 
  154600    276.30858    88.943287    140781.66   -49141.076    3794.4329   -52935.509   0.36422851 
  154800    266.66011   -16.228584    140909.28   -49154.471    3661.9345   -52816.405   0.37222822 
  155000    275.59622    -82.69179    140977.63   -49144.473    3784.6504   -52929.123   0.35987684 
[...]
  163200    267.93413   -29.284375    140809.23   -49205.926    3679.4301   -52885.356   0.35881212 
  163400    270.11155    130.38887    140584.51    -49238.31    3709.3317   -52947.642   0.37972601 
  163600    269.64648     15.38361    140720.96   -49191.218    3702.9451   -52894.163   0.38202996 
  163800    270.68053   -114.61295    141000.55   -49246.717    3717.1452   -52963.862   0.34316336 
  164000    267.79401    -80.05153    140965.19   -49262.725    3677.5059   -52940.231   0.35580381 
  164200     267.9126    123.64391     140649.6   -49259.502    3679.1344   -52938.636   0.37187821 
  164400    267.07255    140.74915    140583.74   -49205.759    3667.5984   -52873.357   0.37502129 
  164600    274.40662   -41.817333       140923   -49187.665    3768.3141   -52955.979   0.36327818 
  164800    267.32552   -188.64132    141170.54   -49221.813    3671.0723   -52892.885    0.3333916 
  165000    268.70153   -22.506454    140899.35   -49200.115    3689.9684   -52890.083   0.36121131 
  165200    271.71409    187.53157    140595.23   -49197.243    3731.3387   -52928.581    0.3760711 
  165400    269.24756     40.00547    140779.98   -49226.072    3697.4669   -52923.539   0.36686744 
  165600    264.04966     -163.082    141157.07   -49168.384    3626.0863    -52794.47   0.35268484 
  165800    267.54278   -157.84843    141097.35   -49190.454    3674.0558    -52864.51   0.34274845 
  166000    267.43345    100.25486    140692.46   -49152.752    3672.5544   -52825.306     0.374881 
  166200    269.16068    130.14878    140626.88   -49182.276    3696.2737   -52878.549   0.36580062 
  166400    270.10659   -58.809721    140984.97   -49178.961    3709.2635   -52888.224   0.35112075 
  166600    274.29732   -179.86515     141168.8   -49173.684    3766.8131   -52940.497   0.35632408 
  166800    268.79167    2.4643889    140849.46   -49229.509    3691.2064   -52920.716   0.35499588 
  167000    276.51236    213.35368    140541.86   -49231.075    3797.2314   -53028.306   0.38073245 
  167200    271.41676    55.074113    140745.74   -49182.781    3727.2556   -52910.036   0.36241231 
  167400    268.64682   -168.72447    141144.29   -49225.466    3689.2171   -52914.683   0.34363082 
  167600     269.0799    -116.7216    141064.53   -49206.976    3695.1644    -52902.14   0.35480755 
  167800    265.65601    93.214151    140614.57   -49270.517    3648.1456   -52918.662   0.36509686 
  168000    270.05873    184.43547    140520.02   -49260.412    3708.6064   -52969.019   0.38207374 
  168200    273.08856   -34.888991    140930.02   -49257.885    3750.2137   -53008.099   0.35566802 
  168400    266.25417   -226.73514     141159.7   -49215.834    3656.3598   -52872.194   0.34743765 
  168600     269.1986   -7.6093694    140835.24    -49226.49    3696.7946   -52923.285     0.371206 
  168800    273.02922    194.50512     140507.9   -49263.756    3749.3989   -53013.155   0.36937879 
  169000    271.22503    41.872538    140732.58   -49251.286    3724.6227   -52975.909   0.36965191 
  169200    269.57007   -193.95793    141151.26   -49222.153    3701.8958   -52924.049    0.3402828 
  169400    268.14331   -126.40717    141070.94    -49246.13    3682.3026   -52928.432     0.344694 
  169600    266.21214    174.99679    140619.49   -49255.337    3655.7826    -52911.12   0.38087136 
  169800    267.16112     190.3746    140542.26   -49262.084    3668.8146   -52930.899   0.36483706 
  170000    263.93295   -78.539288    140967.08   -49298.658    3624.4835   -52923.142   0.36325982 
  170200    265.52545   -207.36751    141168.38   -49305.894    3646.3526   -52952.247   0.33969119 
  170400     266.9264    14.217452    140793.54   -49278.505    3665.5913   -52944.096   0.36001429 
  170600    265.19769    200.57624    140430.48   -49260.121    3641.8516   -52901.973   0.40719574 
  170800     263.2837    36.111553    140668.03    -49283.41    3615.5675   -52898.978   0.36718767 
  171000    267.62109   -164.21864    141107.36   -49283.027    3675.1312   -52958.159   0.35023391 
  171200     264.7561   -171.30886    141037.53   -49308.182    3635.7875   -52943.969   0.35296435 
  171400    267.99024    159.41087    140502.19    -49302.52    3680.2006   -52982.721   0.36461245 
  171600    268.91997    198.87475     140359.7   -49269.571    3692.9682   -52962.539   0.40006723 
  171800    268.67194   -42.325714    140912.46   -49250.002    3689.5621   -52939.564   0.35068516 
  172000    264.51724   -311.55577    141306.45   -49252.162    3632.5072   -52884.669   0.34906723 
  172200    267.49829   -6.2669452     140815.1   -49257.723    3673.4449   -52931.167   0.35486393 
  172400    267.87931    396.02772    140231.25   -49227.854    3678.6773   -52906.532   0.39466118 
  172600    264.93046    97.159113    140686.06   -49216.835    3638.1819   -52855.016   0.39013169 
  172800    269.78769   -378.46031    141579.67   -49221.133    3704.8843   -52926.017   0.30646491 
  173000    265.61473    -248.2591    141311.66   -49238.083    3647.5787   -52885.662   0.34887981 
  173200    269.76206    393.30557    140156.62   -49273.341    3704.5323   -52977.873   0.40840238 
  173400    268.82135    438.56481    140053.72   -49261.857    3691.6139    -52953.47   0.39077805 
  173600    266.27976   -226.91016    141232.11   -49217.284    3656.7113   -52873.995   0.35197492 
  173800    269.15564   -508.06936    141699.78   -49213.605    3696.2046   -52909.809   0.33012068 
  174000    276.69783    72.503589    140719.04   -49181.574    3799.7783   -52981.353   0.37515678 
  174200    269.04087    434.28455    140024.26   -49173.718    3694.6285   -52868.346   0.41410955 
  174400     274.5268    106.49787    140695.75   -49161.917    3769.9645   -52931.882   0.38095899 
  174600    266.51638   -369.26935     141485.1   -49169.425    3659.9606   -52829.386   0.33777293 
  174800    271.62829    -136.5985     141183.4   -49136.222    3730.1604   -52866.382   0.34092753 
  175000    268.27688    223.03218    140520.73   -49181.259    3684.1369   -52865.396   0.40771167 
  175200    272.69792    152.41192    140588.61   -49180.742    3744.8492   -52925.592   0.36369226 
  175400     269.7801   -156.79758    141111.98   -49190.071      3704.78   -52894.851   0.33643489 
  175600    268.43072   -199.36999    141191.77   -49198.828    3686.2495   -52885.078   0.36546444 
  175800    270.08372    76.177639    140751.43   -49184.332    3708.9496   -52893.281   0.35802836 
  176000     272.2129    197.05457    140547.39   -49173.486    3738.1887   -52911.675   0.37965913 
  176200    274.99233     39.51609    140889.58   -49126.943    3776.3574     -52903.3    0.3656886 
  176400    266.91401   -209.83982    141221.06     -49162.6    3665.4212   -52828.021   0.33304113 
  176600    271.02892   -52.505436    140995.03   -49143.546    3721.9296   -52865.475   0.36234246 
  176800    272.82863    148.01749    140626.27   -49150.388    3746.6442   -52897.033   0.38001852 
  177000    270.62659    42.320889    140701.79   -49166.457    3716.4045   -52882.862   0.37274288 
  177200    274.47612   -151.80513     141037.6   -49179.341    3769.2685   -52948.609   0.34621537 
  177400    265.20787   -116.31249    141023.22   -49260.936    3641.9914   -52902.928   0.36626673 
  177600    268.41515    82.088712    140676.23   -49227.416    3686.0357   -52913.451   0.38104425 
  177800    271.17174    106.00898    140601.39   -49208.385    3723.8908   -52932.276   0.36492829 
  178000    268.37138    -33.77222    140922.84   -49169.418    3685.4346   -52854.853   0.38435743 
  178200    270.87787   -138.87884    141107.29   -49202.184    3719.8553   -52922.039   0.33747582 
  178400    271.61121   -13.772049    140814.88   -49178.973    3729.9259   -52908.899   0.35318215 
  178600     272.8577    167.11586    140522.44   -49194.286    3747.0435    -52941.33   0.41145026 
  178800    271.05447    38.045451    140763.18   -49166.292    3722.2804   -52888.572   0.36373581 
  179000    270.38513   -145.89412    141168.29   -49141.273    3713.0886   -52854.362   0.34357377 
  179200    271.02771   -89.105577    141077.46   -49163.586    3721.9129   -52885.499   0.36539944 
  179400    271.92899    115.04791    140694.44    -49139.85    3734.2898   -52874.139   0.36681306 
  179600     274.0812    162.92411    140668.92   -49147.418    3763.8452   -52911.263   0.36530401 
  179800    268.64392    -102.8008    141047.76    -49174.04    3689.1773   -52863.217   0.35376293 
  180000    271.30886   -158.09422    141166.86   -49143.259    3725.7738   -52869.033   0.35285721 
  180200    271.36803    46.782087    140870.32   -49107.614    3726.5865   -52834.201   0.35402213 
  180400    273.81765    135.50573    140680.12   -49066.829    3760.2261   -52827.055   0.37794308 
  180600     270.0859     6.159741    140934.38   -49150.476    3708.9795   -52859.455   0.36959455 
  180800     271.5733   -143.66895    141218.84   -49117.199    3729.4052   -52846.604   0.32687321 
  181000    272.09353   -49.962312    141038.41   -49155.614    3736.5494   -52892.163   0.36951307 
  181200    271.65847    113.78253    140651.26   -49141.037    3730.5749   -52871.612   0.38121678 
  181400    271.30255    132.35405    140656.46   -49177.149    3725.6872   -52902.836   0.36881099 
  181600    269.89113    -101.5888    141039.11   -49196.329    3706.3048   -52902.634    0.3685343 
  181800    270.43052   -119.20368    141122.21   -49168.317     3713.712   -52882.029   0.34405764 
  182000    266.96493    77.530745    140742.92   -49175.592    3666.1204   -52841.713   0.37839216 
  182200    268.95033    193.23622    140532.76    -49190.76    3693.3851   -52884.145   0.38377701 
  182400    271.05918    -6.483884    140880.22   -49192.903    3722.3452   -52915.248   0.35768063 
  182600    272.12834    -171.4011    141237.53   -49157.229    3737.0275   -52894.256   0.34970766 
  182800    272.17552   -70.219207    141010.25   -49124.734    3737.6753   -52862.409   0.34729366 
  183000    272.59149    194.17874    140525.05   -49125.325    3743.3877   -52868.712   0.39240696 
  183200    273.54718    137.42717    140665.98   -49109.916    3756.5119   -52866.428   0.38603573 
  183400    272.58363   -230.11882    141286.83   -49117.616    3743.2798   -52860.895   0.33275586 
  183600    272.28081   -240.43528    141330.21    -49142.72    3739.1213   -52881.841    0.3455303 
  183800    269.42751    214.21358    140597.51   -49172.512     3699.938    -52872.45   0.38361323 
  184000    266.69449    311.12974    140301.52   -49185.689    3662.4066   -52848.095   0.40643665 
  184200    268.81332   -42.373947    141037.62   -49227.885    3691.5037   -52919.389   0.35467201 
  184400    263.31861   -427.20512    141605.31   -49233.615     3616.047   -52849.662   0.32364015 
  184600    266.71514   -87.545411    140945.41   -49242.407    3662.6901   -52905.098    0.3624957 
  184800    266.17285    368.59284    140106.31    -49230.11    3655.2431   -52885.353     0.407362 
  185000    270.12254    193.66278    140483.13   -49223.364    3709.4826   -52932.846   0.39243406 
  185200    269.12728   -312.64873    141394.74   -49275.163    3695.8151   -52970.979    0.3286138 
  185400    269.67261   -266.70503    141302.61   -49253.272    3703.3039   -52956.576   0.33565409 
  185600    271.12957    175.48471    140465.04   -49256.686    3723.3117   -52979.997   0.39905662 
  185800    269.07821    277.95978    140313.21   -49206.277    3695.1413   -52901.419   0.39129901 
  186000    267.23161   -84.759347    141002.88   -49195.434    3669.7827   -52865.217    0.3683945 
  186200    271.52891    -278.5706    141371.49   -49186.282    3728.7957   -52915.077   0.33630868 
  186400    268.35272    3.1026071    140910.87   -49138.241    3685.1784    -52823.42   0.35154362 
  186600    271.62716    227.59724    140475.87   -49170.635    3730.1449    -52900.78   0.40296316 
  186800    272.25641    130.47924    140716.96   -49196.226    3738.7862   -52935.012   0.37861241 
  187000    270.08934   -202.06387    141172.44   -49169.213    3709.0267    -52878.24    0.3545798 
  187200    268.92223   -140.74618    141099.37   -49185.927    3692.9992   -52878.926   0.35823785 
  187400    269.54995    129.13665    140632.23    -49172.62    3701.6195    -52874.24   0.39000906 
  187600    267.91287    166.51224    140552.45   -49210.846    3679.1381   -52889.984   0.37901426 
  187800    270.21538   -68.393693    140959.77   -49201.117    3710.7575   -52911.874   0.36033775 
  188000    272.41155   -189.41241    141179.48   -49175.162    3740.9166   -52916.079   0.36532131 
  188200    269.87994   -14.248286    140889.95   -49166.729    3706.1511    -52872.88   0.35151494 
  188400    270.08867    184.85388    140618.75   -49155.989    3709.0175   -52865.006   0.37542256 
  188600    270.87158    10.175696    140834.71   -49162.086    3719.7689   -52881.855     0.389138 
  188800    270.32943   -114.17911    141115.54   -49174.144    3712.3237   -52886.468    0.3455043 
  189000    270.30836   -28.796443    140965.05   -49166.325    3712.0343   -52878.359   0.35989539 
  189200    272.82421    121.71096    140655.84    -49170.23    3746.5835   -52916.813   0.39104983 
  189400    271.04188    89.130686    140686.07   -49135.598    3722.1075   -52857.705   0.38074694 
  189600     269.0427   -82.002685     141026.7    -49148.41    3694.6536   -52843.064   0.36124986 
  189800    269.63333   -170.24262    141124.61   -49183.865    3702.7644   -52886.629   0.36038536 
  190000    274.59377    57.672084    140802.25   -49213.087    3770.8842   -52983.972   0.36388812 
  190200    268.50312    178.65578    140542.75   -49188.586    3687.2437    -52875.83   0.37849478 
  190400    271.07898    26.347445    140742.46   -49187.839     3722.617   -52910.456   0.37552193 
  190600     271.8653   -176.40798    141075.19   -49134.214    3733.4152   -52867.629   0.36978498 
  190800    268.31131   -82.078102    140991.81   -49162.667    3684.6097   -52847.277   0.35678953 
  191000     274.1063    114.16946    140628.85   -49175.567    3764.1899   -52939.757   0.39082953 
  191200     273.9522    134.26281    140574.67   -49170.608    3762.0738   -52932.682   0.38910257 
  191400    268.94343   -86.262122    140927.04   -49193.897    3693.2904   -52887.188   0.35353502 
  191600     272.0413   -158.60205    141102.43   -49150.402    3735.8321   -52886.234   0.35546565 
  191800    270.13919   -14.378882    140815.17   -49182.019    3709.7112    -52891.73   0.37273602 
  192000    268.39581    164.42082    140521.26   -49182.722    3685.7702   -52868.493   0.38594711 
  192200     272.3263    52.708004    140746.34   -49156.144     3739.746    -52895.89   0.37579336 
  192400    273.18707   -184.49463    141165.21   -49161.503    3751.5666   -52913.069   0.35617996 
  192600    265.81967   -123.99431     141006.1   -49187.899    3650.3931   -52838.292   0.36751621 
  192800    273.19022    206.58977    140505.77   -49166.688    3751.6099   -52918.298    0.3816021 
  193000    273.12651    139.61957    140541.34   -49158.246    3750.7349    -52908.98    0.3959068 
  193200    274.51904    -143.5065     141102.8   -49113.621     3769.858   -52883.479   0.36154877 
  193400    273.33729   -205.66987     141264.5   -49114.581    3753.6294    -52868.21   0.34661106 
  193600    270.17194    83.146071    140728.67   -49125.819    3710.1609    -52835.98   0.38239997 
  193800    271.34968    254.59476    140337.05   -49171.574    3726.3344   -52897.908   0.38809798 
  194000    270.62502    65.793969    140767.74   -49197.682     3716.383   -52914.065   0.37362342 
  194200    270.48701   -276.25052    141378.61    -49182.15    3714.4878   -52896.637   0.34046213 
  194400    272.23237   -116.85804    141110.91     -49163.5     3738.456   -52901.956   0.34610334 
  194600    272.52607    251.12117    140357.24   -49187.274    3742.4893   -52929.763   0.40016412 
  194800    272.40502    264.18561    140366.18   -49174.796    3740.8269   -52915.623   0.37977841 
  195000    274.16047   -203.65153    141197.23   -49159.343    3764.9339   -52924.276   0.35176457 
  195200     269.6327   -353.17259    141465.37   -49142.758    3702.7558   -52845.513   0.34752333 
  195400    272.50219    121.61584    140662.46   -49145.358    3742.1614   -52887.519   0.37367288 
  195600    271.27946    400.89474    140116.25   -49149.198    3725.3702   -52874.568   0.42396154 
  195800     267.4868   -3.8143059    140801.12   -49194.513     3673.287     -52867.8   0.36788319 
  196000    271.83351   -380.01626    141598.36   -49164.477    3732.9787   -52897.455   0.33805414 
  196200    270.31392   -178.46303    141176.86   -49152.868    3712.1107   -52864.978   0.35739099 
  196400    273.65486    347.59861    140277.38   -49152.597    3757.9906   -52910.588     0.393219 
  196600    270.05385     272.7722    140391.43   -49216.984    3708.5393   -52925.523   0.39864059 
  196800    273.83617   -222.73296    141233.15   -49209.156    3760.4803   -52969.636   0.34085365 
  197000    267.57105    -295.7351    141367.39   -49216.727     3674.444   -52891.171   0.33586371 
  197200    268.41434    98.464863    140662.08   -49269.379    3686.0246   -52955.404   0.38097974 
  197400    271.93538    292.23712    140334.47   -49230.279    3734.3776   -52964.657   0.39514468 
  197600    277.33661    44.257018    140828.73   -49152.275    3808.5505   -52960.826   0.36480449 
  197800    273.37339   -231.74867    141316.15   -49139.184    3754.1252   -52893.309   0.32984549 
  198000    270.73989   -92.666855    141061.53   -49166.683    3717.9605   -52884.644   0.36541653 
  198200    272.80095    141.53426    140579.56   -49190.636    3746.2641     -52936.9   0.37484867 
  198400    268.66118    155.70768    140631.31   -49123.512    3689.4143   -52812.926   0.37440887 
  198600    270.56812   -55.902511    141081.69   -49114.726    3715.6015   -52830.327   0.37947109 
  198800    276.44035   -184.44836    141188.12   -49145.543    3796.2425   -52941.785    0.3316134 
  199000    270.77866    74.763698    140797.76   -49151.626    3718.4929   -52870.119   0.37023685 
  199200     273.2681    118.89189    140594.36    -49146.29    3752.6792    -52898.97   0.39604473 
  199400    270.90936    38.608997    140836.82   -49157.062    3720.2877    -52877.35   0.35227687 
  199600    269.18626   -163.07062    141078.44   -49177.765    3696.6251    -52874.39   0.36042813 
  199800    272.64733    1.4811272    140912.24   -49157.707    3744.1545   -52901.861   0.36311953 
  200000    273.56965    108.01493    140663.98    -49175.84    3756.8203    -52932.66   0.37766654 
Loop time of 242.629 on 6 procs for 200000 steps with 4608 atoms

Performance: 356.100 ns/day, 0.067 hours/ns, 824.305 timesteps/s
99.0% CPU use with 6 MPI tasks x no OpenMP threads

MPI task timing breakdown:
Section |  min time  |  avg time  |  max time  |%varavg| %total
---------------------------------------------------------------
Pair    | 201.78     | 203        | 205.83     |   9.5 | 83.67
Neigh   | 12.619     | 12.948     | 13.455     |   9.7 |  5.34
Comm    | 13.184     | 16.531     | 18.04      |  39.5 |  6.81
Output  | 3.0308     | 3.0318     | 3.0358     |   0.1 |  1.25
Modify  | 5.6925     | 5.797      | 5.8872     |   3.1 |  2.39
Other   |            | 1.322      |            |       |  0.54

Nlocal:        768.000 ave         779 max         760 min
Histogram: 2 1 0 0 0 0 2 0 0 1
Nghost:        1701.83 ave        1715 max        1689 min
Histogram: 1 0 0 1 1 1 1 0 0 1
Neighs:        0.00000 ave           0 max           0 min
Histogram: 6 0 0 0 0 0 0 0 0 0
FullNghs:      24314.3 ave       24692 max       24088 min
Histogram: 3 0 0 0 0 1 1 0 0 1

Total # of neighbors = 145886
Ave neighs/atom = 31.659288
Neighbor list builds = 13100
Dangerous builds = 0
write_data		data.${NAME}
write_data		data.ice_271K_1atm_mW
System init for write_data ...
Total wall time: 0:06:01
