LAMMPS data file via write_data, version 29 Oct 2020, timestep = 200000

4608 atoms
1 atom types

-0.3054065759544713 53.705406575954314 xlo xhi
-0.04785701850497048 50.95497701850564 ylo yhi
-0.04785701850497048 50.95497701850564 zlo zhi

Masses

1 18.015

Atoms # atomic

1795 1 15.017366329556184 12.690709035361856 0.6982287427173889 0 1 1
3523 1 6.289468361824513 2.96033083688084 0.9717283634627096 1 1 0
4006 1 3.8696470243070618 13.940593885733943 9.400416558551404 0 0 0
4510 1 13.019954258619514 41.12623690443964 23.968755154393456 0 -2 0
193 1 11.183184538012265 4.558956302660746 0.0773212949904741 -1 2 0
2126 1 13.40927295783688 1.1840536422489671 1.5651568092778099 0 1 -1
3367 1 0.4208704838274394 28.779612364423745 11.821061897792653 1 0 0
4031 1 4.36811958710065 33.35150970111558 22.805017171023827 1 0 1
884 1 14.316542246062115 18.77705251235277 4.662121267279552 -1 1 1
616 1 10.689211810196275 6.091963050863129 2.0676415507166976 0 1 0
4083 1 10.760688493221766 8.272773322896727 0.19966197169929933 0 1 1
4469 1 13.927557096966034 3.942945278524586 3.109155800353954 2 1 0
4272 1 17.10266919432955 33.13018713360173 23.89870929108141 0 0 1
3450 1 0.8563493097944062 7.271311898620639 6.287522854683946 1 0 1
2509 1 3.6770570168167724 7.024581650073885 4.9896532453830424 1 0 1
1255 1 13.66237843877335 5.6739205703433955 25.31396431589634 0 0 0
1771 1 6.406196018598834 10.255704600525823 1.0184698163328163 1 1 0
3865 1 0.12828350200854405 13.421879017945667 1.987631032244538 1 -1 0
3445 1 12.319786488505562 9.808712257657358 2.2082913125893184 1 1 0
795 1 7.358594816841665 41.64123950541319 0.7186201349612511 0 -1 0
1487 1 10.551643911910455 45.94310170904491 20.52521759808116 -2 -1 2
2202 1 2.2596992251393506 11.802243671300769 2.4688613839990254 1 0 0
2960 1 4.276976805959157 14.520430070488844 0.9159373966229615 1 0 1
3639 1 5.818242790683079 11.616283361649401 3.4637620711238686 2 1 0
1477 1 6.2438963204966695 33.28591735429486 25.437972409109115 1 0 1
1694 1 0.20650863778884 8.268205652596823 12.81806770097032 1 0 0
4089 1 13.978915997052697 11.702737221770057 3.8928855513829137 0 1 1
988 1 1.9814284430480185 15.584349094043679 1.074378637696333 1 0 1
2437 1 2.5629471410542526 11.69033002334093 8.232338140663147 0 0 -1
1851 1 0.4154031761813066 2.01475117079634 16.237588669071624 0 1 -1
2883 1 3.766815329547483 26.319025577286393 25.26737471530004 0 1 0
4409 1 6.753943691228638 45.00600550915531 24.994237453860933 0 -1 1
366 1 12.091245975965357 17.75863256432289 3.155425831424343 0 -1 -1
125 1 3.0948580755303645 31.395002344757017 0.5828973132322214 -1 -1 0
1616 1 12.153058102894747 12.668733483829405 1.2593536478477714 0 -1 0
1063 1 0.8599670827137025 21.978778680651423 14.467609226830835 0 0 1
3012 1 15.535464929241494 20.69985081993015 0.8543683259501477 0 0 1
3359 1 1.9053653574520468 16.798729739744903 3.4721992864879256 2 0 0
107 1 10.211351534073092 48.20291373701287 23.451070327477474 0 -1 0
3372 1 1.9127885752898477 31.85931109000269 14.248716841209406 1 0 0
1492 1 9.495640476026624 21.685401444928814 0.277907459081756 0 -1 2
2296 1 0.6957006408532793 9.884334575455172 0.8432610479138448 1 0 0
855 1 2.310924851956101 9.943157880048298 25.095000117181712 0 1 0
2221 1 1.1644332094904355 48.37029485165576 21.841489876969842 0 -1 0
3565 1 0.47120567832821025 38.50053551123527 11.804667263669641 1 0 0
3568 1 11.943363587340153 39.809190294270046 0.008993727650384045 1 -1 0
206 1 -0.2907473268751559 40.455696466249584 3.1352834404427603 0 -1 -1
2995 1 0.6104637969623089 26.722222577182997 2.030357909542468 0 0 0
959 1 6.863032227915487 22.95187706040387 2.5710612481454205 -1 0 1
3145 1 1.901644949429047 1.0465082534081338 18.347630961470806 1 0 0
4204 1 14.492551117638271 14.842254568373441 3.066138745666159 1 0 0
3242 1 15.069762407976642 23.659124202682023 0.8890698558127039 1 0 0
682 1 -0.14155717619244695 46.804276720922644 2.533308233711967 0 -1 0
1144 1 -0.01664019127701194 4.118785567858665 6.86582162653865 1 0 2
1802 1 14.475039840871215 9.977780322179424 0.3147804054555047 0 1 0
2838 1 3.83334777975024 11.635225866128739 0.3104347482354706 0 2 0
3675 1 15.860647192971388 14.184086663546308 24.390694027352858 1 0 0
3808 1 2.8348524793588217 29.826637009413346 4.886883512873439 0 -1 0
2706 1 0.30844478228840644 34.88550933586321 14.733195839063027 0 0 0
1684 1 1.8617519476227433 2.4091013479717973 0.6921516484418143 1 0 1
660 1 -0.15145608225719223 32.273174697496586 3.55087979570956 1 0 1
4484 1 13.909984795987024 29.126144727472774 4.025248254127397 0 0 0
1186 1 15.439728075256593 30.010148467721617 1.9526412732111957 -1 0 0
1716 1 2.4340764701814006 32.31456457131557 3.2792840551988087 0 0 1
52 1 5.668872068749491 35.822668416230066 2.1071019120514722 0 1 -2
3512 1 9.125795807832738 33.352607660488495 0.20183803739300962 0 0 0
3211 1 10.768229016730611 31.41850797371463 4.087488146994931 0 1 1
2781 1 11.229436103943423 32.175749451061606 1.5210552081258193 0 0 1
3691 1 14.152455844963153 34.54652354767713 4.7526594236964685 0 0 0
1951 1 2.7428830854775703 41.967926275962064 3.1418323078280563 2 0 1
4359 1 8.603218622335664 38.04777560708608 3.612839292662319 2 1 1
1464 1 1.1199064949795055 40.94804920017232 19.21915506249945 0 -1 1
894 1 16.76574867444386 46.54276799594389 24.798198877077855 0 1 0
2692 1 15.060792300122875 35.08778123336751 2.127205629842384 0 -1 1
3213 1 -0.08001471490437703 19.696783627747543 8.499459764231577 1 0 -1
4475 1 0.004093678491728425 41.560344148041914 5.485169953308289 1 -1 0
2105 1 17.46287455059994 10.3026601015395 20.63564892075832 0 -1 -1
2329 1 6.7172958581783275 39.852790449251536 2.8345906277308024 1 0 0
2670 1 7.602162745905239 5.552091695203769 1.3581806203031834 -1 1 1
2983 1 12.006309277809104 41.147900429272106 2.846427187057276 0 0 3
1257 1 13.65694712043434 37.32959304748646 1.4127026780677736 0 0 1
428 1 11.985817420443857 40.654943924849356 7.218818648752424 0 -1 0
4573 1 16.688844483035503 25.841584203282455 1.5584986406716255 0 1 1
1511 1 -0.0765710674886447 3.0160718272070715 3.970420760526072 1 -1 1
2629 1 13.100503696852154 44.96042958432173 1.1248011198934942 0 -1 0
623 1 15.435809664209696 43.46087317462978 1.9987752421350464 0 -1 -1
3368 1 2.242886693542375 48.075708742658215 0.4337584366732621 1 1 1
3280 1 14.158287050852929 32.60959359558789 1.165881131609197 1 0 1
4515 1 6.104785801526597 42.67195878667304 4.058985921972598 0 0 1
372 1 16.108079670148914 29.686321432458605 22.964897538168103 0 0 0
3324 1 3.926297130521 39.41036170173031 2.6994926644713755 1 0 0
3425 1 15.855999210442683 10.725462867120035 5.291961152091373 0 0 -1
1086 1 1.1677356058641215 26.83246971139844 9.8925271056251 -1 2 1
3231 1 12.747261647723812 26.67123906965311 0.1466515581987258 1 1 1
1915 1 10.089499287010396 47.680219017995476 1.1728362753145396 1 0 0
2035 1 -0.2404093807142187 7.762059658980203 2.2726874355659397 0 0 1
3970 1 5.926103007208801 21.783591084550597 24.20085729708213 0 -1 0
2925 1 1.4194008234013469 50.2105218826795 3.8824416798570516 1 -1 1
655 1 9.151641668673523 0.571495165949814 5.029327422154989 0 1 -1
2532 1 10.792961255442584 2.0397064503631532 1.5436415516358541 1 0 0
611 1 13.16138735075267 2.158504906168229 5.36238921442384 0 -1 -1
3573 1 5.8388387689606125 5.990382592189167 5.964226074198557 1 1 1
3187 1 4.33397432389597 3.014811090587112 5.653316300768356 0 1 1
845 1 8.075637348729243 5.743257464697237 4.164221365218391 0 0 0
1505 1 12.380540217987825 6.064894686190456 4.069579677648987 0 0 1
14 1 15.03516455545556 5.906147513463075 5.9495819471709375 0 1 0
2784 1 1.3220970790613444 7.00390511424371 9.027281885578988 0 1 0
4362 1 8.584557629937763 10.92696700984415 4.14181578938732 1 -1 2
925 1 4.601796815260457 10.834044112612565 5.937882227126703 0 0 1
3870 1 7.264347379952099 7.452576239690367 7.755824852260866 1 0 1
4082 1 13.020337862930218 12.722620866970237 6.23987286915538 0 0 1
382 1 9.331411058382885 10.542029544807066 0.9730985027800809 0 0 2
762 1 12.896245343378636 8.44402094692879 4.41813681633538 1 1 0
2777 1 11.472985932263576 15.02172057088319 10.33600030481048 0 1 2
3393 1 2.1217560236625648 10.00549858644258 4.849978992257051 1 0 -1
3317 1 5.366456823241704 14.944307927750081 3.135272708517079 1 0 0
3460 1 13.984512036924315 15.650404961643636 5.712566851169691 1 0 -1
4369 1 9.220481753699552 14.02714497084025 0.95856251808401 2 0 1
1347 1 3.4642114865290403 20.015291351230328 0.7851183375513221 0 0 0
1745 1 0.3366263243695764 25.438183284754313 15.771655845197671 1 0 0
558 1 12.10240667216419 15.773817670499666 1.1776931397595207 1 1 1
2048 1 8.041724521757203 15.047304664985365 3.1494608454645263 0 0 0
694 1 11.09905341393547 19.052370394276345 7.249889150356903 -1 -1 0
488 1 3.161964798441164 8.508970108920424 0.08596411085352759 0 1 -1
4098 1 9.030296535932305 19.379424663270964 9.89907386620521 1 -1 0
663 1 7.821384106823098 19.820368021213675 1.5144107682840593 0 -1 -1
3821 1 9.169733558931725 17.523236676772083 2.7081739593317122 0 0 0
3815 1 12.294825473927164 21.081450749973413 6.096691279930577 1 1 -1
1878 1 2.0954848945738607 18.864470123557325 21.140240445113225 1 0 0
3938 1 0.2486161868623905 48.90540366406097 13.375401586421438 0 -1 1
2867 1 1.4278258382422993 22.156679089482044 3.8706813969573006 2 0 1
4200 1 5.157021771850279 20.50447162723084 8.572667977660535 1 0 1
4046 1 10.521249471941895 22.986526519163903 2.7457866669252735 1 -1 1
1780 1 -0.049107260766698524 19.20742994349476 5.661751586452094 1 0 0
1499 1 6.157132621882404 18.47603202509584 5.421517419420875 0 1 1
3774 1 10.26367374374352 50.251596877320715 0.45647539047248753 1 -1 0
2461 1 5.270422381012738 23.782750988890637 5.865344065639407 1 1 0
2281 1 13.491931696007649 22.47503617446337 3.395325073116679 0 1 1
2893 1 4.876780105384069 20.940529991524006 5.316327104472249 0 -1 0
2554 1 8.68019415150742 23.467759554731696 7.112201181444075 0 0 2
2607 1 8.780187719179791 25.323280817283447 2.6468025588219795 0 0 1
4371 1 12.398931861726549 25.114229418009753 2.495410533872644 0 0 0
1985 1 14.662167376141381 23.7362609807279 24.7335834702949 0 2 0
2672 1 1.4262871069426435 12.807368916477904 19.265129845262603 1 1 1
3134 1 0.5985191119993196 25.66936419567901 4.446112513934091 1 0 1
4493 1 5.0201999663274375 28.68202970598906 1.4014117603275675 1 1 2
2163 1 6.468410351067557 27.20002687817918 4.722853398035778 2 0 0
2709 1 5.533559018227198 25.12744135834246 3.3091632490883685 0 1 0
1311 1 9.285579194991753 27.61596223642799 4.4336580991942975 1 0 0
40 1 11.166164507270919 28.98199755961926 3.360127940025938 1 0 1
2260 1 7.099428952809767 40.947069852320936 22.31179127001837 0 -1 -1
2465 1 0.35828870103157107 30.042589911788607 7.731612118847495 1 0 0
2356 1 0.2762786978950096 28.616166020034342 5.192101891247447 -1 0 1
1627 1 4.278255158926798 35.33171067044831 4.7513989709045035 0 0 -1
1752 1 6.509895938367139 33.122669432557416 0.8549796292902235 1 1 1
893 1 11.22529548575395 29.371666691737676 0.5310469606265302 -1 0 2
3952 1 13.004437539417884 31.787033414630905 5.474698436473314 1 0 1
1779 1 14.862386689546517 31.79101789191722 7.582033613511797 1 0 0
3785 1 -0.1525014686572336 37.56128993448243 2.7034768472956903 1 1 0
774 1 6.831145191411533 34.14639309610982 5.130645981286444 0 -2 0
768 1 3.55512970800592 37.947956760130204 5.130368099236924 0 1 -1
1318 1 8.484909341529587 31.75562061355301 5.271849042367518 -1 -1 0
947 1 17.384398088589275 7.161659898520041 14.36528971566948 1 1 2
1882 1 8.954479660071817 36.0766066006851 1.4379739785045742 1 -1 -1
1765 1 7.546956899024715 38.398386951876795 8.11538901930153 0 0 -1
1537 1 12.355587102364456 38.28533885453907 3.6299271857040516 1 0 0
4575 1 8.019369534400534 36.46619931600738 6.030690430729339 1 1 1
3165 1 14.996562737044744 27.46947344705036 23.448659753966858 1 -1 -1
1292 1 3.1854577739767973 41.55384172574471 6.204890091341191 1 0 0
1365 1 0.72602228831618 37.86567718114217 5.448333156429477 0 -1 1
2689 1 7.603421488732119 41.353109880091075 7.709575166396003 1 1 0
2624 1 4.839972495284851 39.54592155382682 6.814360878908279 1 -1 1
2569 1 11.38377606376156 35.66637996755443 3.725022176679476 0 1 1
3946 1 14.768435891029895 41.06147388449065 3.2015119879390137 0 0 2
4175 1 4.609314144375525 43.95816605034426 6.052857986841016 1 -1 1
1362 1 6.057497271683298 43.36831098624902 8.26111221496986 0 0 1
512 1 5.813964799946194 45.53242699467361 2.8807891801355705 0 -1 0
3609 1 10.132925303669996 40.31737158757743 4.855787339946726 2 0 0
2895 1 9.552000841872752 44.84050003001915 3.7161404427198432 1 0 1
2036 1 13.960389407526351 47.126069792857734 2.8001998543148616 0 -1 0
2206 1 2.216977897014652 34.6959278374041 24.409348532686984 1 0 0
4047 1 2.1318459060191026 13.140634364879016 22.332640003862565 1 1 1
657 1 2.392001997463598 46.12824475661364 5.008187616460554 0 -1 0
2433 1 -0.07875090739761464 45.529095690237 5.328387585098557 0 -3 1
330 1 5.537091268498151 0.7055520064809894 3.1004197105373072 1 0 -1
733 1 7.633817582420829 46.53622353706526 7.2195339256671796 0 -2 0
1782 1 7.997540718560087 44.2238320552162 0.9695773691942577 2 0 0
353 1 12.636049612310092 50.776267884496804 7.459046484935676 -1 0 1
2160 1 0.42832195357932057 16.90372879779184 22.556577466331763 1 -1 0
1430 1 0.6725768797751409 19.940580766886182 12.693080622967411 0 0 1
1461 1 8.074794543872272 46.865340252637864 4.448059014735543 0 0 1
3293 1 2.8692499178278883 48.20182083152046 2.9496589380765648 3 -1 0
3022 1 17.614419803616684 33.70101458249775 21.135378396596245 0 0 0
3205 1 5.591696142248501 48.9575459299754 2.324449620034385 1 1 -1
2726 1 0.9373509778194367 2.4388080014326095 9.752672249780193 0 1 1
4229 1 1.684631394645899 1.3594894887460507 7.205818816725924 1 0 0
157 1 7.132109121516556 1.623344625977237 8.326987474463815 0 -1 1
3246 1 5.775295114895926 0.6388049479744766 5.9698728497278815 0 0 -1
4550 1 10.594965017705677 2.950673142100219 10.707226802553038 1 0 1
2210 1 12.847990990742614 4.2252137675061325 7.456414236985413 -1 1 1
599 1 8.451724531959231 46.32538143703811 22.40813645522961 0 -2 0
954 1 4.105476312932163 45.66712075548122 23.97392151532497 0 0 1
658 1 2.820623153596815 1.7738244229883633 3.5179764691999487 0 -1 1
4165 1 2.8316815741898784 4.549838483196174 7.830365351690801 0 1 0
4574 1 4.78409435245882 4.573264691142188 9.787305345247438 2 1 0
4606 1 10.034791035025448 4.815421364210981 5.495923628031773 2 0 2
3602 1 11.757659303911385 6.671878362038676 8.519011532698844 0 2 0
3705 1 10.268246182242072 12.323845147595673 5.851157612375929 1 1 0
2370 1 14.983995246979616 0.8733746030852989 3.832462135211496 0 1 1
3355 1 3.346479605049382 8.599088254544332 10.21772294078777 0 0 1
3433 1 6.985629700979287 11.696851443602537 9.134779827881912 0 -1 0
4086 1 5.405316896327785 9.638165709084927 8.407870296987424 1 0 0
4379 1 15.93830844013468 5.889670847965148 9.135608819101977 1 1 1
4103 1 14.840701370603274 8.728707711569296 9.47926652174309 2 1 1
4216 1 0.06450116537498696 9.690809069048244 7.611767535755387 1 0 0
4199 1 4.84826623962438 15.921958795765674 6.234730096933547 1 -1 0
2716 1 9.236175020957274 14.775162472192175 5.6070119078676 0 1 2
2040 1 5.671983171054827 13.512617356089006 7.342464237619728 0 0 1
1195 1 12.402535101396001 17.305514642709365 8.927505980554283 0 1 0
961 1 9.74617887929278 11.230750970047536 8.128590537294567 1 0 0
2408 1 4.6933631977588695 17.433872095823293 3.0817143192806826 0 0 0
2804 1 1.3067825579263967 12.809993075352018 5.866681932801369 1 0 1
773 1 8.903449005242942 22.231025890967302 4.6049407093387575 1 1 1
3387 1 7.339854304435819 17.27429928793268 10.026671503951636 0 0 -1
466 1 9.150256789793474 14.340507807774447 10.609272151729256 0 -1 -1
3581 1 12.811545479913375 21.407557437467627 12.146690617909387 1 0 -1
279 1 0.46198286535855315 36.59933710402261 17.03142655800967 2 -1 -1
3831 1 13.709499533514876 12.170115955405377 9.077001870285168 1 1 0
1020 1 0.8700740858650933 19.550070780630858 3.088386148454251 0 1 1
711 1 2.6597126873812877 18.584869331917467 10.185443933918503 1 0 0
3147 1 10.857415095993991 23.30859395529425 11.203774140463441 1 1 0
1674 1 12.958103354963109 20.467214600564482 1.5090661738859685 0 -1 0
2531 1 14.66737950481867 20.41064128741738 9.387231446193635 1 -1 1
2989 1 9.60342930834334 30.814682371742304 25.184382900686433 0 1 0
648 1 5.4112568308887266 20.50621386345086 2.4801580342031673 0 0 -1
4300 1 8.072156689755214 23.30669637397626 10.49047119265929 1 1 0
1038 1 12.958025559950926 23.97230974821091 7.144486008670978 1 1 0
4013 1 1.9998571034232633 15.13042346816007 17.711776275465553 1 0 1
4585 1 11.206977661484341 44.669275768027305 24.071909623847993 0 0 0
2179 1 1.9782370077056388 23.253320369575057 7.905762028107544 -1 -1 0
158 1 7.6507037371291915 20.877971213228758 7.758670564173148 1 0 1
2164 1 10.9336382739543 22.550060236927123 8.772777705726742 0 1 -1
2345 1 10.41501383579817 26.069368528229095 7.2515442191747175 0 0 0
1241 1 15.888991041605614 26.172114527293648 4.309462942194492 0 0 1
2621 1 0.7536362387494573 4.992910012088645 1.2911857699860354 1 0 1
2627 1 5.662223491798845 29.757573720540638 4.582924928226379 1 0 2
3586 1 2.76887554947701 25.12052649101117 6.1725590019965555 2 -1 0
2489 1 7.154098862892858 26.050800802023755 7.003115452223992 0 0 0
2721 1 13.17750598738395 27.857969063375158 7.04337809660876 0 0 0
2092 1 0.44797685478724913 32.33042342013305 16.512693313809066 1 0 0
3085 1 2.7134432255300225 39.8585564063332 23.992063192222275 1 0 0
3816 1 4.199869743915373 32.91085810705776 9.66996789363818 1 0 0
1600 1 2.150135754358916 32.215157569431526 8.028377434377802 0 -1 1
496 1 3.6210907644859107 32.719722677756046 5.702352493870019 0 -1 -1
968 1 9.164362819817978 29.174106899883977 6.499267430016452 0 1 0
555 1 11.470325530236874 29.98697916611437 7.8830464457288825 0 0 1
485 1 13.721781930419 26.067574808725627 9.026187197766886 0 0 0
548 1 1.565031570589426 34.50505015458276 9.829676297351986 0 -1 1
3813 1 6.132824387019603 36.134526933435495 9.893673499122716 0 0 1
1266 1 7.245894084027033 30.77861825854491 2.308810669286941 0 -1 0
186 1 10.567771599980496 32.79360835989018 7.564619573350744 0 0 1
4602 1 16.746635670560387 32.99340562058352 5.53209796676715 1 0 1
4259 1 16.049369005419624 34.317124680536764 8.595495725782573 1 0 -1
1221 1 -0.05963794885167259 36.11596879938762 7.834323500192739 1 0 0
58 1 4.45003508843021 3.2627054840750023 24.126723490480092 0 1 0
3934 1 9.865080134773404 41.492506751880065 9.692224709015075 3 0 0
662 1 4.014287797545291 38.74032930174745 9.356504516176367 0 0 -1
4490 1 8.89536077490648 38.94836696235399 10.465259775620286 1 0 -1
1110 1 10.41432238772422 35.58189079124515 6.441366939652094 -1 1 1
3688 1 14.39004862388059 37.349236679409394 5.394243562246609 0 0 1
1624 1 14.314437550383579 39.84012943919456 6.544092932929251 1 0 -1
3770 1 1.9356759430060468 41.39270180009113 8.571774665235282 1 0 -1
1214 1 3.482856685875095 41.007187591355155 11.101681573224496 0 0 1
882 1 5.300416502548201 42.93478319957526 10.88067359912389 0 -1 0
3947 1 8.309123973620993 42.492755798699534 5.278982160341934 0 1 1
3538 1 4.361366853806702 45.4452819563821 11.336229749628574 0 -2 -1
4506 1 9.489649350406642 44.449867695502554 7.387422914144657 1 -1 1
2129 1 11.91689767302963 45.60325251070343 6.931022155695837 1 0 0
1679 1 11.304981268094322 47.17962769356422 4.0251623494136 0 0 -1
983 1 8.953874023723094 40.31787218771746 25.39668492435624 -1 2 0
1656 1 1.7231759237983177 46.95714435465772 9.18455426297367 0 -1 1
3208 1 1.8245332986112377 43.954263826167654 10.569299674803661 0 -1 0
2520 1 3.6856941958498814 47.31041267490788 7.331486694884773 1 0 1
2155 1 8.524487975533175 49.45381646907267 3.1761700181986634 1 0 0
379 1 11.40551264721799 47.47796865198679 9.846079036931487 -1 0 0
1200 1 12.555928028778245 43.79527059947829 10.607964692422557 -1 0 0
3902 1 15.426320242452773 49.44555862674456 9.466668596695456 0 0 1
2505 1 17.32155265876795 45.370344352532214 2.491722497556795 -1 -1 0
219 1 3.322313363744632 50.05651795901578 6.431410555801521 1 1 0
1923 1 5.790964620656049 46.58677369300807 9.089982862905757 0 0 1
2319 1 10.727208442529014 49.39644607600148 5.784754286910443 -1 -1 1
919 1 10.123651590471503 1.1095166295316703 8.189998673787954 -1 0 0
1567 1 10.886241300917645 2.317586810827652 4.219034157761864 -1 1 0
4504 1 17.04105091117833 7.195909014502176 18.956050196012573 1 0 1
2679 1 3.710896644007695 2.5195777370704477 11.260447332861714 1 0 0
359 1 5.691808020613574 2.8839490794312224 13.554160847468022 0 0 1
2811 1 8.027483332497152 4.157277911092535 12.320401588301257 1 0 1
1609 1 12.255776481332186 50.09508828556141 10.464074702091912 1 -1 1
1393 1 2.0893208372402325 1.9566890608381406 23.340559795140397 0 1 0
3981 1 5.77730310040506 6.9740934255767355 10.314643466138751 1 1 0
243 1 9.054009923570591 5.273468717533995 7.794091458298019 -1 0 0
398 1 9.530648010680641 11.004086907706474 11.834142300337023 0 0 0
3790 1 7.564591257563518 3.8589746549717368 9.431265372069522 0 0 0
544 1 9.195009453429929 8.339679349436377 9.77634406289213 0 0 -1
2330 1 14.756789110313788 3.681799201728342 9.598339946334765 0 1 1
3411 1 6.099870016111624 10.752051692265884 11.63562975432851 0 -1 1
506 1 8.92087471852494 8.421844800473652 5.526389587225764 -1 1 0
2878 1 15.488531558658357 17.731698250449874 23.83883924702598 -1 0 1
3958 1 0.7906967133090912 16.061640063946754 12.42259124124255 1 1 0
3322 1 8.031340274607212 15.153388099153734 8.197245898829468 1 0 0
2974 1 2.192317838264202 15.609096003670123 6.228560896446602 1 0 1
1493 1 11.557778818461241 16.744927095001614 5.7415256488102395 -1 1 1
3479 1 8.37816015468599 13.00732633224214 15.377282505038263 0 1 -1
1577 1 11.97634883970939 11.734078762325396 12.583741788164598 1 1 0
2407 1 15.921741643510636 11.095265335941884 7.85303611482495 0 0 0
1702 1 12.274511486163972 29.92608275992882 24.75856466909551 0 0 0
3893 1 2.0648323083165265 15.790780751511377 9.991148937923706 1 -2 0
3789 1 7.138729398224686 17.093591574513173 13.09580126658359 0 0 0
2010 1 13.844613555311529 14.089417083681688 12.099674368512437 0 1 -1
1895 1 14.94087022704264 17.130477185524708 11.98635012572626 0 1 0
2075 1 3.10076197587009 18.338924837784795 13.400863562448842 1 0 1
2620 1 17.684331494648383 15.574688988703631 16.14926947781468 1 0 0
2043 1 8.762874168261838 19.472954043499044 4.754657221333608 0 -1 0
2379 1 7.991328510472169 20.859514557631027 12.095827952678963 0 1 1
1261 1 9.643258193576042 23.61485041101407 14.271910844642763 0 0 1
1971 1 14.782296913367967 23.68829908660201 11.05035902503861 1 0 0
3018 1 11.603105785389443 18.995501388228448 11.374065440562742 1 0 1
319 1 17.08363999558116 9.153939161464892 16.43764561798938 -1 -1 1
1828 1 14.78378854423111 35.7959419533262 23.62343669073404 1 0 0
4242 1 0.5281752729813746 39.8941375737452 21.53786403899043 1 0 -1
210 1 8.840580803361254 19.092742291709804 14.092325293006255 -1 -1 -1
3055 1 8.380623541054236 22.46885803795814 16.389090097165756 0 0 0
3579 1 5.304800669040621 20.73605794624176 11.747171822329378 2 0 0
2401 1 10.105294093560056 27.11188658005536 9.951135569670415 1 0 1
3819 1 17.263649950384806 35.82197099218565 1.1205874635118578 1 1 0
3520 1 5.00827576644627 17.532645869089052 8.733567561743568 1 1 0
2483 1 5.1469663873745235 23.507883502246656 8.736469598850691 1 0 1
502 1 7.729721121308701 26.20833674905493 10.917223434978766 1 1 0
690 1 2.350903067631029 27.378515060789294 7.568095662871411 0 0 -1
542 1 4.695077379547431 29.055630253127365 9.120291049450616 -1 -1 -1
1548 1 5.543183354211741 26.080168891654292 9.13484208203024 0 0 0
3844 1 6.266494886393259 30.824480228778118 7.550874058058176 1 0 0
929 1 7.8322803499874425 25.217376864734092 13.445743101850377 1 1 0
3126 1 13.297856967012143 25.670708775305506 5.035562133093129 -1 0 0
299 1 16.65297690329383 28.495550135538632 14.265894775042984 0 0 -1
1794 1 4.43478635714842 30.847264342843893 11.655127274023327 1 -1 0
3453 1 8.703781444822367 32.72142122641131 9.496530574676543 -1 0 0
2506 1 13.277975591198873 32.07721669157946 10.11582215926839 1 0 -1
3496 1 -0.24339596252725965 21.653704772874462 21.24759514982834 1 0 1
2238 1 1.6531492510221881 11.493048255292397 11.02296790699207 0 0 -1
68 1 3.8879571408434206 36.10429347578741 12.104192264842869 -1 1 0
1087 1 6.181507970378919 33.93517447588476 8.003682070905834 0 -1 0
815 1 11.94158927571243 34.34479188122174 10.370032192119796 0 1 0
4101 1 17.17692192476942 25.913365642511877 16.098495344813536 0 1 2
101 1 3.4949119470993377 44.536577267080006 2.412221359717554 0 1 1
3868 1 1.7506300747831927 37.33522722634709 9.60646849878222 0 0 1
2591 1 12.54422273139094 36.91365351190439 7.700223729142194 0 -2 0
4018 1 15.172812097027126 36.760206155727545 12.362588379374676 1 0 0
1462 1 14.35366046933908 36.04390684540388 9.67711404883235 1 -1 0
3818 1 1.2144186267341577 50.65356379184091 0.47714175219288746 1 -1 -1
1993 1 2.2639186471570145 37.4016244339315 1.4263179123938616 0 -1 0
2605 1 6.933235354097489 46.86918316644986 16.757929510516192 -1 -1 1
196 1 5.817017074677891 46.00161187619983 13.813060240379096 0 -1 -1
3887 1 10.498819344895972 37.07516134660654 15.05735478546398 0 -1 -1
4376 1 7.1719170241517025 39.81220288725313 12.661594458532296 0 0 1
1065 1 11.902503574794547 38.90774902596115 9.35123780407224 -1 0 0
118 1 12.798820918185596 43.281274453032765 7.8836232506015875 0 0 0
1724 1 6.332333898284455 1.4211821017599051 24.951370144784832 0 0 -1
4373 1 2.00799446602758 45.035162526309186 13.97840241542928 1 0 0
3584 1 9.682056777899552 44.17869446565408 10.550321332033285 1 -1 0
802 1 13.982492455071128 42.08100144255433 12.195876687045581 0 -1 -1
899 1 7.412619951326261 42.62832204269113 12.133250900139373 0 -1 0
4168 1 16.342197827357836 44.80701543502244 10.476499204581236 2 -1 0
3188 1 0.26202177125197157 44.61243093589762 15.930312695078067 1 0 0
4171 1 4.695387318595722 50.130887134055754 11.897220509321151 0 0 1
2176 1 2.708451683183525 47.91451631263925 11.684100332673182 0 0 -1
2234 1 6.4277699705763744 48.54450168736038 10.723421906670957 1 -1 0
781 1 9.470428642982347 48.17587823018635 7.857763816263609 -1 -1 0
730 1 13.795780621457524 47.65909519873859 8.187369213513197 0 0 1
687 1 10.347369299512467 50.14520139498676 12.58763616611007 1 0 1
4450 1 0.24399075751686972 24.699673105199803 12.489092776182018 1 2 -1
3720 1 14.06782680737631 45.84140706591223 11.256499557015765 1 0 1
900 1 4.7249140724464 0.747162405343612 9.685314876217275 0 0 0
2574 1 9.915443654632648 1.6839734476148167 13.222116624566414 1 0 2
1153 1 8.903733602845678 50.07877006561609 9.833181970655854 0 -1 1
4210 1 14.286299392159696 50.57222495213625 12.791294731111135 1 -2 0
2821 1 16.79452909657779 49.309525896527695 12.148954053845229 0 -1 0
2293 1 14.869376632443615 1.1879742384988288 8.241777208443041 0 1 0
2714 1 1.3721061258181304 4.897271522959316 14.051033921203345 1 0 1
3788 1 3.7886888286666984 5.843410860915936 13.10214093313259 0 1 0
331 1 4.716942830419527 6.697491570768638 15.458455713526881 -1 1 1
2901 1 12.007134025556851 5.411789924288227 10.9891012125461 0 1 0
2096 1 13.552032802310146 2.2141733548927136 13.848095620210376 0 0 0
2067 1 13.453896488376078 15.560118353526695 24.31350048678041 1 0 0
3879 1 2.567189867999288 5.997565682981428 17.60079849503428 1 0 1
4356 1 11.28534311110236 7.705285401343194 15.066930508536695 1 1 1
1740 1 11.453679120681022 8.723079873682423 6.863302907517207 0 1 1
3944 1 3.0349005587794187 8.240559294197698 12.66790710898294 1 0 1
303 1 5.5428295820046865 9.510287740833405 15.195928068714974 -1 -1 0
3811 1 3.4571696565163377 10.356066220090911 13.736514846918459 0 1 -1
1236 1 7.857241486387355 10.498007805931094 14.254512109480183 1 1 0
288 1 9.673711030052395 9.187438853386414 16.425961054325885 0 0 0
1521 1 7.835912400892406 8.079566542058142 12.358735655609157 0 0 1
1611 1 12.293936692270242 9.59754034659663 9.89534283004035 1 0 -2
723 1 13.766097132788122 43.930631522607904 24.957943067625273 -1 0 0
18 1 0.6992771895916199 35.48522555911173 21.52502612559978 1 0 0
2994 1 0.37180002429109327 26.666929472322032 23.513625190120663 0 0 -1
793 1 4.015201577414054 12.804367715221796 12.140859507919245 -1 1 1
4326 1 10.86189742095894 12.915040438970928 15.537775682108832 0 0 0
3384 1 10.9632474848835 7.462564238149287 12.253252288533952 1 -2 0
2986 1 13.131426593769175 9.569100205499288 13.610348836173799 0 0 1
43 1 14.465138027699881 7.751795169538468 18.333760880497948 -1 1 0
1661 1 3.472165205773694 15.185036576275296 13.556369946237314 0 1 -1
2548 1 15.508938895491747 1.1577501045619158 24.978348249598632 1 -1 0
3689 1 6.17952331460778 16.403754353028045 17.699926530726174 1 0 0
1791 1 8.711499249937456 15.035376050569386 13.083951167978062 0 2 0
2634 1 12.61953188495936 14.782995276343598 14.417374745005276 1 0 0
109 1 16.43761316359586 18.098001533094354 15.137452385404986 1 0 -1
2944 1 0.9184386693081219 41.860199219841 0.826482324547317 0 -1 1
3177 1 15.327684727893086 50.42053571022414 16.801773481737957 1 0 0
3305 1 8.763864396845369 17.98032342686781 18.14476095945422 2 0 0
1211 1 7.587163936679807 19.789050402955926 16.220507594555208 -1 0 0
3486 1 12.445513046900112 19.741199164540312 17.178388249540326 1 0 -1
3930 1 10.812888868520679 16.41710695927114 13.130430003157676 0 1 0
2650 1 11.991908012570018 25.70616477046088 11.478090419508586 0 0 1
1952 1 13.631302003591648 17.800235751326465 14.634949066636059 0 0 0
839 1 16.356147398252762 46.270503913343944 6.861783377829408 2 0 0
3883 1 3.815627653645471 19.3857803881847 17.732023405659472 0 0 1
1822 1 11.153412287692706 22.535879246612623 18.026931816143257 -1 -1 0
4207 1 11.90579364548644 25.22805711332606 14.955908346737306 0 -1 0
244 1 10.92696637537743 39.29489632358997 23.4207460143059 0 0 -1
996 1 16.57606475266214 23.592941453981396 4.710871770343279 1 -1 1
3482 1 2.372012775976614 20.983124941622016 6.3870404004080035 1 0 1