LAMMPS data file via write_data, version 29 Oct 2020, timestep = 0

9216 atoms
1 atom types

0.35624208631728393 104.2958669436731 xlo xhi
-0.3645166507874545 50.63831738622315 ylo yhi
-0.3645166507874545 50.63831738622315 zlo zhi

Masses

1 18.015

Atoms # atomic

5 1 1.9218004161288293 2.166230352214768 1.919684683893604 0 0 0
140 1 16.043033461049514 34.97394986714315 0.9071223289046253 0 0 0
10 1 6.560106945392892 3.4516456747440523 3.8171780166982012 0 0 0
13 1 8.106000028648673 1.787807490731954 1.7941383561755484 0 0 0
21 1 14.166364366017033 1.6039018773294735 2.1468447033321465 0 0 0
18 1 12.664130046916123 3.5056462564442126 3.6765095033202915 0 0 0
19 1 15.840975697107346 50.17262989944315 3.3954106081872744 0 -1 0
745 1 0.4689233334158727 44.244254803254194 19.251600893419763 0 0 0
554 1 0.49695093157221576 47.651811978783556 15.550350300864775 0 0 0
780 1 9.554117446953818 3.090016750975586 25.119775112858267 0 0 0
27 1 3.7573279869410268 6.544482614480556 3.5164040018872362 0 0 0
8 1 5.277932238078713 4.931279306799361 2.0470433232109793 0 0 0
156 1 9.438720088349553 41.484047973572174 0.4124022276353965 0 0 0
16 1 11.322254768126864 5.080958311977029 1.9506524454996186 0 0 0
35 1 9.553398262342911 6.685652772995103 3.4799038159481195 0 0 0
24 1 17.51822764379352 4.991934387611256 2.3171979402650615 0 0 0
43 1 15.86888174242209 6.591061065826604 3.4682412316844564 0 0 0
29 1 2.305088629943276 8.553452416553208 1.9816432913264888 0 0 0
34 1 6.541932115406678 10.219478578545445 3.4678501347432484 0 0 0
37 1 8.184646328121175 8.297226284745163 1.8056819198877399 0 0 0
45 1 14.294050590461524 8.264401726110366 1.9106529448273109 0 0 0
42 1 12.896203286433646 10.01420807441355 3.625765433040998 0 0 0
12 1 9.88952859264305 3.3619059846450217 0.5406160961347133 0 0 0
51 1 3.3397340775211073 13.49029851121634 3.5375708209552363 0 0 0
32 1 5.0676845424253765 11.928343055169279 1.9904295203049767 0 0 0
218 1 0.943634731846529 9.720962187534793 10.019200502923347 0 0 0
59 1 9.706603582437538 13.053634059709529 3.30750603115812 0 0 0
40 1 11.265777653445108 11.433683350991592 1.791947301520505 0 0 0
67 1 15.906313646271338 12.551501057033136 3.4500105217976635 0 0 0
48 1 17.75855626488734 10.976194582664753 1.9784940967722728 0 0 0
577 1 0.7353067434275014 50.216553989316836 19.132732788548083 0 -1 0
53 1 1.8265460920470764 15.322299301773752 1.972471641692748 0 0 0
553 1 0.47638042014763016 43.88434323897883 12.929050359805986 0 0 0
58 1 6.618789217640773 16.0872423105132 3.4634169661769394 0 0 0
61 1 8.312463395739039 14.834926089415257 1.7638938021688182 0 0 0
69 1 14.387485687195872 14.394696832908238 2.0746200998473157 0 0 0
66 1 12.611324369940027 16.27451521161197 3.4573058171934434 0 0 0
674 1 0.4208218453623869 28.765110054564175 22.437890274435667 0 0 0
75 1 3.204751844299801 18.79857421783734 3.341492395091658 0 0 0
56 1 4.976301763722577 17.757201567220275 1.931752866273748 0 0 0
83 1 9.278495914850154 19.221241009104084 3.0695330657200977 0 0 0
64 1 11.36848087678712 17.74974188164677 1.7484700558889372 0 0 0
91 1 16.59783442646669 19.209894923206775 3.8916351768244946 0 0 0
72 1 18.099318882309785 17.80855481104115 1.748041845951528 0 0 0
762 1 12.689416864252753 47.747201480165685 22.19070824020545 0 0 0
77 1 2.2364257100411264 20.580411513833223 1.729355744984168 0 0 0
1561 1 18.797751210525306 6.6550745323528355 0.36132043556128757 0 0 0
82 1 6.627274565293256 21.950924896328385 3.742841774691927 0 0 0
85 1 7.699791874714796 21.07819215960497 1.6820365584424153 0 0 0
93 1 14.596331125253148 20.55325679647036 1.8080363500572556 0 0 0
90 1 12.871950988367509 22.186357618837096 3.4900834210543734 0 0 0
88 1 11.173155963260323 23.97176978815827 2.380064657900378 0 0 0
362 1 0.3742147537874102 47.099484077343135 9.789779067578735 0 0 0
98 1 0.3944568616479412 28.788281743248692 3.9367450839673386 0 0 0
99 1 3.5641812102065398 25.158949589849144 3.940279507745438 0 0 0
101 1 1.7760106696267075 26.84153641916927 2.3032213402426915 0 0 0
33 1 6.784505728975684 6.747932219902205 0.4558765269194235 0 0 0
80 1 5.1742500781171135 23.73917778284485 2.2001855728983615 0 0 0
650 1 0.3700861722953732 21.94618185060377 22.410979107199754 0 0 0
107 1 9.38082386740703 25.61816473398386 3.614672567461778 0 0 0
117 1 14.720956008170825 26.931471545441934 2.0262518153435796 0 0 0
698 1 0.5733928666743443 34.93543877965955 22.343001930967347 0 0 0
96 1 17.762804572118327 24.107362551380845 2.0110474839981585 0 0 0
505 1 0.6218646193254307 31.083761255019972 12.65111778481996 0 0 0
177 1 6.51554663853731 44.36176178465186 0.6474460549312848 0 0 0
106 1 6.385400467703444 28.451843411965733 3.588727150570018 0 0 0
104 1 4.894853414559935 30.165489819561557 1.8410430726916904 0 0 0
530 1 0.5346678170479449 41.27489924544432 15.961983272043584 0 0 0
109 1 7.982168212581841 26.938613670408277 1.6703115512202502 0 0 0
112 1 11.168968326933628 30.308292006081505 1.9505613228757466 0 0 0
114 1 13.094454598408966 28.510311431108047 3.2732655215760476 0 0 0
241 1 0.4263842245548539 13.135511695836598 6.971731444756094 0 0 0
120 1 17.797576011332144 30.453476244321642 2.0989028642459893 0 0 0
125 1 1.8687500041024598 34.12703772809705 1.698373947151519 0 0 0
123 1 3.500932682909213 32.1683402588056 3.5131754010345806 0 0 0
25 1 0.4373845887855017 7.006731242719674 0.3442259275242669 0 0 0
17 1 12.708172557515711 50.427023405916984 0.37130077138404793 0 -1 0
133 1 8.430049123357259 32.8897519269475 1.4983414788570877 0 0 0
131 1 9.396123859522762 31.58051775903689 4.004102970207392 0 0 0
956 1 16.004954160597094 47.83502016839337 25.127054171642527 0 0 0
141 1 14.361403943061399 33.20721364427402 2.1723633616004228 0 0 0
139 1 16.189007764779298 31.851188016824977 3.3380524831309963 0 0 0
84 1 9.817075678642334 22.34520971585317 0.6331118810797425 0 0 0
128 1 5.114094935146827 36.33666719475727 1.9348461677340154 0 0 0
130 1 6.606845383416586 34.50860910868411 3.226049030420208 0 0 0
136 1 11.235288386654904 36.40219232685088 1.9323414301880522 0 0 0
74 1 0.5005365465171422 22.279408854880767 3.2528211069242063 0 0 0
138 1 12.716000509731979 34.90278272918475 3.5734007464139306 0 0 0
144 1 17.99575505564291 36.88916556666548 1.655981511934627 0 0 0
122 1 0.7669095665614152 35.840644000616976 3.7323425236911962 0 0 0
149 1 2.022700373762791 39.969504852258254 2.1456670699905604 0 0 0
147 1 3.722077749817128 38.22867787995233 4.054237268849502 0 0 0
157 1 7.923633171066246 39.57909630525508 1.6890450058015278 0 0 0
155 1 9.147933309697319 38.14231313449183 3.323436453636316 0 0 0
165 1 14.330954973462731 39.32896239297469 1.663169840228431 0 0 0
163 1 15.91862193246166 38.15054452077864 3.5618499694344 0 0 0
164 1 15.948417399861198 40.898916508019525 0.4311908430870379 0 0 0
152 1 4.999707183623121 42.23650135546356 2.074664376328455 0 0 0
154 1 6.398311537419101 40.88799944766454 3.9738422620713725 0 0 0
160 1 11.395718685655531 42.93572732253685 2.0151075373041003 0 0 0
162 1 12.882686071292792 40.89986193904117 3.1587352730879195 0 0 0
168 1 17.443536419737704 42.795387106327965 1.8299486621337029 0 0 0
265 1 0.3724081520048524 19.33016153563535 6.653898855390136 0 0 0
766 1 14.445742275835084 49.241064439311785 23.97335365112675 0 0 0
171 1 3.4773099378191388 44.202596632927 3.5804542344125587 0 0 0
173 1 1.9504124128143223 45.63266302670144 2.048834661804705 0 0 0
178 1 6.685538331377664 47.616465583883866 3.542935397198065 0 0 0
181 1 8.396261027483284 45.92645010380238 2.188191504176751 0 0 0
179 1 9.878171601554953 44.461463688894966 3.5321490764812036 0 0 0
189 1 14.181906703772492 45.84084842480321 1.9848695845354534 0 0 0
187 1 15.810954178742284 44.29695636353051 3.465261460890101 0 0 0
3 1 3.3246967358074784 0.39218496754667465 3.041183372445777 0 0 0
176 1 5.081791430042884 49.03216269572722 1.8366311556699026 0 0 0
11 1 9.561133707134372 50.52706154995474 3.3408596766082725 0 -1 0
184 1 11.159871528178503 48.943585492901065 1.904728331979267 0 0 0
186 1 12.760407505938009 47.233377710487744 3.488799530674327 0 0 0
409 1 0.35807092178640126 6.972106664050983 13.424123522369658 0 0 0
192 1 17.474235885138288 48.92969881846781 2.172551101955994 0 0 0
196 1 3.0785272992361503 3.5301873934907166 6.57474960034765 0 0 0
217 1 0.47216694488084016 6.758983430138574 6.813150769184819 0 0 0
7 1 4.856790269567695 1.641532959691667 4.910823429757974 0 0 0
15 1 10.969020757020951 2.0820617857350054 4.623620404181081 0 0 0
204 1 9.394255841474186 3.2817226150680523 6.452777211073526 0 0 0
23 1 17.75352102902049 1.2804080755541258 5.051781813759476 0 0 0
212 1 15.982685026078203 3.114628705604376 6.304646688327637 0 0 0
817 1 0.6955336014667802 12.565220715699013 25.131085986394595 0 0 0
6 1 2.02541220922296 5.437841769734143 5.1640519960585 0 0 0
225 1 6.434868199607882 6.718630186546416 6.596903212850695 0 0 0
14 1 7.902017144826 5.283346902474351 5.173303415405593 0 0 0
22 1 14.520196499287932 4.722703457485516 4.906542877000372 0 0 0
233 1 12.87682332994726 5.970060533302392 6.633346869117955 0 0 0
833 1 12.92009235441825 12.575442985711534 25.10688595019718 0 0 0
220 1 3.261359076581767 9.917299969183295 6.411341483800019 0 0 0
31 1 4.918389302455086 8.484824791782094 4.84090142622127 0 0 0
228 1 9.688042679384099 9.819612576197303 6.511646540969935 0 0 0
39 1 11.330214156478835 8.120138052869445 4.997680391210194 0 0 0
47 1 17.493740907809585 8.320537720589765 5.080958999726529 0 0 0
236 1 16.07729923871282 9.90481113220311 6.743947133350522 0 0 0
30 1 1.9719509051565294 11.959727286161113 5.099438925741641 0 0 0
249 1 6.545488535299751 12.617755193948389 6.913126390626335 0 0 0
38 1 8.170961520248891 11.47243287219502 4.893848232711818 0 0 0
46 1 14.324402448161136 11.379030472577291 5.291213076206239 0 0 0
257 1 12.856347511209703 12.864217252955548 6.722403054322438 0 0 0
758 1 7.978977792602585 48.87478694759878 23.748444072990853 0 0 0
244 1 3.3767159666004836 16.33148754195818 6.903693328063138 0 0 0
55 1 5.242435219497761 14.770136213820198 5.537662629920499 0 0 0
252 1 9.61558276239838 16.18800113489921 6.599913926528736 0 0 0
63 1 11.43639723578195 14.842146605046812 5.178011109429588 0 0 0
260 1 16.31174160718589 16.221775708702 7.0301892153678835 0 0 0
71 1 17.683887478460935 14.287264157605664 4.883074022983108 0 0 0
587 1 9.828513065447446 50.557814361754026 22.38712179906864 0 -1 0
54 1 1.7238697759128363 17.552474081882885 5.386702137328248 0 0 0
273 1 6.383273219669914 19.08423262728527 6.542921405448102 0 0 0
62 1 8.074527405839426 17.432131589589172 5.087740646590481 0 0 0
70 1 14.591792702500387 17.59864602756728 5.418633449623577 0 0 0
281 1 12.842930282722898 19.167583085079418 6.729232757727191 0 0 0
268 1 3.141473538018936 22.415006788512795 6.584267276723305 0 0 0
78 1 1.3424119609470697 23.924712712984647 5.169293850706773 0 0 0
79 1 4.622505299435814 20.37543822401074 5.091918161170266 0 0 0
276 1 9.725044000600256 21.924626905486406 6.750609483190385 0 0 0
87 1 11.025432942097044 20.69418322828397 4.78837214912759 0 0 0
95 1 17.701227578926428 20.882654437266915 5.2605610079681195 0 0 0
284 1 15.819922125574509 22.152805076189065 6.5909016366031405 0 0 0
172 1 3.3389836815275418 47.19884201065639 0.41183883969372287 0 0 0
297 1 6.5309647155545845 25.13041117598334 7.166651826430698 0 0 0
86 1 8.24827565245539 23.864729451897528 5.283962901080852 0 0 0
94 1 14.44097046582343 23.921666121228327 5.014739349031201 0 0 0
305 1 12.864551111263964 25.442863954291237 6.636105436049405 0 0 0
115 1 16.41677156489162 25.333578354083308 3.8135401848496775 0 0 0
102 1 2.1234738556206025 30.389477454054056 5.063223921188747 0 0 0
292 1 3.2781886796255373 28.555835849425208 6.577203733939515 0 0 0
103 1 5.141214148597603 27.019923809657378 5.343341727775363 0 0 0
111 1 11.46608160044864 26.73710795364206 4.832477859613313 0 0 0
300 1 9.914587479261366 28.11087657067677 6.491805599855838 0 0 0
118 1 14.706938637248024 30.173769921383037 4.971685078757803 0 0 0
119 1 17.798735482328922 27.011698513391885 5.4554331216848215 0 0 0
308 1 16.006331672112577 28.656686507959925 6.982756488208036 0 0 0
321 1 6.6267173834268345 31.57448442929553 6.6831416825104935 0 0 0
127 1 5.397074519812489 33.59221439599169 5.378491590372969 0 0 0
110 1 8.092743733451222 29.7392511808424 5.229817780061719 0 0 0
135 1 11.251147604483474 33.02221476618733 5.147799622479824 0 0 0
329 1 13.369042904240958 31.501579994143235 6.590046792685933 0 0 0
143 1 17.73025876155042 33.46683520154501 5.1534012107361225 0 0 0
126 1 2.1805220860664365 36.9411376099542 5.558048825607007 0 0 0
316 1 3.910857984290554 34.936602425611184 6.980874026091424 0 0 0
134 1 8.163570376552888 36.364670141909 5.27694405340025 0 0 0
324 1 9.859355163597327 34.30601237205644 6.894291242762328 0 0 0
142 1 14.660692607393099 36.387205475368646 5.078400757637041 0 0 0
332 1 16.184169286517402 34.818924441215714 6.810595149096204 0 0 0
41 1 12.75533815534289 6.690277842028632 0.5047166039993857 0 0 0
151 1 4.971412655350258 39.590273155465354 5.736409779792371 0 0 0
345 1 6.786984112445104 37.76241247923255 7.233444352095146 0 0 0
159 1 11.321337596476015 39.46951329789451 4.898272267351982 0 0 0
353 1 12.88678816995584 37.8780283643989 6.6890575680200905 0 0 0
167 1 17.61690634543756 39.67818276641367 5.180411642538432 0 0 0
340 1 3.54242563195718 41.4182258650428 6.864752253018134 0 0 0
150 1 2.004538083654225 42.7639684147222 5.095801221809249 0 0 0
158 1 8.507449524870895 42.54841224002722 5.156387637859083 0 0 0
348 1 9.773310993326104 40.72449063508155 6.8888678009598125 0 0 0
166 1 14.312397103357663 42.65596718059189 4.893744909701383 0 0 0
356 1 15.85707270956618 41.144691686998186 6.707406867117901 0 0 0
1922 1 18.910837982596743 3.51665979328021 16.418832101060993 0 0 0
369 1 6.905553924828118 44.12048805720852 6.699951699949173 0 0 0
175 1 5.085735750049067 45.63395723033493 5.086156713191983 0 0 0
183 1 11.20532055513168 46.21464621357448 5.254972795675965 0 0 0
372 1 9.959263043032424 47.58757479991843 6.7992674264958275 0 0 0
377 1 12.859024465672272 44.33415316445175 6.293716726338813 0 0 0
191 1 17.76183948286298 45.37205160971665 5.104207671599701 0 0 0
364 1 3.2535925753990913 47.45447785667584 6.322336268981737 0 0 0
174 1 2.023920688054525 49.45857455833266 4.8450264658613404 0 0 0
201 1 6.406071998958055 0.31944798673397323 6.489733672288564 0 0 0
182 1 8.18716587075691 48.88710263878836 5.186485279694015 0 0 0
209 1 12.860953339808145 0.4138935745395858 6.086105648159209 0 0 0
190 1 14.20642415818337 48.88497750579529 5.056666761530683 0 0 0
380 1 16.05938980777331 47.16654180065888 6.585123901389052 0 0 0
754 1 6.588006850836101 47.119359388445446 22.114591067855983 0 0 0
197 1 2.13640708760573 1.8070109440803939 8.435425405308477 0 0 0
202 1 6.728690355471213 3.4333916767499093 9.305322162076754 0 0 0
199 1 5.401740654753467 2.343085752722761 11.288347277609184 0 0 0
205 1 8.066214795578402 1.5584361395320447 7.924985180338615 0 0 0
203 1 9.318605365185812 50.41688395968265 9.985322986843968 0 -1 0
207 1 10.887320354657339 1.6734127441617137 11.226481678397489 0 0 0
213 1 14.111004704734519 1.8374967350516522 8.122731492879865 0 0 0
211 1 16.19261931087214 50.24911409380189 9.758812627446016 0 -1 0
215 1 17.86764719330961 2.120609944470221 11.064184920968911 0 0 0
219 1 3.880973917380929 6.772161497243297 10.224176047368555 0 0 0
198 1 1.7738440524842665 5.1125124329888605 11.726979997082227 0 0 0
200 1 5.005820268958636 5.188592061083624 7.985888844220435 0 0 0
227 1 9.563590697162235 6.407400661162132 9.623109755393997 0 0 0
208 1 10.781278989653888 4.378183691816363 8.335853495687493 0 0 0
210 1 12.430995537311542 3.077911439411033 9.621155938439221 0 0 0
216 1 17.797457455262 5.048794622501736 7.764139122181757 0 0 0
235 1 16.33977799425425 6.614870327331744 9.467253200942938 0 0 0
2066 1 19.19790070586715 41.34502313657049 16.186013798510857 0 0 0
221 1 2.306586042554571 8.224960021717614 7.970522540571807 0 0 0
226 1 6.3242628542389845 9.536226330229034 10.104060107370097 0 0 0
229 1 7.940949670762695 8.188312237548619 8.50701484988881 0 0 0
237 1 14.164627367914028 7.797519353331405 7.965029813566033 0 0 0
234 1 12.60081299519324 9.583448765912374 9.268864784491843 0 0 0
750 1 1.977200258439359 48.976519674479476 23.812732371164426 0 0 0
243 1 3.339891208511417 12.763632009555247 10.264721568339038 0 0 0
222 1 2.121348657779352 11.005602376947964 12.144210910447386 0 0 0
224 1 4.831308962422734 11.179229722901939 8.478280369762173 0 0 0
251 1 9.773489837132189 12.913604273834357 9.76924836955756 0 0 0
232 1 11.33535299056149 11.268727600374325 8.09711079542216 0 0 0
240 1 17.691021325326506 11.27976339516751 8.294197815538984 0 0 0
259 1 16.353141247654513 13.179372729825417 9.59045540170872 0 0 0
245 1 2.2681107308727464 14.234830460596541 8.442309009265982 0 0 0
250 1 6.815357932245394 16.15665393762184 9.559298937499403 0 0 0
253 1 8.109910695795712 14.263400767414456 8.332456125550177 0 0 0
261 1 14.340374122210815 14.651308947077972 8.123804944115816 0 0 0
258 1 13.02017784437519 16.066180923217736 9.782551225504335 0 0 0
188 1 15.86068534726747 47.51933660386986 0.7685571369959767 0 0 0
267 1 3.555033296350552 19.41925018289605 10.173466949703318 0 0 0
248 1 4.953802248696721 17.962967836477826 8.430658061929202 0 0 0
275 1 9.781019890134727 19.318536678898756 9.845159642611975 0 0 0
256 1 11.077178824319327 17.599520411059064 8.116837603941551 0 0 0
264 1 17.680437034388305 17.695258425386424 8.798117397148374 0 0 0
283 1 16.01837815591621 19.308878409143823 9.848867723440863 0 0 0
269 1 2.066073813613799 20.931476141382156 8.454147316329713 0 0 0
274 1 6.714283326423557 22.072101940266077 9.567675367663425 0 0 0
277 1 8.177840399147698 20.368385636900847 8.138331423928262 0 0 0
285 1 14.32704208409697 20.77237346446935 8.185398696670473 0 0 0
282 1 13.086539618782489 22.473887055037626 9.968334741289983 0 0 0
579 1 3.1531027508176255 0.567293156132853 22.471879478885246 0 0 0
291 1 3.345459611042465 25.796877059661 9.909585537234875 0 0 0
293 1 1.3218789360176064 26.954103730177952 8.23614113735023 0 0 0
272 1 4.7357868067302755 23.501097737409065 8.47431896568843 0 0 0
295 1 5.423763697221644 26.94650515145791 11.379188200574653 0 0 0
280 1 11.38201887261794 23.62827837972094 8.160545276091018 0 0 0
299 1 9.781464220326797 25.301871648316972 9.963918038702177 0 0 0
286 1 14.488186767969923 24.032102474492437 11.68146553872139 0 0 0
288 1 17.403692777787906 23.68042121877557 8.08365128531819 0 0 0
307 1 15.95577280160327 25.296673951198986 9.740862777974193 0 0 0
1969 1 19.01675796302584 12.86341740017213 12.758625334185343 0 0 0
298 1 6.469870733128006 28.472049361827672 9.618255841577886 0 0 0
296 1 5.0469044078949095 30.07942392786718 7.940537518456076 0 0 0
301 1 8.10985007855663 26.886214384853563 8.463273941411103 0 0 0
304 1 11.598271345963582 29.81489660014594 7.749473305666317 0 0 0
309 1 14.437889407438812 26.93030260908335 8.496294503373203 0 0 0
306 1 12.84167375025156 28.613403437472773 9.900735510973742 0 0 0
312 1 17.58416013836704 30.42274533461911 8.35443358848506 0 0 0
1538 1 18.92814984513976 3.287934193366654 3.945930196139764 0 0 0
315 1 3.8472183932191863 31.635900201484258 9.506842571019787 0 0 0
317 1 1.961641750974974 33.307645954521405 8.337346876741538 0 0 0
323 1 10.392155494993562 31.250174128116566 9.876562775803315 0 0 0
333 1 14.867338604131161 33.16138813199716 8.491498699056917 0 0 0
331 1 16.318497996794957 31.7407973054583 10.416149769758283 0 0 0
1946 1 19.09002039982212 9.876840129730532 15.976215424681465 0 0 0
320 1 5.384130222249965 36.31811075732675 8.70883892449312 0 0 0
322 1 7.006592393260315 34.45790950325102 9.981564677898609 0 0 0
325 1 8.443804295483833 32.74402328731915 8.477522890628922 0 0 0
328 1 11.596731522022774 35.92931432034422 8.183159681425632 0 0 0
330 1 13.33518314074418 34.93797302822365 9.632935382023998 0 0 0
336 1 17.8928173827593 36.31489163771974 8.307640466511637 0 0 0
341 1 2.1359027206847294 39.64353144291455 8.542477488127119 0 0 0
339 1 3.563340202939081 37.82277292441499 9.929897953558095 0 0 0
349 1 8.471738927477192 38.87736037925782 8.693572766916391 0 0 0
347 1 10.073046774921078 37.397696436273435 9.896935147644651 0 0 0
357 1 14.626759103975411 39.28729094823238 8.153535195656804 0 0 0
355 1 16.1128158587462 37.84881023714789 9.608642268519402 0 0 0
344 1 5.519848942129544 42.52853598540071 8.514637311645988 0 0 0
346 1 6.927935192198608 40.69571658255103 9.717057472541379 0 0 0
352 1 11.34859405386697 42.77623141133586 8.319586216122135 0 0 0
354 1 13.219856633675937 41.25349994607235 9.543632410926302 0 0 0
358 1 14.679422978530907 42.939196544259275 11.349652679803006 0 0 0
360 1 17.240223901607212 42.58124665472229 8.300122770520113 0 0 0
1537 1 19.011483861571456 50.228944743614875 0.4250411652286752 0 -1 0
365 1 1.983357000959811 45.757706364297064 8.222220586821937 0 0 0
363 1 3.6826254852433418 43.998374671231346 9.959140451385375 0 0 0
370 1 6.537078963467304 47.39824591111409 9.574908655948196 0 0 0
371 1 9.908085620947558 44.16258661901111 9.941365589672582 0 0 0
373 1 8.535045095020246 45.772127297470306 8.19422210882822 0 0 0
375 1 11.510075007832285 45.949729387553916 11.494061768105942 0 0 0
381 1 14.42699916757079 45.57731035263359 8.24817598658457 0 0 0
379 1 16.284152523419955 44.56681748268787 9.788880541179802 0 0 0
195 1 3.8873183589686833 0.43190053070442136 9.938678097104763 0 0 0
366 1 2.005589745848821 49.09808356769845 11.265592652175677 0 0 0
368 1 4.989036490618801 49.078132337820804 7.968178580985767 0 0 0
376 1 11.383751539699984 49.329301592025075 8.09162763448112 0 0 0
374 1 8.080934848513683 48.782438687150986 11.264468506652895 0 0 0
378 1 12.825858901685947 47.356579308586845 9.64277472386498 0 0 0
384 1 17.66686113117236 48.63751388490961 8.209002332795023 0 0 0
388 1 3.528366943401218 3.454408419047044 12.806686306825142 0 0 0
389 1 2.3050285769473238 1.831855369147852 14.840261846131218 0 0 0
397 1 8.38727036282162 1.8181855318717655 14.355032973510648 0 0 0
396 1 9.743039780270257 3.6299653247491253 13.017934907199452 0 0 0
405 1 14.53981763215121 1.7271111788088016 13.537744212820028 0 0 0
404 1 16.180674159528373 3.6043711735222272 12.551683908412675 0 0 0
417 1 6.312548361539615 6.8522117873124095 13.432527201846163 0 0 0
392 1 4.9493823603610645 4.680964754658523 14.758233273180357 0 0 0
206 1 7.769052798304582 5.150130548226768 11.878757985764272 0 0 0
400 1 11.592818793053354 5.10363803234949 14.2437292973745 0 0 0
214 1 14.404566662381294 4.827660859464278 10.698233185591063 0 0 0
425 1 12.825147984754926 6.582225301513179 12.238568126593966 0 0 0
408 1 17.313766474758307 5.099464281221701 14.390358225412552 0 0 0
763 1 15.754814628677757 44.54934859044634 22.31830633730047 0 0 0
412 1 3.509294421171904 9.810895359205977 13.82296252134211 0 0 0
413 1 1.538028265829287 8.133728730299026 15.460053808929993 0 0 0
223 1 4.8026014987695875 8.430614397217568 11.914785547501127 0 0 0
421 1 8.549134090769813 8.067522021103722 14.186405093588805 0 0 0
231 1 11.246302465644145 8.099823102984978 10.908249754068196 0 0 0
420 1 9.746764304487211 9.52818638634037 12.489463254525823 0 0 0
429 1 14.33292863860161 8.422580154099947 13.986242856752419 0 0 0
239 1 17.897341127535842 8.101796207371805 11.244377616379673 0 0 0
428 1 15.915887992093374 9.850433984008369 12.4915270706078 0 0 0
441 1 6.643335241777016 13.009576505201492 13.20641005653183 0 0 0
416 1 5.041455365838638 11.516788293723403 14.81769448620057 0 0 0
230 1 8.003188281723173 11.52122271343076 11.10676422335344 0 0 0
424 1 11.205757452196742 11.303735736343262 14.35822892687833 0 0 0
238 1 14.461515001787802 11.331224402373344 10.582062836126944 0 0 0
449 1 12.926560210713525 12.730562468053323 12.749876192215606 0 0 0
432 1 17.314737899972148 11.301038209419112 14.492172664346409 0 0 0
436 1 3.6525860245095645 16.15777199316927 12.798397978305825 0 0 0
437 1 2.0265694844896958 14.743971376262582 14.547203957675428 0 0 0
247 1 5.17880564461865 14.379716463677145 11.354845399333431 0 0 0
445 1 8.355654265330434 14.555891277064758 14.672064888934978 0 0 0
255 1 11.646122470448184 14.472527026857838 11.178576840606429 0 0 0
444 1 10.041556732382853 16.025596861866205 12.970344650787979 0 0 0
452 1 16.105315333878696 16.28189040336727 12.822635053565657 0 0 0
263 1 17.671240542689045 14.527337508919796 11.49542590957528 0 0 0
767 1 17.64635953607698 46.32227253858768 23.52317488695822 0 0 0
246 1 1.84381445604474 17.80803913799776 11.369454141139965 0 0 0
465 1 6.691159499726619 19.342194623098724 13.06844545231976 0 0 0
279 1 11.287224118829668 21.018934093059073 11.455950645364673 0 0 0
254 1 8.453237104074079 17.713188261178576 11.471137986348051 0 0 0
262 1 14.417876640711443 17.66940480535313 11.458554084958015 0 0 0
473 1 12.929862064367688 19.285941841297777 13.026698351291138 0 0 0
456 1 17.581343718591484 17.72662767808364 14.206870143619176 0 0 0
460 1 3.6620474158876557 22.319552542365003 13.131730030901279 0 0 0
270 1 1.8894504600520738 24.15942891446105 11.343300972094795 0 0 0
461 1 2.0055195245495283 20.952604532485747 14.457937363820877 0 0 0
271 1 5.370514839048743 21.0269414410733 11.605444144549027 0 0 0
468 1 9.611555988138377 22.38719997040173 13.005300374820205 0 0 0
469 1 8.445488341189268 21.17091289647202 14.843094427919366 0 0 0
477 1 14.562117964583773 20.903243906612868 14.68925615117875 0 0 0
287 1 17.50026304330693 20.934795964311157 11.682821917365786 0 0 0
476 1 16.110029104977826 22.38462944456493 13.180400608151755 0 0 0
2089 1 19.025850809753134 44.8040702199997 13.259975778871734 0 0 0
485 1 1.7709901388684774 27.038749463715607 14.384424682264896 0 0 0
489 1 6.4364835050291145 25.304977667914198 12.912231283762296 0 0 0
464 1 5.073005586383249 23.908200934988194 14.530236246530547 0 0 0
278 1 8.133073090279414 23.811111094624323 11.139296477725289 0 0 0
493 1 7.969611609043002 26.881009424770536 14.527000238300998 0 0 0
497 1 13.034229478614412 25.758103798593357 13.095997533615526 0 0 0
501 1 14.800910119614636 27.277197068214395 14.584221636669763 0 0 0
480 1 17.755184469770455 23.999567566901295 14.515205351342457 0 0 0
311 1 18.003244536037595 26.967641612334116 11.592935125643132 0 0 0
484 1 3.955625887665244 28.40930220232568 13.03749750302074 0 0 0
294 1 2.264263688393262 29.885036538260227 11.04167991543565 0 0 0
488 1 5.153274019779342 30.092141183496427 14.699404195851487 0 0 0
303 1 11.448813644467068 26.83234282236939 11.344859900800003 0 0 0
492 1 9.704767938290816 28.3676983845188 12.958658222254469 0 0 0
496 1 11.501382048670031 29.920849489459012 14.609368905199501 0 0 0
310 1 14.652050141091154 30.22271904288056 11.55120937937479 0 0 0
500 1 16.363637128554576 28.67172785289954 12.855997489899025 0 0 0
504 1 17.912581665623566 30.350022512380217 14.430112075654222 0 0 0
509 1 1.9557474602914124 32.8333555211741 14.581172277772241 0 0 0
319 1 5.221892007889806 33.004445317484524 11.36835259967742 0 0 0
513 1 6.68472329686326 31.475100265290187 13.162649516119913 0 0 0
302 1 8.211273828867864 29.75713819290794 10.942306830109723 0 0 0
327 1 11.641664385282343 33.53403172743667 11.375602142235387 0 0 0
521 1 12.883419357658866 31.964993304595637 12.805378650167526 0 0 0
525 1 14.625797858351191 33.207957475948106 14.448806076456908 0 0 0
335 1 18.17091587846883 33.64614993522896 11.578782208428787 0 0 0
318 1 1.8623668592310798 36.464103878685904 11.528046144927494 0 0 0
508 1 3.4791872222610953 34.74070394952507 13.161008419455067 0 0 0
326 1 8.044368939787201 36.39648914082015 11.378792304176232 0 0 0
516 1 9.7369430887823 35.01469676166337 13.062452940702352 0 0 0
520 1 11.973678049610882 36.31807544008724 14.382081539125291 0 0 0
334 1 14.578970651141045 36.5246442463701 11.370803978525203 0 0 0
524 1 16.335496300912236 35.01713638600805 12.891654968195441 0 0 0
528 1 17.92063261378841 36.56597111458656 14.645998787702682 0 0 0
533 1 1.9848711818807276 39.431312285125 14.698112461405218 0 0 0
343 1 5.228208846973262 39.33311519177656 11.6149767278009 0 0 0
537 1 6.503100717455355 37.69485446393047 13.299636165157946 0 0 0
541 1 8.35574080856297 39.57961227982214 14.742863006223905 0 0 0
351 1 11.538298191967172 39.57371638960275 11.030764685052992 0 0 0
545 1 13.220276624999965 38.36515051871977 12.702156241312183 0 0 0
549 1 15.076849419550458 39.866007331992265 14.60302793368604 0 0 0
2186 1 19.04214576603375 22.432369867364432 22.493302645965517 0 0 0
359 1 17.53137034881911 39.652557566333556 11.123678750502995 0 0 0
342 1 1.8317243329116921 42.297704182135575 11.291627920041803 0 0 0
532 1 3.1127378812781212 40.61077909893683 12.59116454923848 0 0 0
536 1 4.9407911367471575 42.38898192141281 13.843277318056243 0 0 0
561 1 6.781225211893496 44.123648707217 12.736514573549547 0 0 0
350 1 8.31313189936102 42.64121533425488 11.247312597401947 0 0 0
540 1 9.972190076653247 41.252619447389236 13.21838110627298 0 0 0
544 1 11.536272825410915 42.66534777492565 14.405221498651127 0 0 0
548 1 16.216026155750072 41.31754372316725 13.005338628453504 0 0 0
552 1 17.89042525239332 42.985810326474706 14.71153772289382 0 0 0
557 1 2.1246856562283973 45.839275878236464 14.326872471511507 0 0 0
367 1 5.195512824997165 45.81392702724341 11.239308332505601 0 0 0
565 1 8.26211829899869 45.716528887549174 14.230282932704695 0 0 0
564 1 9.689539893439303 47.33732816459562 12.908604028469309 0 0 0
569 1 13.035004814595412 44.312066821869834 12.976320270983015 0 0 0
573 1 14.721051047907089 45.92633212818703 14.497839740867965 0 0 0
383 1 17.761607411629416 46.67424928592523 11.214726130540898 0 0 0
556 1 3.6506396996164154 47.402806194820315 12.774671466733452 0 0 0
393 1 6.852095834545219 0.5629175786987216 12.8508006733767 0 0 0
560 1 5.4225479596868835 49.33636340649794 14.44742116681481 0 0 0
568 1 11.478846049677392 49.23329979082088 14.463742179107962 0 0 0
401 1 12.712347565109772 50.26222474690093 12.503357985996788 0 -1 0