LAMMPS data file via write_data, version 29 Oct 2020, timestep = 100000

8525 atoms
1 atom types

0.27684720914992056 104.37526182083985 xlo xhi
-0.4034754573930037 50.67727619282596 ylo yhi
-0.4034754573930037 50.67727619282596 zlo zhi

Masses

1 18.015

Atoms # atomic

1722 1 2.095588772391228 0.7573798459634951 0.028195582029516164 0 0 1
1847 1 6.490715384710043 2.2867711846532592 1.5462215467742702 0 0 1
1725 1 7.913320767638602 0.6869506612826226 -0.2242259897838822 0 0 1
1850 1 12.63722335019148 2.39561221196171 1.2238527193876259 0 0 1
1849 1 13.924672443815387 0.6459801874735684 -0.08667388149718042 0 0 1
1871 1 18.897215468473668 2.29634147045272 1.0953345333905242 0 0 1
2603 1 25.27144030911672 2.5900577923532535 1.1279414716716891 0 0 1
2604 1 26.73438013050627 0.9286936963065737 -0.3844923745032634 0 0 1
2503 1 33.456408386189324 1.1951174791925716 -0.03592515161149756 0 0 1
1852 1 1.8866503674172228 3.673011376056359 2.492664353637976 0 0 1
1853 1 3.224982337424046 5.688428240406807 1.1732133257141486 0 0 1
1731 1 5.136927749029976 4.001677848708022 -0.14983160369426318 0 0 1
1855 1 9.40908098200061 5.225591204613579 1.232176649706608 0 0 1
1857 1 15.909267007250541 5.145577456295199 1.5228077130632829 0 0 1
1736 1 17.062664159351204 3.7285442842569445 -0.24359215163207015 0 0 1
2607 1 20.399025074889956 3.649669661554764 2.647033898644252 0 0 1
2608 1 21.782947476772673 5.583016324677962 1.5726486260128323 0 0 1
2507 1 23.408279676607414 3.7679991886350024 -0.11046772593910947 0 0 1
2611 1 28.327230156994375 5.501175517854254 1.3429987224324091 0 0 1
2606 1 31.522645380401638 2.6364167413703097 1.3614389670488336 0 0 1
2609 1 30.193921973572074 4.128728530844577 0.019049452665851896 0 0 1
2613 1 34.82979079081158 5.312182849466038 1.4884761832419293 0 0 1
1738 1 1.7713959141758244 7.407506530890539 -0.193092655096655 0 0 1
1451 1 0.35577139739177227 8.764491886975863 1.5346464486517126 0 0 1
1860 1 6.467611971833119 8.633323791591438 1.4067283714577485 0 0 1
1740 1 8.194285818451785 7.1157444039410365 -0.38550063052992767 0 0 1
1861 1 10.948107877803468 7.343255897363776 2.4957712705473365 0 0 1
1862 1 12.848352828707917 8.604413546323325 1.0939317562853148 0 0 1
1743 1 14.710271296369758 6.937809873889369 -0.2529913458279458 0 0 1
2068 1 18.961800394676324 8.535169022170441 1.404141253578329 0 0 1
2512 1 20.58872028542671 6.937879230820345 -0.07003460442984955 0 0 1
2615 1 25.446384555820057 8.797336124156148 1.3516480914475169 0 0 1
2515 1 26.622659002116162 6.729613528021812 -0.055002467791117726 0 0 1
2618 1 31.815408005415357 8.769429231409461 0.9912786655405026 0 0 1
2617 1 33.201603662541494 6.936560579038901 -0.38580861034124614 0 0 1
1866 1 3.5931959705960366 11.741721490276861 1.3369776011526493 0 0 1
1748 1 5.0685501088787195 10.181922101179945 -0.3280208061806986 0 0 1
1868 1 9.57389052732389 11.750901302362253 1.2308606472622112 0 0 1
1750 1 11.03058258008369 10.090138519436316 -0.20694432099764118 0 0 1
1870 1 16.035394770128967 11.736992906904849 1.3219135910690971 0 0 1
1754 1 17.50411003424496 10.393694710576906 -0.3345020574786547 0 0 1
2620 1 22.297399592485025 11.396863566164031 1.7713027262534164 0 0 1
2520 1 23.612952658400275 10.200180355188655 0.011877759887362227 0 0 1
2522 1 29.70467734547188 10.082214169993899 0.1534507244379414 0 0 1
2621 1 28.714428021543448 11.776837524058136 1.7340822423052078 0 0 1
2623 1 33.70135791944 10.244244473937993 2.624694584667086 0 0 1
1755 1 1.951506335940122 13.536942857600353 -0.1439968490087264 0 0 1
1460 1 0.5194032132696367 14.993937175773974 1.6058103086547 0 0 1
1758 1 8.173240858397829 13.215993840131297 -0.23039884883536496 0 0 1
1874 1 6.68152641748998 14.48265267827186 1.4495554605480019 0 0 1
1876 1 12.959554405418412 14.566354301775599 1.3088157702206342 0 0 1
1759 1 14.136119134168574 12.933496590077425 -0.3828008645608193 0 0 1
1824 1 19.03804687353912 15.203493922468866 1.5842412036983 0 0 1
2526 1 20.871629716451125 13.19426612265298 0.32364448970247595 0 0 1
2529 1 27.062319876591378 13.002851298465142 0.17892196515679215 0 0 1
2626 1 25.626965702197495 14.829162667026468 1.5158447745455559 0 0 1
2629 1 31.896084587737185 14.751946660821819 1.4855447255399503 0 0 1
3069 1 34.97004592635966 50.205371388274585 20.915968709379538 0 -1 0
1880 1 3.400275527139383 18.348121758601636 1.6618656228157227 0 0 1
1766 1 4.707301460231504 16.426722936969792 -0.13312855749884833 0 0 1
1883 1 9.668497100270546 17.664154058984476 1.125448784434186 0 0 1
1760 1 11.193615048913802 15.903940617156884 -0.004967216711473987 0 0 1
1885 1 15.733268337627425 18.016809638807953 1.1402388221059072 0 0 1
1877 1 17.496010353812576 16.50261167714158 -0.36867064451452014 0 0 1
2534 1 23.978086445213226 16.204041649994284 -0.07233679075799604 0 0 1
2631 1 22.537892581484524 17.71940467500098 1.4177286652227368 0 0 1
2633 1 28.732030301584874 17.95637212411042 1.0918592799449192 0 0 1
2539 1 30.357655985315997 16.485188046646424 -0.3489392844307 0 0 1
2635 1 34.805375971374644 18.15216799657811 1.1216636555772672 0 0 1
1774 1 1.8751999282903267 19.777411026223973 0.10841649041510237 0 0 1
1889 1 6.7340553371348655 20.8580496048661 1.3120384264264655 0 0 1
4806 1 34.95865855888527 15.139594103463336 4.575514610196242 0 0 1
1892 1 12.181220295436665 21.414550399792773 1.386373913787057 0 0 1
1772 1 13.752532341588056 19.48832666735559 -0.35006886352055794 0 0 1
2110 1 18.834731921182215 21.063377775804295 1.3504709583708312 0 0 1
2533 1 20.306646323292334 19.214537240690625 -0.021406749650264956 0 0 1
2639 1 25.167308981785922 21.238620181234914 1.4387637269997275 0 0 1
2545 1 26.822471238128767 19.297415138317696 -0.30023912523820473 0 0 1
2640 1 29.765889197170168 19.65736199433094 2.37104812054398 0 0 1
2642 1 31.572646990003456 21.294477145587386 1.2025747396475808 0 0 1
1020 1 25.071692015319538 44.353017681969064 24.491300500025297 0 -1 0
1897 1 3.407296085768692 24.187311947748153 1.1927585907256917 0 0 1
1888 1 5.274082786286977 22.501218316975166 -0.05219635282611468 0 0 1
1899 1 9.407249997781644 24.753070474874804 1.4158468575284682 0 0 1
1901 1 15.973807403403313 24.40881324709005 1.3175437425527652 0 0 1
1895 1 17.427643206714546 22.547477039027225 -0.2874513848297592 0 0 1
2644 1 22.085865221745195 24.373924173228197 1.4235989937878493 0 0 1
2638 1 23.626767573293417 22.948806554382088 -0.14709055701512985 0 0 1
2646 1 28.11642939710097 24.235769974415145 1.3764905322650844 0 0 1
1017 1 22.069675204326348 46.97507957846899 24.667772974691275 0 -1 0
2648 1 34.55097945426931 24.379827012139614 1.574283804164517 0 0 1
1896 1 1.8052578337947598 25.77951298315743 -0.0627565642156499 0 0 1
2007 1 0.37174747818161186 27.33913205940195 1.591500471306168 0 0 1
1904 1 6.372917693058039 27.805767654383082 1.5885540879140863 0 0 1
1785 1 7.944491190893878 26.480446534813257 0.07318464208025344 0 0 1
1906 1 13.03977598819771 27.663929659234633 1.278826469381844 0 0 1
1788 1 14.542155510460349 25.947913507571037 -0.3683312805161786 0 0 1
1902 1 17.39184443970488 25.913549581927096 2.638158894482655 0 0 1
2308 1 19.1241302305526 27.403200587773863 1.3594094132172767 0 0 1
2550 1 20.24224992180806 25.773692881268467 -0.24176412800948793 0 0 1
2650 1 25.315512295933296 27.645945472078257 1.330790696723137 0 0 1
2553 1 26.80679689173316 26.141903370696884 -0.3834481279582637 0 0 1
2652 1 31.76657173551519 27.768603502775054 1.8564670986213745 0 0 1
2556 1 33.20561196776936 26.210917018813603 0.29134938553630985 0 0 1
1909 1 3.401264428878869 30.728246846298166 1.4655615730089202 0 0 1
1792 1 4.963346916236316 29.046305229394488 -0.25616330970020706 0 0 1
1911 1 9.577827135656 30.530533761600143 1.4110191247629682 0 0 1
1795 1 11.198652304219404 29.10140502201535 -0.07052948328659092 0 0 1
1913 1 15.92216670682475 30.770896006307375 1.5291764744806673 0 0 1
1797 1 17.380507968314056 29.342264940791527 -0.06073621187655226 0 0 1
2654 1 22.005465116765233 30.78998186268441 1.5337840671855514 0 0 1
2559 1 23.649978938874526 29.108493869354096 -0.10954676092356186 0 0 1
2656 1 28.227779530322273 30.94109998290431 1.588703105808106 0 0 1
2562 1 30.361764216786398 29.451139228475785 0.31974653884303605 0 0 1
76 1 0.29609371598536477 50.63852834537981 11.618785285263112 0 -1 0
1798 1 1.6379709635427713 32.246393381784145 0.01566601478585622 0 0 1
1435 1 0.3738606158380667 33.79529602480528 1.8959942340217668 0 0 1
1910 1 4.946014894007543 32.12609315158116 2.6390908725446467 0 0 1
1800 1 8.001467490862183 32.071282037396315 -0.25366211422236257 0 0 1
1917 1 6.615305714244637 33.6137666405848 1.3260877228803418 0 0 1
1919 1 12.29321893450979 33.722899555280335 1.3164242600453424 0 0 1
1803 1 14.547738974616722 32.27933674655294 0.02206892356545842 0 0 1
2125 1 18.940951473626605 34.144746999064594 1.5821207152249392 0 0 1
2565 1 20.60356713799187 32.215780475386524 -0.04686182220787832 0 0 1
2659 1 25.196062030804594 33.99010208067084 1.530081444018408 0 0 1
2569 1 26.94215916882552 32.49221079623342 0.00016206698630799599 0 0 1
2661 1 31.50461799727107 33.363235825098286 1.225244767394481 0 0 1
2571 1 33.43726525018988 32.14968308795433 -0.11559350055205181 0 0 1
1922 1 3.3438730774923973 36.96506535687425 1.105748647286242 0 0 1
1918 1 7.864000965439072 35.59776916674231 2.5537221305429045 0 0 1
1811 1 11.106715596689337 35.32799198581441 -0.18992530597101448 0 0 1
1924 1 9.8470839484897 37.02441846918897 1.126851954520618 0 0 1
1814 1 17.096140845600704 35.19131185842572 0.04715824190133877 0 0 1
1927 1 16.155328401903994 37.14061079162785 1.70515082753323 0 0 1
2663 1 22.188493277496057 36.909411735750936 1.3053832082687125 0 0 1
2574 1 23.862070246601768 35.55710755795482 0.12064157356654537 0 0 1
2665 1 28.399234668792214 36.83131243641185 0.9813988272181584 0 0 1
2577 1 29.9407411923123 35.153145809681746 -0.3024149791007901 0 0 1
1815 1 1.6936952644519694 38.472054691712884 -0.16972976493309952 0 0 1
3299 1 0.8635421282307156 48.67294041358821 13.650213063436139 2 -2 4
1818 1 7.899823700727094 38.56424419563646 -0.17175767242828083 0 0 1
1931 1 6.659491619301964 40.189062750675205 1.4135744980484712 0 0 1
1926 1 12.699412510905892 39.99323541452476 1.6580498768909169 0 0 1
1822 1 14.37179013758127 38.465744081045926 0.19790354602115112 0 0 1
2222 1 19.356264333549614 40.17299736852401 1.5663070580720457 0 0 1
2579 1 20.381468607328795 38.206797095734444 -0.3087313661250175 0 0 1
2669 1 25.25187286746792 39.93149170122592 0.8846269604739714 0 0 1
2672 1 31.752233473525603 39.7898211093425 1.3591101694723455 0 0 1
2584 1 33.62344533452587 38.25050963963764 -0.1608828405802359 0 0 1
1929 1 3.3247964060157584 44.01989666448847 1.3965287351180506 0 -1 1
1827 1 5.093680731931148 42.01855020023301 -0.21213727442399424 0 0 1
1932 1 9.441104800914047 43.09077901116923 1.5162596228441636 0 -1 1
1829 1 11.162537914545586 41.63149644411601 0.0372187530101073 0 0 1
1832 1 17.36015953819667 41.621676986661484 -0.015637668811554428 0 0 1
2530 1 33.2184189387663 13.149558458038651 -0.39673258781239445 0 0 1
2590 1 22.431434275889828 44.062188785976815 1.3691782816475522 0 -1 1
2671 1 27.246438888313936 41.57255759560428 2.4066516885372327 0 0 1
2670 1 28.565284864010223 44.02386982330276 1.2299725949236582 0 -1 1
2588 1 30.036349064432283 41.682510399766514 -0.3622319825592092 0 0 1
1705 1 1.619162588822068 45.91049168877571 -0.17641807185151615 0 -1 1
1029 1 33.34245004359308 49.00907608577744 22.51346468458729 0 -1 0
1709 1 7.88475716797445 45.36655138254808 -0.22497902436624015 0 -1 1
1834 1 6.701134428837451 47.0574013992325 1.5439043711463791 0 -1 1
1836 1 12.417435090750502 47.17354176812083 1.52881625308226 0 -1 1
1935 1 15.817202435814767 44.291080777814614 1.4341496940215794 0 -1 1
1711 1 13.870272339933923 45.38631340856185 -0.004760414292251436 0 -1 1
1561 1 18.83333435360868 47.168916068713486 1.7213779293677058 0 -1 1
2484 1 20.294884199421944 45.479638171387094 -0.14353186123121986 0 -1 1
2488 1 27.11150119764737 45.8821480197834 -0.21744300886572426 0 -1 1
2491 1 33.31767817201321 45.73515421491899 -0.13390479913460185 0 -1 1
1840 1 3.221442958969891 50.17011390662228 1.5958130290577894 0 -1 1
334 1 14.284613613470803 48.45612897136297 21.988610478703407 0 -1 0
1713 1 4.651781736588012 48.46403029437748 0.10254001460009554 0 -1 1
1842 1 9.577033465777161 50.18290322483875 1.4180908259434304 0 -1 1
1716 1 11.174835242519068 49.01417884078363 -0.30138366721619736 0 -1 1
1844 1 15.561611017496272 50.203617295139466 1.5231943878690213 0 -1 1
1720 1 17.175889912369893 48.62967354101281 -0.09424535070765577 0 -1 1
2596 1 21.98887329647672 50.17388773213389 1.351506458254951 0 -1 1
2592 1 25.345612953735472 47.29116585035756 1.3291616995710926 0 -1 1
2597 1 23.81158881581322 48.870282453804776 -0.11100022643302299 0 -1 1
2599 1 28.377420644802324 50.34462266331013 1.2183576154669422 0 -1 1
2594 1 31.28092650551601 47.62380868259828 1.5106075749295576 0 -1 1
2496 1 30.06124266830777 48.959735552047704 -0.3208337805770099 0 -1 1
2601 1 34.675695290613476 50.291844235906964 1.514691441391408 0 -1 1
2138 1 0.3557058173255956 50.5310377647654 4.683798796538082 0 -1 1
1952 1 3.4042876210071458 2.4145911243786053 4.395954174988467 0 0 1
1846 1 4.771068273109937 0.8689647747255729 3.0698509947024664 0 0 1
1954 1 9.232759968062034 2.2566031647537983 4.855742935927211 0 0 1
1848 1 11.077142756084811 0.7843957189488442 2.980921043381149 0 0 1
1956 1 15.960163302413957 2.470169281522119 4.502858387165823 0 0 1
1851 1 17.37340808601086 0.4389647743475802 2.9600147190805797 0 0 1
2688 1 22.095972874477006 2.1583978299255335 4.674394359260528 0 0 1
2602 1 23.80473907910512 0.8535513904324954 2.816207378987773 0 0 1
2689 1 26.806469160718304 0.5230285086578133 5.790237306819119 0 0 1
2690 1 28.408049882112824 2.4969759396975197 4.545552067110973 0 0 1
2605 1 29.94952129798096 0.8663048023674138 2.8659188101807587 0 0 1
1407 1 0.904627593966581 5.10788539014716 4.415566329852 0 0 1
1957 1 6.521806999473288 5.285627479132805 4.57806049947423 0 0 1
1854 1 8.046462622463974 3.771680911368753 3.1670778928252137 0 0 1
1960 1 12.45232058303969 5.687024678396024 4.308894725082543 0 0 1
1856 1 14.141618417759153 4.012166592781101 3.1522269018420475 0 0 1
2133 1 19.068680846759513 5.190183053760171 4.448156007375996 0 0 1
2692 1 25.492532539739656 5.505516466903812 4.461077842254016 0 0 1
2610 1 26.962316303468775 3.7989322107507553 2.916996583093679 0 0 1
2695 1 31.590349259257692 5.435229434213284 4.648125721169888 0 0 1
2612 1 33.147965677433255 4.0782095195316135 2.995567036934845 0 0 1
1963 1 1.7848362839998135 7.014796852337714 5.583249906730813 0 0 1
1964 1 3.3882739952098633 8.90311156093793 4.758835608484115 0 0 1
1859 1 4.754022240813654 7.056126729507159 3.2520961545120506 0 0 1
1966 1 9.48886003018151 8.754877155483992 4.293686750333139 0 0 1
1968 1 15.887279964144096 8.597052612396404 4.633249574279944 0 0 1
1863 1 17.34455351850151 6.974522839929385 2.9372797298614586 0 0 1
2614 1 23.83808321861026 7.103955616555766 3.196753793601627 0 0 1
2696 1 22.41242344544413 8.688773130895257 4.870634132935368 0 0 1
2699 1 28.54343454679193 8.361393042438772 4.757613451695645 0 0 1
2616 1 30.33923413293677 7.158567053312457 2.7689492349623053 0 0 1
2701 1 34.82395769995988 8.415055437177994 4.729546565573079 0 0 1
1865 1 1.9215224874096248 10.12967049866353 2.886331214439249 0 0 1
2114 1 0.9075127853791866 11.858785924603433 4.280321294627388 0 0 1
1970 1 6.425566358381463 11.911228503696089 4.588010016777436 0 0 1
1867 1 7.877172127856213 10.275725978925987 3.0736014893230323 0 0 1
1869 1 14.590534172897708 9.933601461519162 2.9411619816772814 0 0 1
1972 1 13.061340281871647 11.445858210488073 4.679691223554094 0 0 1
1845 1 18.90885757908161 11.366943479162922 4.4439140016220104 0 0 1
2619 1 20.5320786138153 9.695314148031388 3.291740772318742 0 0 1
2622 1 27.07276450274552 10.233362593612675 3.095592874353839 0 0 1
2703 1 25.858318945730094 11.856745651641795 4.848698295090583 0 0 1
2705 1 31.92419586860411 11.737136917628026 4.430386483510516 0 0 1
1974 1 1.9734603856418167 14.037476548900967 5.5962450836070605 0 0 1
1873 1 4.744661141064688 13.212537671999181 3.2022610590614935 0 0 1
1976 1 8.161760215912736 13.5276826974883 5.772749168263329 0 0 1
1875 1 11.501385469089664 12.970377771147637 2.792295571789531 0 0 1
1977 1 10.155522557791416 14.647505609080119 4.152244197386036 0 0 1
1979 1 15.91212543647299 14.994406216259176 4.318004219456984 0 0 1
1878 1 17.474953109650087 13.39476769767707 3.001715961552878 0 0 1
2707 1 22.166437384933126 14.651957863570772 4.778848213555979 0 0 1
2625 1 23.967001252017024 13.169950018044357 3.373430933749657 0 0 1
2627 1 30.386359966278427 13.469662918357097 3.1612867141247514 0 0 1
2709 1 29.175843539606227 15.043669592519224 4.6110354442097305 0 0 1
2711 1 33.46225029131381 13.271612009278204 5.722885217505059 0 0 1
72 1 0.2850765463733238 5.695920156310434 18.25641571851476 0 0 0
1872 1 1.8831412585493494 16.77383258223259 3.21816797220343 0 0 1
1641 1 0.42583812002073756 18.235853874529038 4.558028947871585 0 0 1
1975 1 3.9514185235118715 15.639569475063333 4.675233950414581 0 0 1
1882 1 8.242478368140198 16.20989169090294 2.865107486891274 0 0 1
1983 1 6.9613129937851825 18.07710332236449 4.50396570197278 0 0 1
1884 1 14.299458375471128 16.454918899322546 2.856866472706517 0 0 1
1985 1 13.119890069362718 18.15325181666998 4.739789375836808 0 0 1
2274 1 19.133081154017262 18.150795319369326 4.823096164040698 0 0 1
2624 1 20.925603864235068 16.597483008324634 3.282827933074617 0 0 1
2714 1 25.485306390464412 17.584826362604165 4.734725253578091 0 0 1
2628 1 27.4009441609779 16.655784121935536 2.9760005601816273 0 0 1
2716 1 31.28168511540322 17.976491224868887 3.9953935837980916 0 0 1
2634 1 33.5294084621389 16.583261437982333 2.9353174581996524 0 0 1
1881 1 5.266991445398191 19.436181530761527 2.971079814030114 0 0 1
1987 1 3.748432302650903 21.33135129064503 4.524675835526716 0 0 1
1891 1 10.975319574562526 19.265243147551356 3.2423856821104464 0 0 1
1990 1 9.91104465294977 21.569916518094853 4.42690581804708 0 0 1
1993 1 15.817781769433182 21.049421872351978 4.655881529796153 0 0 1
1894 1 17.557563517543358 19.566208342532363 3.1125284652296084 0 0 1
2632 1 24.052482932794874 19.28745083771155 2.900522069584617 0 0 1
2718 1 22.467300248320278 21.02693335884467 4.137059290919701 0 0 1
2720 1 28.128157713568775 21.158835785811302 4.434720310120162 0 0 1
2717 1 32.80761262058827 19.69161162823117 5.49592147756071 0 0 1
2722 1 34.624691820637366 21.134331132126192 4.31353365646139 0 0 1
1886 1 1.8152797508199472 22.642166520191342 2.7971619344720664 0 0 1
1485 1 0.6313733073094911 24.301110600678836 4.475714207147074 0 0 1
1997 1 6.4890322555480315 24.757244421241584 4.327008510534191 0 0 1
1890 1 7.989979521736957 22.849370260650822 3.0898142913662263 0 0 1
1999 1 12.679323616112061 24.023426395569615 4.647303430531098 0 0 1
1893 1 14.151016564113348 22.47096931732368 2.856195615008207 0 0 1
2108 1 18.831651335551605 24.47621201484487 4.423827076927206 0 0 1
2637 1 20.205709948169396 22.61426203319155 3.022082965850182 0 0 1
2725 1 25.124095243167496 24.33433202250983 4.415171195783013 0 0 1
2641 1 26.42915059905583 22.426664128311028 3.1031761648135125 0 0 1
2721 1 29.69693455791794 22.488139268037553 5.810303876726538 0 0 1
2727 1 31.26457074146237 24.110067407779233 4.3033394288685445 0 0 1
2643 1 32.948892581051275 22.625106704623075 2.8707798619774807 0 0 1
1898 1 4.87275859327195 26.050707733609816 2.744570065496317 0 0 1
2001 1 3.902324067012696 27.508434122850915 4.722165366730006 0 0 1
2003 1 9.718741949878304 27.670622248955922 4.2909109251780855 0 0 1
1998 1 8.003808792581673 26.16184005518829 5.8692594384413015 0 0 1
1900 1 11.508274110145667 25.94587004006181 2.8077616133477705 0 0 1
2005 1 16.079656400257264 27.57405378565802 4.681060549339801 0 0 1
2730 1 22.09738655688422 27.811345930919238 4.540559640084774 0 0 1
2724 1 20.757002071075195 25.619371961415276 5.862767437495948 0 0 1
2645 1 23.769540294410827 25.9594998312595 3.0764714931534374 0 0 1
2726 1 27.02746534510613 25.971173075116557 5.830006776229595 0 0 1
2732 1 28.606414231929303 27.900196461945438 4.571997584444408 0 0 1
2647 1 29.976460353300485 25.952946335538826 2.792452293426254 0 0 1
2734 1 34.61281982984259 27.54189907611623 4.808317107190132 0 0 1
1903 1 1.959308390911031 29.055371328251564 2.9555887030094885 0 0 1
1655 1 0.5808856146259092 30.69373422709817 4.398368049445957 0 0 1
2009 1 6.44870000316925 30.708025510890455 4.460839163043028 0 0 1
1905 1 7.98462143418266 29.08765970836224 2.9625650254180615 0 0 1
2011 1 12.739664676291143 30.97545505483963 4.770921086373485 0 0 1
1907 1 14.449583479837884 29.272468032519278 3.028618432181491 0 0 1
2649 1 20.61254711759294 29.259043755512582 2.827810628874685 0 0 1
2249 1 19.329085127317153 30.898851366471217 4.660123804190449 0 0 1
2736 1 25.315404807455373 30.874547102989734 5.150013111055205 0 0 1
2651 1 26.772838135388717 29.33293328613408 3.360967161575984 0 0 1
2738 1 31.588898981262275 30.743234695156747 4.678625727736669 0 0 1
2653 1 33.39444941955506 29.164355785700423 3.0597630266100144 0 0 1
2013 1 3.520396651150604 33.61144581621822 4.4542396810259755 0 0 1
2010 1 7.93895478168617 32.624827852219425 5.45945798794764 0 0 1
2015 1 9.597088694110631 34.31158842585869 4.384898739218849 0 0 1
1912 1 10.824836370030152 32.513192600925436 3.119392484459418 0 0 1
1914 1 17.650247139858838 32.54201826239053 3.4010249140330004 0 0 1
2017 1 16.419396562217194 34.19976654198102 5.277889568511981 0 0 1
2655 1 23.587918226796493 32.393914975390814 3.0444869756543786 0 0 1
2740 1 22.397837850091882 34.179346710744255 4.7038252597092205 0 0 1
2742 1 28.58686808461003 33.9507245436571 4.911692630394549 0 0 1
2657 1 29.95871682243233 32.228932351598885 3.2543611305853837 0 0 1
2744 1 34.86755437328805 33.60250056401554 4.546474269303377 0 0 1
1916 1 2.0868739674032284 35.572901295337644 3.2229989878282788 0 0 1
1510 1 0.43149138650791385 37.277411076782926 4.48763824553236 0 0 1
2022 1 6.371866479767091 37.10027036914245 4.482549452347007 0 0 1
1920 1 14.568009860199798 35.07014588286957 2.780214585319227 0 0 1
2024 1 13.115204346469989 36.91035287574891 4.616168292738663 0 0 1
2835 1 19.09916137158562 37.28641901567558 4.977279129830956 0 0 1
2658 1 20.671708677854884 35.64211170715812 3.1841956334760533 0 0 1
2746 1 25.275567656465192 36.82192754252647 4.432889902281173 0 0 1
2660 1 27.31062357511696 35.49478493098361 2.935931653918288 0 0 1
2748 1 31.6923022890004 36.61719230015716 4.521655348344645 0 0 1
2662 1 33.614534666871116 35.05606382503849 2.745446327905719 0 0 1
2021 1 3.2011540588941068 40.140700668226586 4.519834558421537 0 0 1
1923 1 4.6883761949637215 38.65389648965824 2.7682214310094095 0 0 1
2029 1 9.474536547044854 39.479735453865615 4.852855096084156 0 0 1
1925 1 11.162465936860286 38.14119109302125 3.176962842150801 0 0 1
2032 1 16.01607266603994 40.50528109781287 4.61769758806058 0 0 1
1928 1 17.617503121860246 38.824575119998016 3.037778053603112 0 0 1
2664 1 23.754192914750675 38.48536140181041 2.8902484811061204 0 0 1
2750 1 22.591300380959257 40.07873886547277 4.5940034496892865 0 0 1
2747 1 27.317275898589042 38.31044208956277 5.438485505840207 0 0 1
2752 1 28.663936757064334 39.87154614719968 4.199263969741782 0 0 1
2666 1 30.12984467475254 38.13037570672088 2.8561799927912204 0 0 1
2749 1 33.34026576742885 38.21449074864388 5.791612047917825 0 0 1
1930 1 1.7059275087038104 41.81629205113083 3.006930777437368 0 0 1
2027 1 6.564168850215455 43.9856488665246 4.58683145837887 0 -1 1
1933 1 8.265906959703472 41.304165993674374 3.1326337269419375 0 0 1
1934 1 14.495887757350982 41.59280457558326 2.853402100272026 0 0 1
2667 1 20.91998565189894 42.080302826886054 3.2029415396077483 0 0 1
2677 1 25.45364100376365 43.16692164801303 4.15634721762244 0 -1 1
2753 1 29.90486944635302 41.82171061176621 5.783038387607063 0 0 1
2673 1 33.675539147888934 41.6105231488296 2.7174479806033416 0 0 1
2681 1 31.882574932798384 43.0009421876277 4.050046533387646 0 -1 1
1938 1 3.0562402248645846 47.204962096547035 4.45894904399365 0 -1 1
1024 1 34.60220397925731 47.28799551432249 23.745577343355343 0 -1 0
1833 1 5.017728008610609 45.500987228885876 3.0104755339591045 0 -1 1
1940 1 9.565179874655954 46.84613691548111 4.707906902228486 0 -1 1
1835 1 11.189063216711393 45.28238806358037 3.0795620118824347 0 -1 1
1942 1 12.864168268001384 44.19328357474268 4.762469288284582 0 -1 1
1943 1 15.909391547121675 47.06082064035006 4.836162202163591 0 -1 1
1837 1 17.63702588730025 45.40517101809397 3.1826938721009577 0 -1 1
2300 1 19.146327272179064 44.17400838787778 4.686221150285054 0 -1 1
2676 1 21.95089228412711 46.98615760451878 4.412355227044084 0 -1 1
2591 1 24.042902580059764 45.76053557589066 2.916862662689051 0 -1 1
2678 1 26.949686885712023 45.45788902412866 5.860872449895359 0 -1 1
2593 1 30.131141804224697 45.69964616637 3.048226532491814 0 -1 1
2679 1 28.685529205081398 47.28631627197075 4.7674288177731485 0 -1 1
2680 1 32.9651489565287 45.49169153169454 5.788368036269519 0 -1 1
2682 1 34.47570092622457 47.0623456948329 4.245695744938843 0 -1 1
1839 1 1.717482254548091 48.88079494485463 3.3177169184151403 0 -1 1
1946 1 6.16048512268879 50.07408551701387 4.503692734815421 0 -1 1
1945 1 4.492801995980725 48.77526234006763 5.841293691614287 0 -1 1
1841 1 8.329944033227779 48.43883712621539 3.2848413551084903 0 -1 1
1948 1 12.542135301238819 50.34226469043928 4.366854093187209 0 -1 1
1843 1 14.109843495123569 48.61854221853011 3.2736591980487493 0 -1 1
2126 1 18.707565618317542 50.037715346836166 4.674301454226033 0 -1 1
2595 1 20.557633404443052 48.550918761394485 2.9831961821993804 0 -1 1
2684 1 25.40617433869681 50.13255122820192 4.209601268206648 0 -1 1
2683 1 23.8321925452527 48.59045787940936 5.689293871465384 0 -1 1
2598 1 27.270526581075718 48.80749875836602 2.847942586358612 0 -1 1
2686 1 31.67986726481402 50.44007437008307 4.78504703471457 0 -1 1
2600 1 33.010813438496456 48.797071997839055 2.90930029925899 0 -1 1
1951 1 2.021211401778756 1.073118536039308 5.989146769770512 0 0 1
1466 1 0.357587349356003 2.4286397448320245 7.687560540295598 0 0 1
2054 1 6.347486530082968 2.293314237011062 7.652819257463287 0 0 1
1953 1 7.931305624529497 0.3573779888826284 6.183073281063129 0 0 1
2058 1 12.591575368213809 2.3100385002284174 7.389441482622569 0 0 1
1955 1 14.260441281060613 0.6380428446288944 5.904803301159898 0 0 1
1805 1 18.713145948793922 1.9637687764222749 7.980226909590327 0 0 1
2687 1 20.724768730682435 0.7267441846069285 6.545516734841808 0 0 1
2767 1 23.514783220857787 0.32940390974743416 8.969645862433042 0 0 1
2766 1 25.292054537434502 1.76304402243374 7.584305751414628 0 0 1
2768 1 30.357122254201922 0.7903287771704641 9.054826884523695 0 0 1
2691 1 33.595126877024335 0.676088122130877 6.092282507597518 0 0 1
2769 1 32.07203462118018 2.336558623375599 7.47548792578232 0 0 1
2062 1 3.205908723919697 5.6540223788652035 7.76512811489067 0 0 1
1958 1 4.860453225503979 3.75088421269142 6.08474601989448 0 0 1
2063 1 7.90126392378899 3.993838331521255 8.742633998638484 0 0 1
2064 1 9.66267303826751 5.4298389265071485 7.5717183201315175 0 0 1
1959 1 11.246004316169397 4.099096349845694 6.007846378769577 0 0 1
1961 1 17.33996247466992 3.790109319490637 6.209700690919915 0 0 1
2067 1 16.114441997260634 5.641762435955292 7.48727159904841 0 0 1
2770 1 22.215068458617527 5.208759499759235 7.729107814436993 0 0 1
2693 1 23.763610187109116 3.542539585468731 5.969264445188016 0 0 1
2773 1 28.156910766955715 5.226150756101301 7.5026975553214275 0 0 1
2694 1 29.919239693154104 3.7598605590578664 6.023357088739079 0 0 1
1477 1 0.5642852886741231 8.734428860590349 7.433258397331072 0 0 1
1965 1 8.380534945977077 7.104463724514016 5.997428974445988 0 0 1
2070 1 6.793453479000188 8.783307151941887 7.445478696140148 0 0 1
2074 1 12.835261038429616 8.319571159359498 7.782865523398414 0 0 1
1967 1 14.195306550679536 7.050487656164854 5.9784203988021405 0 0 1
2124 1 18.642590328798963 8.157108628057108 7.72888389635925 0 0 1
2697 1 20.676027944622682 6.701012884240598 6.093010879443181 0 0 1
2775 1 25.11287301312947 8.75247582229607 8.177672530051419 0 0 1
2698 1 26.705285938346055 7.052264234097159 6.576122649510107 0 0 1
2779 1 31.293155090615247 8.682789458569449 7.656799261459085 0 0 1
2777 1 29.888690917699556 6.802307442567673 9.078294886240379 0 0 1
2700 1 33.187585241906824 7.311874476647034 6.449922093759865 0 0 1
2077 1 1.619492756451766 10.62093570086091 9.092373243059043 0 0 1
1969 1 4.907048133080411 10.524299420615787 6.533365115546351 0 0 1
1971 1 11.449077375137634 9.936077283573809 6.123722452387031 0 0 1
2080 1 10.150788734767918 11.943971566294932 7.614129797824356 0 0 1
2084 1 15.400137870272447 11.68956244044554 7.9622762138762155 0 0 1
1973 1 16.962993064540974 10.215097728404176 6.507949225125668 0 0 1
2780 1 22.244809845585067 11.855927093767765 8.361700189546102 0 0 1
2702 1 23.77487647715343 10.268933922157066 6.5402623224957575 0 0 1
2783 1 28.361237037714982 11.770899086864176 7.793805665786239 0 0 1
2704 1 29.83943540963564 10.096988547921152 5.924738221150509 0 0 1
2785 1 34.70992502562226 11.878607341400324 7.497010228192281 0 0 1
2784 1 32.953243028717644 10.2386307768816 9.054639324059707 0 0 1
2078 1 2.8607416635486986 12.468061256693737 7.52803639326864 0 0 1
2087 1 5.1948579958463315 13.0461661543817 8.978557759033004 0 0 1
2086 1 7.207327631842156 14.705695542086861 7.703232300185583 0 0 1
2090 1 12.648529805891183 14.931395849714992 7.99801668071801 0 0 1
1978 1 14.365728402945077 13.429658639678692 6.002243582779474 0 0 1
2252 1 19.098585616359205 14.488980233765556 7.6552892230675536 0 0 1
2706 1 20.773489555424717 12.831794153205367 6.294545665018552 0 0 1
2708 1 27.370881396909954 13.634385816228287 6.15716567496079 0 0 1