
# Define the lattice
#
variable	    lattice_constant equal 6.36339
lattice		    diamond ${lattice_constant}
lattice		    diamond 6.36339
Lattice spacing in x,y,z = 6.3633900 6.3633900 6.3633900

# Define region
# multiples of lattice spacing
#
region 		    simbox block 0 9 0 8 0 8

# Create Atoms
#
create_box          1 simbox
Created orthogonal box = (0.0000000 0.0000000 0.0000000) to (57.270510 50.907120 50.907120)
  3 by 1 by 2 MPI processor grid
create_atoms        1 box
Created 4608 atoms
  create_atoms CPU = 0.000 seconds
mass                1 18.015

# Define potential
#
pair_style          sw
pair_coeff          * * /data/emrosky-sim/Freezing_Simulations/Melting/mW_fancy/mW.sw mW
Reading sw potential file /data/emrosky-sim/Freezing_Simulations/Melting/mW_fancy/mW.sw with DATE: 2019-02-27

# Add velocity/set timestep
#
velocity            all create ${TEMP} 120598 rot yes dist gaussian
velocity            all create 273 120598 rot yes dist gaussian
timestep            5.0

# Define output
#
compute	            1 all msd
thermo              100
thermo_style        custom step temp press vol etotal ke pe c_1[4]

# Neighbor lists
#
neigh_modify        delay 0 every 1 check yes

# Set fixes
#
fix                 1 all momentum 10 linear 1 1 1 rescale
fix                 2 all nve
fix                 3 all temp/csvr ${TEMP} ${TEMP} 500.0 928347
fix                 3 all temp/csvr 273 ${TEMP} 500.0 928347
fix                 3 all temp/csvr 273 273 500.0 928347
fix                 4 all press/berendsen iso ${PRES} ${PRES} 1000.0 modulus 20000
fix                 4 all press/berendsen iso -1000 ${PRES} 1000.0 modulus 20000
fix                 4 all press/berendsen iso -1000 -1000 1000.0 modulus 20000

# Run 0.5 ns equilibration
#
dump		    1 all custom 1000 eq.${NAME}.dump id type x y z vx vy vz
dump		    1 all custom 1000 eq.ice_273K_-1000atm_mW.dump id type x y z vx vy vz
run                 100000
Neighbor list info ...
  update every 1 steps, delay 0 steps, check yes
  max neighbors/atom: 2000, page size: 100000
  master list distance cutoff = 6.3065
  ghost atom cutoff = 6.3065
  binsize = 3.15325, bins = 19 17 17
  1 neighbor lists, perpetual/occasional/extra = 1 0 0
  (1) pair sw, perpetual
      attributes: full, newton on
      pair build: full/bin/atomonly
      stencil: full/bin/3d
      bin: standard
Per MPI rank memory allocation (min/avg/max) = 4.778 | 4.778 | 4.778 Mbytes
Step Temp Press Volume TotEng KinEng PotEng c_1[4] 
       0          273   -4578.9852    148418.52   -52804.524    3748.9976   -56553.522            0 
     100     216.0257   -1513.1683    142547.92   -51611.671    2966.5928   -54578.264   0.21046669 
     200    212.45377   -1004.5744    142062.42   -50731.614     2917.541   -53649.155   0.27506827 
     300    225.33312    -967.7513    142231.47   -50162.604    3094.4078   -53257.012   0.28930433 
     400    244.64591   -1008.9883    142428.23   -49773.423    3359.6225   -53133.045   0.26326848 
     500    261.27549    -1021.197    142574.58   -49497.246    3587.9896   -53085.236   0.27239366 
     600    261.79963   -958.33193    142692.33   -49236.197    3595.1874   -52831.385   0.29661236 
     700    271.56323   -946.33462    142729.98   -49165.554    3729.2671   -52894.821   0.24832617 
     800    268.28313   -991.91057    142774.06   -49081.024    3684.2227   -52765.247   0.27769319 
     900    267.86699   -1007.7985    142840.16   -49070.329    3678.5081   -52748.837   0.27288988 
    1000    274.76682      -996.72    142794.88   -49112.914    3773.2606   -52886.175    0.2636487 
    1100    275.65485   -984.53508    142834.61   -49053.553    3785.4555   -52839.009   0.25401343 
    1200    281.38275   -975.58602    142822.61   -49053.929    3864.1144   -52918.044   0.26436431 
    1300    278.10753   -1013.9687    142843.38   -48964.684    3819.1372   -52783.821   0.28481007 
    1400    272.24837   -998.29926    142851.23   -49059.093    3738.6758   -52797.769    0.2509307 
    1500     269.6506   -1030.1409    142808.78   -49091.832    3703.0017   -52794.834   0.27165719 
    1600    273.70073   -986.73415    142805.41   -49029.957    3758.6205   -52788.578   0.28218557 
    1700    270.70419   -1017.3023    142776.53   -49047.631    3717.4701   -52765.101   0.26608546 
    1800    270.78571   -983.71706    142765.93   -49046.755    3718.5896   -52765.344   0.26106339 
    1900    275.70847   -993.62162     142791.7   -48957.556    3786.1918   -52743.747   0.27666899 
    2000    277.58317    -984.1803     142839.3   -48907.994    3811.9365    -52719.93   0.28403977 
    2100    269.68585   -1022.8307     142807.4   -49071.821    3703.4857   -52775.306   0.25212732 
    2200    268.29399   -997.44605    142811.17   -49010.457    3684.3718   -52694.829   0.27545171 
    2300    279.03552    -978.4587     142818.8   -48939.722    3831.8809   -52771.603   0.28412225 
    2400    276.86394   -997.98293     142803.6   -48965.212    3802.0595   -52767.272   0.25720355 
    2500    272.71057   -1031.0562     142804.8   -49005.556     3745.023   -52750.579   0.26826645 
    2600    269.71436   -990.50818    142792.76   -49035.633    3703.8773   -52739.511   0.28997937 
    2700     273.7262    -1014.134    142796.45   -49017.714    3758.9703   -52776.684   0.26789353 
    2800    277.82641   -991.86624    142824.35   -48924.233    3815.2768   -52739.509   0.25115748 
    2900     279.5465   -977.13243    142845.27   -48940.755     3838.898   -52779.653   0.28956922 
    3000    273.61315   -1016.7649    142834.13   -48995.542    3757.4178    -52752.96   0.27567624 
    3100    276.08005   -1002.2913    142858.52   -48976.467    3791.2946   -52767.761   0.24819049 
    3200    274.79717   -992.75835    142831.54   -49078.236    3773.6774   -52851.913   0.27265094 
    3300      272.132   -1026.5355    142763.38   -49143.292    3737.0777   -52880.369   0.27980674 
    3400    278.26378   -982.28687     142772.8   -49077.799    3821.2829   -52899.082   0.25532353 
    3500    277.76924   -998.48852    142762.08   -49035.247    3814.4916   -52849.738   0.26943291 
    3600    275.76338    -971.8247    142797.78   -49042.386    3786.9459   -52829.332   0.28710574 
    3700    272.64126   -1014.3669    142807.09   -49007.559    3744.0712    -52751.63   0.27700719 
    3800    274.49203   -1011.2235    142824.28   -48997.005     3769.487   -52766.492   0.26426253 
    3900    275.17751   -1017.5315    142817.37   -49003.154    3778.9004   -52782.055   0.28439189 
    4000    275.78018   -1002.6027    142795.53   -49039.401    3787.1767   -52826.578   0.27501654 
    4100    269.88894   -1019.6744    142774.91   -49064.513    3706.2746   -52770.787   0.27191091 
    4200     270.5227   -1022.8877     142772.5   -49015.416    3714.9779   -52730.394   0.27258426 
    4300    268.63836   -997.19932    142749.21   -49146.118    3689.1009   -52835.219    0.2792997 
    4400     274.2492   -998.48867     142756.8   -49038.826    3766.1523   -52804.979   0.27851226 
    4500    273.77857    -988.2148    142748.28   -49089.561    3759.6894   -52849.251   0.25774431 
    4600    268.90252   -986.40497    142726.18   -49118.628    3692.7286   -52811.356   0.28784466 
    4700    271.48654   -981.74667    142753.39   -49027.193    3728.2139   -52755.407   0.28328562 
    4800    281.87624   -982.02362    142781.96   -48935.358    3870.8914   -52806.249    0.2602554 
    4900    277.82687   -993.72479     142805.3   -48904.845     3815.283   -52720.128   0.27697955 
    5000    270.62699   -1025.7138    142802.01   -49030.987    3716.4101   -52747.397   0.29008808 
    5100    271.67741   -1006.9351    142777.14   -48958.696     3730.835   -52689.531   0.26016052 
    5200    270.31325   -991.66151     142795.7   -49027.259    3712.1015    -52739.36   0.26348238 
    5300    266.75204   -1012.7864    142757.16   -49121.317     3663.197   -52784.514   0.29688436 
    5400    271.14752   -1013.5519    142748.64   -49099.803    3723.5582   -52823.361   0.26505369 
    5500    273.20975    -1010.037    142750.45   -49062.384     3751.878   -52814.262   0.26061459 
    5600     271.0447   -974.79118    142756.78   -49099.051    3722.1462   -52821.198   0.28645929 
    5700    271.23565   -996.75824    142770.95   -49087.263    3724.7685   -52812.031   0.27284712 
    5800    269.44125   -986.02274    142778.07   -49029.395    3700.1268   -52729.522   0.25657246 
    5900    265.87484   -1005.7908    142780.35   -49109.504    3651.1506   -52760.654   0.27755444 
    6000    271.56286   -985.98788    142733.15   -49085.752    3729.2619   -52815.014   0.28193355 
    6100    268.70333   -1003.4699     142713.8   -49161.092    3689.9932   -52851.085   0.25883471 
    6200    269.17842   -1017.3702    142721.84   -49142.658    3696.5173   -52839.176   0.27841377 
    6300    276.32157   -998.23267    142745.05   -49031.185    3794.6113   -52825.797   0.28749794 
    6400    271.34137   -988.71828    142736.57   -49075.475    3726.2203   -52801.695   0.26375026 
    6500    270.72715   -1016.9025    142723.83   -49086.189    3717.7854   -52803.974   0.27400023 
    6600    272.83326   -991.19527    142719.34   -49093.218    3746.7079   -52839.926   0.27049933 
    6700      267.609   -1014.0695    142702.19   -49137.817    3674.9651   -52812.782   0.28466256 
    6800    271.38665   -1015.1056    142710.01   -49099.869    3726.8421   -52826.711   0.27466612 
    6900    274.24738   -1028.9388    142748.99   -49026.719    3766.1273   -52792.847   0.27322918 
    7000    275.69099   -1013.3055    142751.34   -49027.922    3785.9519   -52813.873   0.28731656 
    7100    267.90657   -992.45222    142738.81    -49033.03    3679.0517   -52712.082   0.27429099 
    7200     267.8447   -1027.0298    142700.52   -49141.508     3678.202    -52819.71   0.27205352 
    7300    268.92794   -1002.7305    142659.16   -49190.044    3693.0777   -52883.122   0.27496604 
    7400     271.1078   -966.85551    142687.35   -49080.179    3723.0127   -52803.192   0.29093719 
    7500    273.54217   -1006.1774    142721.85   -49018.345     3756.443   -52774.788   0.26306773 
    7600    271.83904   -1011.1638    142705.55   -48990.146    3733.0546     -52723.2   0.27851508 
    7700    271.42282   -987.98742    142707.89   -49082.608    3727.3388   -52809.947   0.30147394 
    7800    266.33368   -1004.5011    142684.03   -49139.166    3657.4518   -52796.618   0.25660026 
    7900    269.80475   -1001.2962    142702.47   -49088.914    3705.1185   -52794.032   0.27294324 
    8000    272.38223   -999.09215    142732.75    -48991.02     3740.514   -52731.534   0.30129693 
    8100     274.8673   -1001.1658     142766.3   -48955.432    3774.6405   -52730.072   0.26956002 
    8200    273.76968   -1004.8571    142747.87   -48972.959    3759.5673   -52732.526   0.26560918 
    8300    275.29871   -964.46219    142759.82    -48933.74    3780.5649   -52714.305   0.29087381 
    8400    275.24676   -991.45358    142783.49   -48911.036    3779.8515   -52690.888   0.28122747 
    8500    273.30424   -1000.7337    142740.46   -48997.384    3753.1756   -52750.559   0.25158979 
    8600    271.97602   -1008.7127     142744.5   -49008.806    3734.9357   -52743.741    0.2911545 
    8700    273.66555   -1012.8407    142751.58   -48978.333    3758.1373   -52736.471   0.28259866 
    8800    274.29483   -989.72297    142750.63   -49023.143    3766.7789   -52789.922   0.25166261 
    8900     271.3819   -1021.1473    142711.63   -49086.895    3726.7769   -52813.672   0.27964404 
    9000    273.44951   -985.10703    142736.16   -49018.203    3755.1705   -52773.373   0.28041559 
    9100    275.33977    -1002.742    142742.78   -49062.652    3781.1287   -52843.781   0.26607684 
    9200    276.31598   -998.62323    142799.01   -48964.514    3794.5346   -52759.048   0.26816775 
    9300    268.45713   -1021.4134    142786.46    -49109.74    3686.6121   -52796.353   0.26866912 
    9400     271.1916   -997.81346    142777.01   -49076.972    3724.1635   -52801.136   0.27261284 
    9500    273.02208   -985.91161    142763.68   -49117.174    3749.3009   -52866.474   0.27381274 
    9600    267.34282   -1023.0194    142721.21   -49112.698    3671.3098   -52784.008   0.26315144 
    9700    273.13166   -967.21269    142779.25   -48992.867    3750.8056   -52743.673   0.28016523 
    9800     277.0235   -988.78635     142819.6   -48950.106    3804.2507   -52754.357    0.2751702 
    9900    280.17739   -1004.0491    142802.82   -48977.649    3847.5618   -52825.211    0.2505606 
   10000    268.57905   -988.58241    142798.52   -49029.258    3688.2865   -52717.545   0.27433568 
   10100    275.19563   -976.56119    142806.99    -48984.08    3779.1493   -52763.229   0.28014714 
   10200    276.25817    -1032.229    142849.35   -48963.374    3793.7408   -52757.115    0.2571738 
   10300    273.50059   -1021.1894    142857.42   -48957.252     3755.872   -52713.124   0.26015327 
   10400    274.03239    -1003.167    142847.36   -48964.158    3763.1749   -52727.333    0.2960667 
   10500    274.66232   -1017.4039    142818.68   -49005.714    3771.8256   -52777.539   0.25418715 
   10600    273.71453   -1028.1438    142802.95   -49031.958    3758.8099   -52790.768   0.25512642 
   10700    275.25098   -1008.6248    142754.72   -49049.937    3779.9094   -52829.847   0.30384233 
   10800    265.51417   -1020.8551     142706.4    -49170.05    3646.1977   -52816.247   0.26014953 
   10900    264.98235   -1012.4496    142709.43   -49156.626    3638.8945    -52795.52   0.26376149 
   11000    267.19786   -1000.4127    142687.19    -49168.85    3669.3191   -52838.169    0.2965069 
   11100    273.57335   -997.53573    142685.84   -49082.237    3756.8711   -52839.108   0.27618438 
   11200    265.56597   -1000.4216    142687.91   -49180.116    3646.9091   -52827.025   0.26216162 
   11300    272.47281     -979.405    142676.48    -49100.53    3741.7579   -52842.288   0.28758945 
   11400    272.28306   -953.96023    142685.34   -49078.742    3739.1521   -52817.894   0.28154663 
   11500    273.13545   -972.55597     142703.2   -48982.918    3750.8577   -52733.776   0.26872749 
   11600    277.07091   -977.36223    142779.33   -48981.592    3804.9018   -52786.493    0.2808419 
   11700    279.92184    -996.5295    142817.64    -48849.83    3844.0524   -52693.883    0.2812382 
   11800    278.42885   -1007.0129    142847.64   -48921.765    3823.5498   -52745.314    0.2744826 
   11900    273.15307   -1012.8008    142801.61   -48973.466    3751.0996   -52724.566   0.28272782 
   12000    278.46919   -979.05713    142787.81    -48934.24    3824.1038   -52758.344   0.26282534 
   12100    274.39952   -982.06102    142765.58   -48986.342    3768.2166   -52754.558   0.28217072 
   12200    273.51716   -1040.8656    142760.93   -48990.826    3756.0995   -52746.926   0.28552585 
   12300    271.21289   -976.85417     142745.9   -49045.541    3724.4559   -52769.997   0.25842694 
   12400    272.24253   -975.57158    142743.25   -49040.961    3738.5956   -52779.556   0.28300407 
   12500    280.54074   -1023.5631    142752.42   -48974.046    3852.5515   -52826.597    0.2860861 
   12600    275.70854    -1009.999    142796.98   -48937.326    3786.1929   -52723.519   0.25878546 
   12700    272.82028   -977.20668     142793.8   -49006.567    3746.5296   -52753.097   0.27532105 
   12800    279.04882   -986.42092    142799.89    -48996.76    3832.0636   -52828.823   0.29210563 
   12900    270.43838   -971.21176    142801.75     -49056.3      3713.82    -52770.12   0.25447364 
   13000    274.36274   -992.00616    142807.14   -49034.795    3767.7115   -52802.506   0.26436669 
   13100    270.10443     -1025.22     142785.2   -49107.238    3709.2339   -52816.472   0.29890745 
   13200    269.99803   -1005.3336    142753.33   -49135.451    3707.7727   -52843.223   0.25741967 
   13300     266.0573    -1025.712    142758.41   -49211.412    3653.6563   -52865.068   0.25838858 
   13400    266.62786   -1014.4867    142745.61    -49201.69    3661.4916   -52863.182   0.28998688 
   13500     273.6412   -1015.3353    142756.78   -49115.653     3757.803   -52873.456   0.26057554 
   13600    273.02965   -973.54354    142770.21   -49064.942    3749.4048   -52814.346   0.26204574 
   13700    274.67341   -995.39851    142770.38   -49096.565    3771.9778   -52868.543   0.28237454 
   13800    275.77797   -991.39943    142784.99   -49040.044    3787.1463    -52827.19   0.27451299 
   13900    269.40871   -1017.8806    142765.75   -49034.934    3699.6798   -52734.614   0.25653475 
   14000    276.93607   -960.33779    142817.72    -48927.07      3803.05    -52730.12   0.28751803 
   14100    274.57292   -979.84578    142803.27   -49017.076    3770.5979   -52787.674   0.27690607 
   14200    274.68633   -997.69924    142806.55   -49023.268    3772.1553   -52795.423   0.25476544 
   14300    273.74689   -1005.7898    142777.71   -49052.743    3759.2543   -52811.998   0.28726292 
   14400    268.70218   -1026.1908    142758.33   -49107.278    3689.9774   -52797.256    0.2696064 
   14500    272.99599   -962.47147    142764.13   -49122.902    3748.9425   -52871.845   0.26639312 
   14600    270.16941   -981.50941    142778.35   -49077.916    3710.1263   -52788.042   0.27761808 
   14700     273.6938   -962.78595     142779.4   -49034.203    3758.5252   -52792.728   0.26841267 
   14800    270.15221   -1001.7186    142801.12   -49006.826      3709.89   -52716.716   0.28135941 
   14900    272.35985   -997.99859    142781.42   -49018.365    3740.2067   -52758.572   0.27913346 
   15000    272.76997   -1055.8609    142712.02   -49075.857    3745.8387   -52821.695   0.27579814 
   15100    270.99055   -991.95595    142720.28   -49092.328    3721.4026    -52813.73   0.27615689 
   15200    273.52608    -1001.758     142736.3    -49022.99     3756.222   -52779.212   0.28707348 
   15300    272.59991   -999.93379    142718.51   -49103.751    3743.5033   -52847.255   0.26741561 
   15400    274.98067   -1012.2538     142706.7   -49098.738    3776.1973   -52874.935   0.27118394 
   15500    270.24176   -992.85856    142712.47   -49031.853    3711.1198   -52742.972   0.29784274 
   15600    274.78034   -963.24914    142785.48    -48922.19    3773.4463   -52695.637   0.26007245 
   15700    273.31184   -999.56881    142808.98   -48937.392      3753.28   -52690.672   0.27634017 
   15800    275.45197   -1014.3389    142826.77   -48943.097    3782.6695   -52725.767    0.3016975 
   15900    276.13677   -1026.5735    142827.57    -48960.96    3792.0736   -52753.034   0.25866531 
   16000    269.57421   -1047.9641    142813.93   -49006.836    3701.9526   -52708.788   0.27830252 
   16100    273.25881   -967.16527     142753.3   -49033.937    3752.5518   -52786.489   0.29756624 
   16200    272.23892   -1040.7974    142771.05   -49046.896    3738.5461   -52785.442   0.26507739 
   16300    277.02739   -984.53361    142792.64   -49070.831    3804.3041   -52875.135   0.26070793 
   16400    270.44316   -1008.9063    142776.39   -49077.012    3713.8856   -52790.897   0.29334302 
   16500    275.94781   -1001.4591     142796.5   -49003.402    3789.4787   -52792.881   0.26358581 
   16600    279.61936   -1019.4532    142831.54   -48928.848    3839.8986   -52768.746   0.26110005 
   16700    275.26689   -964.53883    142812.31   -48965.078    3780.1279   -52745.205   0.28383748 
   16800    275.35892   -986.41738    142788.62   -49016.097    3781.3916   -52797.489   0.27147048 
   16900    276.40047   -998.98357    142802.02   -49040.763    3795.6949   -52836.458   0.25726027 
   17000    272.05965   -1003.1021    142790.64   -49088.855    3736.0842   -52824.939   0.27838617 
   17100     277.9768   -986.88681    142796.81   -49042.233    3817.3419   -52859.574   0.27180144 
   17200    278.24019   -975.43127    142789.37   -49101.873     3820.959   -52922.832   0.26073177 
   17300     267.3814   -1027.3559    142783.37   -49192.897    3671.8396   -52864.737   0.27527994 
   17400    267.22385   -999.11745    142760.94   -49182.378    3669.6761   -52852.054   0.26652491 
   17500    270.36764   -1000.2644    142801.18   -49092.924    3712.8485   -52805.772   0.27134698 
   17600    273.74681   -1008.7763    142773.37   -49094.613    3759.2532   -52853.866   0.27068237 
   17700    270.57604   -1033.0452    142745.98    -49151.18    3715.7103   -52866.891   0.26366172 
   17800    270.11004   -977.68288    142736.62   -49100.163    3709.3109   -52809.474   0.28323835 
   17900    274.19212   -973.77304    142786.22   -49045.256    3765.3685   -52810.624   0.27219558 
   18000     277.5915   -951.03265    142802.94   -48963.979    3812.0508    -52776.03   0.25626466 
   18100    270.27726   -1031.4344    142803.23   -48964.035    3711.6073   -52675.642    0.2898804 
   18200    273.16967    -944.9846    142817.92   -49012.625    3751.3276   -52763.952   0.27405855 
   18300    272.68679   -982.79887    142817.67    -49022.29    3744.6963   -52766.986   0.25178566 
   18400    273.02058   -1009.3763    142791.46   -49110.277    3749.2802   -52859.558   0.27026768 
   18500    272.12603   -965.26393    142767.17   -49049.603    3736.9958   -52786.599   0.29151275 
   18600    270.07155   -1001.9051    142803.96    -49006.61    3708.7824   -52715.392   0.25832636 
   18700    275.32994   -1002.2009    142808.66   -49025.183    3780.9938   -52806.177   0.26751821 
   18800    271.63487   -1026.5688    142811.26   -49044.713    3730.2508   -52774.964   0.29176604 
   18900    272.57745   -1006.6573     142823.2   -49010.127    3743.1949   -52753.322    0.2582789 
   19000    268.92685   -1018.8707    142816.77   -49031.419    3693.0627   -52724.481   0.26730025 
   19100    274.46457   -982.69097    142837.98   -48950.968    3769.1099   -52720.078   0.28688339 
   19200    276.24083   -1002.4433    142820.59   -48976.555    3793.5026   -52770.058   0.27057852 
   19300    274.95235   -985.25544    142839.76   -48869.785    3775.8085   -52645.594   0.26167351 
   19400    275.23555   -996.22792     142851.1    -48939.11    3779.6975   -52718.808   0.28027608 
   19500    277.37999   -996.55593    142834.05   -48930.207    3809.1461   -52739.353   0.27642914 
   19600    274.11149   -976.04463    142836.34   -48918.171    3764.2613   -52682.432    0.2596392 
   19700     275.0846   -1008.1343    142847.56   -48970.293    3777.6246   -52747.917    0.2763185 
   19800    277.28547   -991.17773    142843.41   -48924.671    3807.8482   -52732.519   0.27756446 
   19900    272.78811   -1065.8422    142843.02   -49003.972    3746.0879    -52750.06   0.27188016 
   20000     271.9659   -1021.7915    142798.51   -49027.606    3734.7967   -52762.402   0.26990825 
   20100    270.84349   -1052.2185    142782.28   -49076.816    3719.3831   -52796.199   0.27764741 
   20200    272.06165   -993.82437    142756.54   -49042.483    3736.1116   -52778.595   0.28141082 
   20300     277.2988    -987.0939     142777.3   -49016.125    3808.0313   -52824.156   0.26290057 
   20400    272.43131   -1026.8069    142781.96   -49068.467     3741.188   -52809.655   0.27602991 
   20500    269.55567   -1019.4921    142748.48   -49106.305    3701.6981   -52808.003     0.279103 
   20600    268.81472   -1016.3506    142731.09    -49125.26    3691.5228   -52816.782   0.27387652 
   20700    269.12399   -993.48351    142739.44   -49071.053      3695.77   -52766.823   0.26962005 
   20800    278.54098   -975.05347     142779.3   -48942.732    3825.0896   -52767.822   0.27726539 
   20900    276.02345   -1000.5708    142777.17   -49039.674    3790.5174   -52830.192   0.28555369 
   21000    271.92729   -1043.4269    142777.68   -49053.402    3734.2665   -52787.669   0.25799656 
   21100    276.55531   -1012.0962    142805.16   -48938.783    3797.8212   -52736.604   0.28547623 
   21200    275.16806   -1010.3936    142801.51   -48958.097    3778.7707   -52736.868   0.28684738 
   21300    280.28621   -995.13504    142799.59   -48951.862    3849.0561   -52800.918    0.2559571 
   21400    277.43712   -992.49211    142778.47   -48985.839    3809.9308    -52795.77   0.27135555 
   21500    277.02012    -972.3286    142786.05   -48899.346    3804.2043    -52703.55   0.29058368 
   21600    276.41773   -1020.2407    142780.05   -48904.429    3795.9318   -52700.361   0.27213506 
   21700    268.39474    -1027.421    142774.78     -49030.8    3685.7555   -52716.556     0.266031 
   21800    272.49766   -1016.7256    142730.42   -49061.087    3742.0992   -52803.187    0.2908346 
   21900    270.24061   -1006.1861    142748.46   -49036.995     3711.104   -52748.099   0.27407023 
   22000    277.11242   -964.66262    142720.11   -49064.962    3805.4718   -52870.434   0.25596451 
   22100    272.79549   -1030.8583    142721.37   -49110.483    3746.1891   -52856.672   0.29357777 
   22200    269.91784   -1034.9145    142689.16   -49189.994    3706.6716   -52896.665    0.2752096 
   22300    271.52018      -1006.6    142689.09   -49081.411    3728.6758   -52810.086   0.26947101 
   22400    272.84532   -991.24993    142708.23    -49023.61    3746.8734   -52770.483   0.28903073 
   22500    273.19336   -973.73948    142702.44   -48975.494     3751.653   -52727.147   0.28213636 
   22600      271.125   -993.11833    142658.21   -49007.219     3723.249   -52730.468   0.28421196 
   22700    271.25646   -1040.2269    142632.89   -49064.879    3725.0542   -52789.933   0.28338421 
   22800    276.25002   -1006.6964    142654.49   -48991.746    3793.6288   -52785.374   0.28798641 
   22900    276.90071    -980.6475    142707.09   -49031.529    3802.5645   -52834.093   0.27543734 
   23000    271.58234   -1008.8619    142700.47   -49097.116    3729.5294   -52826.646   0.27274004 
   23100    269.76694   -1020.8855    142729.22   -49045.054    3704.5993   -52749.654   0.27532862 
   23200    275.80112   -995.83269    142735.09   -48995.108    3787.4643   -52782.572   0.28373272 
   23300    274.01356   -985.53676    142738.21   -48995.496    3762.9163   -52758.412   0.27887285 
   23400    275.79512   -1019.3946    142720.29   -49043.467    3787.3818   -52830.849   0.26837968 
   23500    277.33424    -959.3642    142750.06   -48932.223    3808.5179   -52740.741   0.28617572 
   23600    274.97354   -1021.2019    142791.53   -48953.349    3776.0994   -52729.449   0.27532592 
   23700    274.73957   -1027.7551    142764.01    -48942.94    3772.8864   -52715.827   0.27631956 
   23800    274.27527   -1023.9668    142762.12   -48951.022    3766.5103   -52717.532   0.28365823 
   23900    272.89827   -1063.4758    142734.83     -49037.7    3747.6005   -52785.301   0.29001068 
   24000    273.43251   -997.55019    142744.27   -48982.874    3754.9371   -52737.811   0.26775752 
   24100    275.31216   -990.50973    142812.54   -48920.403    3780.7496   -52701.152   0.26978285 
   24200    273.19105   -1000.0949    142803.09   -49041.216    3751.6212   -52792.838    0.2926549 
   24300    270.37424   -1020.3233    142766.69   -49081.131    3712.9391    -52794.07   0.26093602 
   24400    272.79911   -1026.3872    142750.71   -49108.442    3746.2388   -52854.681   0.27626236 
   24500    272.12995   -971.99966    142748.25    -49065.28    3737.0496    -52802.33   0.28980687 
   24600    271.07085   -1009.2746    142703.84    -49107.37    3722.5053   -52829.875   0.26786346 
   24700    271.88229   -1005.1372    142703.65   -49111.294    3733.6485   -52844.942    0.2691814 
   24800    278.58377     -950.538    142729.89   -49056.842    3825.6772   -52882.519   0.27779126 
   24900    269.81406   -1029.6322    142701.31   -49107.744    3705.2464    -52812.99   0.28719192 
   25000    271.69784   -1018.0931    142738.94   -49094.066    3731.1156   -52825.182   0.26302474 
   25100    266.63607   -1003.6036    142706.82   -49142.945    3661.6043   -52804.549   0.28731968 
   25200     262.8595   -1033.1918     142658.8   -49271.515    3609.7423   -52881.257   0.28566152 
   25300    272.28575   -966.06562    142694.83   -49118.421    3739.1891    -52857.61   0.26470398 
   25400    267.64924   -1005.4203     142713.4   -49152.822    3675.5178    -52828.34   0.27697592 
   25500    272.00977   -992.07827    142724.14   -49042.085    3735.3991   -52777.484   0.28030403 
   25600    276.06797   -991.68978    142755.51   -48966.589    3791.1288   -52757.717   0.27905111 
   25700    266.74403   -1022.6437     142760.4   -49058.218    3663.0869   -52721.305   0.27112846 
   25800    278.64684   -992.91427    142800.47   -48923.876    3826.5433   -52750.419   0.27921072 
   25900    278.57144   -984.81575    142793.51   -48944.561    3825.5079   -52770.069     0.280793 
   26000    274.55625   -1016.9202    142739.65   -48990.539     3770.369   -52760.908   0.27421074 
   26100     272.6931   -1024.1049     142755.7   -48973.097    3744.7831    -52717.88   0.28211509 
   26200    268.77093   -1008.1412    142733.11   -49076.621    3690.9215   -52767.543   0.27955881 
   26300    277.26107   -988.80263    142724.68   -49039.092    3807.5132   -52846.605   0.27679964 
   26400    269.55469   -1047.8532     142693.6    -49091.16    3701.6846   -52792.845   0.27186444 
   26500    269.24171    -1061.079    142689.46   -49004.057    3697.3866   -52701.443   0.29438551 
   26600    271.89871   -991.48378       142728   -48954.303     3733.874   -52688.177   0.29080752 
   26700    280.93351   -966.42908    142741.74   -48955.683    3857.9453   -52813.628   0.25801897 
   26800    274.39162   -998.36331    142744.13   -49000.911    3768.1082   -52769.019   0.27812986 
   26900    276.64587   -974.66925    142756.21   -48945.924    3799.0649   -52744.989   0.28173671 
   27000    280.56343    -1011.401     142764.3    -48977.64    3852.8631   -52830.503   0.26489453 
   27100     273.1017   -984.80032     142756.1   -48919.909    3750.3943   -52670.303   0.27237704 
   27200    269.87478   -987.63131    142761.49   -48988.429    3706.0802   -52694.509   0.29497486 
   27300    278.08009   -1020.2064     142783.3   -48831.537    3818.7604   -52650.297   0.27737408 
   27400    273.69274   -1003.1407    142805.13    -48946.21    3758.5107   -52704.721   0.25676055 
   27500    269.11031   -998.96961    142779.57   -49048.284     3695.582   -52743.866   0.29612626 
   27600    271.42079   -1004.7655    142744.16    -49101.19    3727.3109     -52828.5   0.26559563 
   27700    274.92502   -992.76763    142742.63   -49000.459    3775.4331   -52775.892   0.26165077 
   27800    279.40863   -1005.9747    142784.74   -48978.151    3837.0046   -52815.156   0.27890825 
   27900    272.75421    -998.6993    142774.88   -49036.588    3745.6223    -52782.21   0.27268243 
   28000    269.51629   -1000.1851    142734.11   -49109.446    3701.1573   -52810.603   0.26228285 
   28100    270.43671   -990.29475    142732.93   -49086.684    3713.7969   -52800.481   0.26411006 
   28200    270.52735    -1012.164    142741.96   -49054.555    3715.0417   -52769.596   0.28985347 
   28300    273.99917   -1000.1014     142744.3   -49076.774    3762.7187   -52839.493   0.26400194 
   28400    274.95612   -992.51339    142745.35   -49008.855    3775.8602   -52784.715    0.2694709 
   28500    270.39659   -1007.6267    142737.44   -49039.612    3713.2461   -52752.858   0.28581674 
   28600    273.89756   -1007.9887    142735.11   -49040.871    3761.3234   -52802.195   0.26438667 
   28700    271.41525   -996.44187    142756.55   -49042.689    3727.2348   -52769.924    0.2766981 
   28800    272.56515   -987.10639    142729.86    -49083.35     3743.026   -52826.376   0.26562976 
   28900    269.50499   -1018.4853    142740.38   -49058.125    3701.0021   -52759.127   0.28749904 
   29000    272.08772   -1029.4216    142735.14   -49008.052    3736.4696   -52744.522   0.28423636 
   29100    275.65612   -1019.5894     142741.3   -49005.259     3785.473   -52790.732   0.26435168 
   29200    277.21743   -1000.1131    142782.66    -48938.51    3806.9138   -52745.424   0.28525955 
   29300    277.91187   -995.74689    142777.11   -48938.028    3816.4503   -52754.479   0.27633538 
   29400    270.24816   -1011.3049    142756.32   -48954.597    3711.2078   -52665.805   0.26586444 
   29500    269.96583   -1047.1376    142750.15   -48997.566    3707.3305   -52704.896   0.27371956 
   29600    274.24215    -1026.211    142769.18   -48964.201    3766.0556   -52730.257   0.29565499 
   29700    273.67909   -1002.4946    142741.34   -49035.615    3758.3232   -52793.938   0.26304038 
   29800    266.84636   -1025.5564    142702.03   -49124.448    3664.4921    -52788.94   0.26845742 
   29900    269.75507   -1005.8357    142712.14   -49110.277    3704.4363   -52814.714   0.30111728 
   30000    272.81793   -969.08036    142714.62   -49075.709    3746.4973   -52822.206   0.25822718 
   30100    271.84403   -1003.0108    142717.69    -49045.23    3733.1232   -52778.353    0.2673844 
   30200    278.11045   -982.18943    142735.59   -49056.768    3819.1773   -52875.946   0.29364301 
   30300    276.93285   -963.55189    142735.96    -49044.75    3803.0058   -52847.756   0.26933434 
   30400    275.16686   -986.79981    142742.67   -49077.855    3778.7542   -52856.609   0.25844392 
   30500    264.46258   -1032.1552    142700.34   -49167.445    3631.7567   -52799.202   0.28823231 
   30600    270.80387   -990.34115    142696.61    -49052.69     3718.839   -52771.529   0.28299706 
   30700    273.18423   -982.84677    142752.13   -49088.309    3751.5276   -52839.837   0.25474958 
   30800    274.88551   -999.80985    142748.93    -49021.49    3774.8905   -52796.381   0.28017192 
   30900    272.37187   -992.13054    142776.73   -48994.777    3740.3718   -52735.149   0.28493343 
   31000    275.62407   -1016.6617    142730.66   -49031.409    3785.0328   -52816.442   0.26756668 
   31100    270.77596   -1020.6682    142745.53   -49040.694    3718.4558    -52759.15   0.28025186 
   31200    274.14716   -970.99916    142750.75    -48989.97     3764.751   -52754.721   0.28053643 
   31300    279.71651   -986.61789    142792.92   -48930.145    3841.2326   -52771.378   0.27490245 
   31400    274.91909   -1025.3593    142782.56    -49038.53    3775.3517   -52813.882   0.26754104 
   31500    273.23219     -969.919    142793.87   -48992.995    3752.1862   -52745.181     0.279747 
   31600    273.43717   -1004.6135    142756.75   -49013.531    3755.0011   -52768.532   0.28004877 
   31700    276.77076   -1019.6213    142751.04   -48987.152    3800.7799   -52787.932   0.27699146 
   31800    275.77636   -1012.5864    142754.99   -49044.862    3787.1242   -52831.986   0.27254956 
   31900    271.91068   -1002.9768     142738.4   -49039.359    3734.0384   -52773.397   0.28159941 
   32000    275.43123   -980.77183    142762.34   -48994.106    3782.3846   -52776.491   0.28282236 
   32100    276.30532    -972.1013    142763.41   -49026.822    3794.3883    -52821.21   0.25983214 
   32200    270.03734   -1004.5569    142757.92   -49142.962    3708.3126   -52851.274   0.27106927 
   32300    267.96307   -1027.3841    142738.83   -49085.318    3679.8275   -52765.145   0.29073681 
   32400    270.06133   -1014.8871    142726.15     -49169.7     3708.642   -52878.342    0.2560297 
   32500    273.64156   -988.89012    142761.75   -49037.635    3757.8079   -52795.443   0.27067674 
   32600    272.36619   -992.34269     142784.2   -48997.647    3740.2937   -52737.941   0.28760837 
   32700    272.92141   -1015.9908    142780.47   -49088.787    3747.9184   -52836.706   0.26733169 
   32800    270.97542   -982.35377     142806.5   -48961.056    3721.1949   -52682.251   0.26293272 
   32900    272.99909    -1016.973    142808.17   -49033.169     3748.985   -52782.154   0.28709035 
   33000    270.99992   -1026.0126    142786.77    -49017.75    3721.5313   -52739.281   0.27683577 
   33100    275.36269   -977.83691    142765.98   -49050.833    3781.4435   -52832.276    0.2455542 
   33200    272.20123   -1017.4513    142752.85   -49028.744    3738.0283   -52766.772   0.29434614 
   33300    274.14636    -1006.671    142751.03    -49029.14    3764.7401    -52793.88   0.27733168 
   33400      273.028   -1022.1364    142725.93    -49047.66     3749.382   -52797.042    0.2583969 
   33500    269.59697   -986.52399     142718.4   -49068.735    3702.2651       -52771   0.28101696 
   33600    269.85647   -1012.1137    142761.84   -49086.654    3705.8288   -52792.483   0.28190617 
   33700    274.55213   -979.04149    142779.78   -48987.101    3770.3124   -52757.413   0.26470846 
   33800    275.38476   -986.74887    142835.42   -48892.771    3781.7465   -52674.518   0.27155021 
   33900    276.74117   -1012.8209    142826.16   -48915.097    3800.3736    -52715.47   0.28408141 
   34000    271.82669   -1025.0068    142784.67   -49049.273    3732.8851   -52782.158   0.26549678 
   34100    273.71366   -1010.2572    142784.19   -49067.235     3758.798   -52826.033   0.26887627 
   34200     273.7121   -1002.4444    142768.77   -49063.705    3758.7766   -52822.482   0.27150178 
   34300    272.21675   -973.35597    142755.36   -49102.051    3738.2415   -52840.293    0.2769764 
   34400    275.52828   -977.59021    142752.07   -49030.477    3783.7174   -52814.194   0.27117577 
   34500     272.4491   -1008.5014    142814.83   -48955.823    3741.4323   -52697.255   0.26378436 
   34600    273.81489   -982.64977    142847.51   -48954.652    3760.1882    -52714.84   0.28019433 
   34700    274.70515   -1002.1672    142800.04   -49064.849    3772.4138   -52837.263   0.26515204 
   34800    266.75332   -987.75635    142792.02   -49058.466    3663.2144    -52721.68   0.26163294 
   34900    274.40884   -984.05031    142803.31   -49042.481    3768.3446   -52810.825   0.26965596 
   35000    269.15183   -985.79542    142764.82   -49015.862    3696.1522   -52712.014   0.28354484 
   35100     268.8764   -966.74716    142788.35   -49030.864    3692.3699   -52723.234   0.25908459 
   35200    272.79622   -993.23308    142764.08   -48969.529    3746.1991   -52715.728   0.27648755 
   35300    271.21411   -1032.4802    142751.94   -49043.789    3724.4727   -52768.262   0.29263462 
   35400    271.14027   -983.92034    142755.15   -49046.692    3723.4587    -52770.15   0.25664695 
   35500    271.43292   -1001.0869     142739.3   -49030.461    3727.4775   -52757.938   0.27116077 
   35600    271.90948   -975.26345    142746.72   -49003.552    3734.0219   -52737.574    0.2913332 
   35700    273.08897   -1016.4465    142757.03   -49018.504    3750.2194   -52768.724   0.26441514 
   35800     281.0823   -1000.6618    142814.51   -48864.031    3859.9886    -52724.02   0.26683759 
   35900    274.65392   -1005.6021    142860.39   -48977.129    3771.7101   -52748.839   0.27745404 
   36000    271.58422   -989.02468    142805.76   -49031.013    3729.5552   -52760.568   0.26900545 
   36100    276.49558   -991.61137    142811.87   -49077.322    3797.0009   -52874.323   0.25328189 
   36200    268.71109   -1067.9619    142773.93   -49106.224    3690.0997   -52796.324   0.28324742 
   36300    271.46634   -1012.8287    142754.41   -49044.398    3727.9365   -52772.334   0.27724058 
   36400      271.906   -986.44611    142762.33    -49096.97    3733.9741   -52830.945   0.26461191 
   36500    273.36078   -998.47178    142768.48   -49067.995     3753.952   -52821.947   0.27167105 
   36600    269.07821   -1021.0107    142761.98   -49064.582    3695.1413   -52759.723   0.27564936 
   36700    275.03783   -1001.4087    142747.29   -49102.132    3776.9823   -52879.114   0.27236074 
   36800    266.63112   -1006.2439    142728.69   -49174.887    3661.5363   -52836.424   0.27151836 
   36900    273.47253   -973.43075    142739.98   -49101.901    3755.4867   -52857.388   0.27151752 
   37000    271.85508   -983.95725    142743.55   -49084.963    3733.2749   -52818.238   0.27519421 
   37100     267.7695   -971.79065    142759.34   -49130.337    3677.1692   -52807.507   0.26789494 
   37200    269.00425   -1019.4929    142734.96   -49131.215    3694.1257   -52825.341    0.2664201 
   37300    267.53768   -1015.0643    142751.18   -49125.475    3673.9857   -52799.461   0.28067909 
   37400    273.40412   -982.61932    142734.28   -49138.264    3754.5472   -52892.811   0.27394976 
   37500    271.89307   -986.28958    142731.05   -49108.118    3733.7966   -52841.914   0.25981655 
   37600    270.33148   -1030.8032    142749.95   -49160.377    3712.3519   -52872.728   0.27534146 
   37700    269.07723   -997.86103    142705.16   -49234.215    3695.1278   -52929.343   0.27538599 
   37800     266.5357   -993.94282    142651.28   -49247.056     3660.226   -52907.283   0.25820478 
   37900    268.12602   -1026.2421    142675.91   -49155.536    3682.0652   -52837.601   0.28693873 
   38000    273.23929   -1009.8376    142753.89   -49098.695    3752.2836   -52850.978   0.28360968 
   38100    269.60884   -972.20789    142748.11     -49040.5    3702.4282   -52742.928   0.26406321 
   38200    272.44823   -1012.9972    142772.55   -49004.714    3741.4203   -52746.134   0.27611511 
   38300    270.11188   -981.37282    142792.13   -49052.622    3709.3362   -52761.958   0.28683701 
   38400    274.95785   -990.72161    142805.37   -48990.403     3775.884   -52766.287   0.26377334 
   38500    271.91849   -1028.0414    142795.08   -49047.665    3734.1456    -52781.81   0.26291221 
   38600    278.83999   -1000.9861    142813.47   -49015.777    3829.1957   -52844.973   0.28792732 
   38700    275.46021   -1004.6831    142827.85   -48981.043    3782.7826   -52763.825   0.26275769 
   38800    273.93304    -993.2289    142799.43   -49013.619    3761.8106    -52775.43   0.26647414 
   38900    277.70822   -1008.0086    142825.13   -48957.262    3813.6536   -52770.916    0.2852497 
   39000    273.84167   -1003.0478    142802.59   -49006.504    3760.5559   -52767.059   0.26641791 
   39100    271.92341    -1017.479    142769.78   -49032.971    3734.2132   -52767.184   0.26844202 
   39200    271.55074   -1028.9932    142753.92   -49156.035    3729.0954    -52885.13   0.27822313 
   39300    269.27555   -967.50628    142724.36   -49170.238    3697.8512    -52868.09   0.27148465 
   39400    272.41228   -1006.7022    142756.83   -49050.551    3740.9267   -52791.478   0.26630802 
   39500    270.89473   -1019.9944    142750.76   -49030.846    3720.0867   -52750.933   0.28335798 
   39600    272.21848   -980.92426    142771.59   -49024.211    3738.2652   -52762.476   0.27234852 
   39700    272.14988    -999.6922     142769.6   -49006.463    3737.3232   -52743.786   0.27572108 
   39800     274.5671   -1008.8996    142748.46   -49030.119    3770.5179   -52800.637   0.28130412 
   39900    276.43585   -1009.5279    142741.38   -48996.437    3796.1808   -52792.618   0.26873311 
   40000    273.73548   -1005.4096    142736.45   -49063.059    3759.0976   -52822.156   0.27887665 
   40100    273.36563   -1019.4341    142735.28   -49072.809    3754.0186   -52826.827   0.27873496 
   40200    273.16832   -976.51882    142750.22   -49047.087    3751.3091   -52798.396   0.25523859 
   40300    273.69316   -1015.6217     142746.5   -49061.994    3758.5165   -52820.511     0.286683 
   40400    270.33497   -1022.2442    142728.69   -49140.782    3712.3998   -52853.182   0.27461336 
   40500    278.42275   -958.22642    142757.97   -49010.373     3823.466   -52833.839   0.25752777 
   40600    272.97828   -1004.8365    142780.24   -49076.689    3748.6993   -52825.388   0.27485716 
   40700    269.43809   -990.62161    142763.76   -49081.255    3700.0834   -52781.338   0.28239557 
   40800    271.39669   -1037.7247    142767.55   -49064.194      3726.98   -52791.174   0.26031417 
   40900    272.82978   -1000.6582    142738.58   -49048.277    3746.6601   -52794.937   0.27271528 
   41000    268.98979   -1011.4349    142735.47   -49113.397     3693.927   -52807.324   0.29269824 
   41100     274.6455   -1021.5086    142708.91   -49083.213    3771.5946   -52854.808   0.25903552 
   41200    277.87865   -996.63219     142718.1   -48973.121    3815.9941   -52789.115   0.27567759 
   41300    273.35723   -979.21747    142718.99    -49052.02    3753.9033   -52805.923    0.2877622 
   41400    275.01685   -992.11498    142724.97   -48993.839    3776.6942   -52770.534   0.26663074 
   41500     270.0778   -1015.5062    142740.47    -49009.89    3708.8682   -52718.758   0.27311808 
   41600    275.10346   -958.24066    142718.21   -49015.277    3777.8835   -52793.161   0.28159037 
   41700    273.12045   -1043.5466    142672.72   -49118.841    3750.6517   -52869.493   0.27415862 
   41800    273.66987    -969.7572    142725.45   -49039.873    3758.1967    -52798.07   0.26554331 
   41900    266.43581    -1025.567     142680.4   -49110.547    3658.8542   -52769.401   0.27835058 
   42000    270.50212   -1021.2969    142698.61    -49089.44    3714.6952   -52804.135   0.28471063 
   42100    272.04968   -1017.5911    142682.65   -49155.922    3735.9473   -52891.869   0.27056912 
   42200    270.52507   -991.80062    142707.41   -49116.673    3715.0104   -52831.683   0.27003316 
   42300    273.39938    -989.0959    142714.92    -49081.27    3754.4821   -52835.752   0.26938247 
   42400    264.81074   -1003.5377    142728.08   -49103.776    3636.5378   -52740.314   0.27455369 
   42500    266.96006   -1035.1513    142709.72   -49068.112    3666.0535   -52734.166    0.2775664 
   42600    275.42743    -1007.512    142725.17   -49104.576    3782.3325   -52886.908   0.26800748 
   42700    274.66797   -990.07359    142729.07    -49166.41    3771.9032   -52938.313    0.2784269 
   42800     268.8972   -997.77134    142750.86   -49086.388    3692.6555   -52779.044    0.2663305 
   42900    270.15026   -1017.1051    142724.94   -49107.354    3709.8633   -52817.217   0.26352535 
   43000    272.97238   -997.26398    142743.65   -49128.076    3748.6182   -52876.694   0.27791466 
   43100    273.53662   -1003.2344    142743.85    -49048.25    3756.3667   -52804.617   0.27644215 
   43200    271.48094   -991.07417    142744.83   -49059.378     3728.137   -52787.515   0.25960448 
   43300    270.31031   -1011.4793     142737.2   -49059.651    3712.0612   -52771.712   0.27914987 
   43400    273.65565   -1024.2828    142791.25   -48997.293    3758.0014   -52755.294   0.28043615 
   43500    274.07451   -1050.9385    142803.43   -49051.621    3763.7534   -52815.375   0.25515799 
   43600    269.03842   -1018.5508    142756.36   -49092.323    3694.5949   -52786.917   0.26850207 
   43700     265.5914   -998.45356    142742.89   -49134.196    3647.2584   -52781.455   0.28678134 
   43800    269.21762    -994.1795    142746.45   -49171.321    3697.0557   -52868.377   0.25535141 
   43900    274.01616   -950.05869    142783.48    -49089.82    3762.9521   -52852.773   0.25791563 
   44000    266.78694   -1040.5821    142749.96   -49169.518    3663.6761   -52833.194   0.28365133 
   44100    270.42425   -990.10264    142759.35   -49130.024    3713.6258    -52843.65   0.25950258 
   44200    274.17009   -960.28078    142796.75   -49084.223     3765.066   -52849.289   0.25277679 
   44300    271.56729   -999.16807    142787.99   -49088.202    3729.3228   -52817.525   0.27362059 
   44400    275.04139   -1010.6475    142782.68   -49096.841    3777.0311   -52873.872     0.266876 
   44500    272.04504    -988.2751     142803.7   -49110.149    3735.8835   -52846.033   0.25447312 
   44600    267.70494    -1027.432    142765.09   -49111.225    3676.2827   -52787.508   0.27555417 
   44700     270.5764   -1010.0894    142755.43   -49099.839    3715.7153   -52815.554   0.28085282 
   44800    272.26663   -991.72891    142760.96   -49056.448    3738.9265   -52795.375   0.26113669 
   44900    274.63363    -963.1481    142767.56   -49040.589    3771.4316    -52812.02   0.26927164 
   45000    273.66361    -1002.382    142760.41   -49078.372    3758.1106   -52836.482   0.27117427 
   45100    274.68619   -1007.8241    142770.89   -48965.471    3772.1534   -52737.625   0.26538863 
   45200    270.58316   -1024.7185    142781.25   -49000.977    3715.8081   -52716.786   0.27590455 
   45300    276.11957   -997.51165    142798.24   -49024.717    3791.8374   -52816.554   0.26474075 
   45400    277.07273   -969.20572    142778.73   -49090.398    3804.9267   -52895.325   0.27164797 
   45500     272.8878   -1003.4563    142769.09   -49030.773    3747.4568    -52778.23   0.27126547 
   45600    272.32315   -967.55522    142783.47   -49028.825    3739.7027   -52768.528    0.2597428 
   45700    273.63044   -1010.5521     142762.9   -48981.023    3757.6551   -52738.678   0.28117308 
   45800    272.30563   -1022.3164    142758.68   -49052.652    3739.4621   -52792.114   0.27585628 
   45900    275.98047   -967.87325    142769.13   -48925.827    3789.9272   -52715.754   0.26714533 
   46000    278.33654   -964.52399    142795.09   -48979.475    3822.2821   -52801.757   0.26866136 
   46100    277.34514   -1012.1804    142805.21   -48887.005    3808.6676   -52695.672   0.28850812 
   46200    278.98467   -1009.5633    142811.74   -48939.266    3831.1826   -52770.449   0.25777455 
   46300    273.30979   -1009.7467    142809.79   -48931.581    3753.2518   -52684.833   0.26788813 
   46400    277.85393   -980.06023    142788.76   -48977.601    3815.6547   -52793.256   0.28492877 
   46500    275.35646   -999.69867    142829.37   -48951.071    3781.3579   -52732.429   0.25769256 
   46600    274.71458   -987.24798     142814.3   -49006.713    3772.5432   -52779.256   0.26409564 
   46700    276.64288   -1033.3904    142840.83   -48948.699    3799.0238   -52747.722   0.27839926 
   46800    272.20457    -1005.685    142837.35   -48959.782    3738.0743   -52697.856   0.27001091 
   46900    275.35111   -1043.2945    142822.95   -49017.497    3781.2844   -52798.782   0.26408584 
   47000    276.09217   -998.14927    142811.54   -49047.053    3791.4611   -52838.514   0.27229801 
   47100    272.37436   -1015.9072    142775.54   -49054.792    3740.4059   -52795.198   0.26838984 
   47200     273.4253   -975.57642    142743.71   -49026.727    3754.8381   -52781.565   0.26482909 
   47300    266.49926   -1006.6074    142727.53   -49138.396    3659.7255   -52798.121   0.27756278 
   47400    271.41047   -972.42566    142724.33    -49079.31    3727.1692   -52806.479   0.26945241 
   47500     269.4273   -1007.8267    142734.06   -49082.033    3699.9352   -52781.968   0.27148152 
   47600     268.5108   -1001.2529    142744.58   -49077.186    3687.3492   -52764.535   0.27374562 
   47700    277.75879   -980.62479    142757.07   -49005.769    3814.3482   -52820.117   0.26682107 
   47800    273.93577   -999.99627    142756.55    -49060.98    3761.8482   -52822.828   0.27094112 
   47900    271.61336    -1009.835    142741.28   -49114.208    3729.9554   -52844.164    0.2720196 
   48000    274.36854    -982.6413    142767.79   -49074.301    3767.7912   -52842.093    0.2634547 
   48100    271.89049   -972.57776    142759.95   -49114.793    3733.7611   -52848.555   0.26910557 
   48200    271.01008    -985.6252    142775.62   -49101.714    3721.6708   -52823.385   0.27020026 
   48300    269.70724   -990.73771    142772.34   -49055.833    3703.7794   -52759.613   0.26676669 
   48400     272.9399   -993.43697     142780.6   -49090.146    3748.1723   -52838.318   0.27036489 
   48500    271.33706   -1004.2506    142741.98   -49173.999    3726.1611    -52900.16   0.27884694 
   48600    268.20814   -1002.0015    142704.49   -49169.904    3683.1929   -52853.097   0.26486228 
   48700    273.78709   -970.35716    142729.04   -49066.144    3759.8064    -52825.95   0.26787389 
   48800    274.88486   -1001.7629    142704.42   -49053.657    3774.8816   -52828.538   0.29096316 
   48900    274.29049   -969.10349    142727.08    -49074.54    3766.7194   -52841.259    0.2620986 
   49000    269.87051    -1019.284    142732.72   -49109.061    3706.0216   -52815.082   0.26260231 
   49100    267.64646   -987.23834    142741.04   -49024.693    3675.4796   -52700.173   0.28758216 
   49200    272.16392   -1029.6363     142754.2   -49055.277    3737.5161   -52792.793   0.27577643 
   49300    270.92282    -1012.412    142733.94   -49119.496    3720.4725   -52839.969   0.26838544 
   49400    265.41887   -1012.5103    142720.18   -49135.964     3644.889   -52780.853   0.28242428 
   49500    271.70065   -1052.4356    142741.16   -49084.931    3731.1542   -52816.085    0.2784991 
   49600     272.7085   -995.14183    142723.04   -49077.699    3744.9945   -52822.693   0.26162289 
   49700    272.92585   -1023.9218    142726.54   -49082.481    3747.9794    -52830.46   0.27852759 
   49800    272.14735   -1005.7282    142720.52   -49093.896    3737.2886   -52831.185   0.27356545 
   49900    277.19583   -992.88921    142689.99   -49075.289    3806.6172   -52881.907   0.26577733 
   50000    272.15794   -962.77459    142713.26   -49076.562    3737.4339   -52813.996   0.27896922 
   50100    276.88052   -990.86299    142768.56   -48946.586    3802.2872   -52748.873    0.2757632 
   50200     274.4561   -1030.9123    142776.64   -49016.931    3768.9937   -52785.925   0.27340198 
   50300     275.4933   -994.47972    142762.87   -49035.185    3783.2371   -52818.422   0.28258458 
   50400    270.78937   -1013.0009    142735.44   -49046.927      3718.64   -52765.567   0.27356775 
   50500    275.90906   -1004.4961    142749.97    -48961.06    3788.9465   -52750.007   0.27688508 
   50600    277.28588   -988.56343    142798.39   -48893.527    3807.8538   -52701.381   0.28474534 
   50700    270.76053   -1007.0319    142750.92   -49118.458    3718.2439   -52836.702   0.26650863 
   50800    271.86876    -998.0674    142737.58   -49103.289    3733.4628   -52836.752   0.26805082 
   50900    274.80061   -986.90569    142716.77   -49127.456    3773.7246   -52901.181   0.27996927 
   51000    269.13511   -997.56021    142714.44   -49086.445    3695.9226   -52782.368   0.27008995 
   51100    270.55965   -981.57734    142734.01   -49097.331    3715.4852   -52812.816   0.27130466 
   51200    271.50701   -974.13517    142715.44   -49154.179    3728.4949   -52882.674   0.27965026 
   51300    266.16688   -1007.4717    142673.96    -49162.06    3655.1611   -52817.222   0.27010583 
   51400    264.70486   -1008.6627    142694.85   -49105.103    3635.0838   -52740.187   0.27319343 
   51500    273.92141   -1019.4282    142678.11   -49157.596    3761.6509   -52919.247   0.28532255 
   51600     267.8861   -1000.4391    142678.78   -49074.788    3678.7705   -52753.558   0.26740044 
   51700    278.36862   -944.53113    142715.98   -48982.975    3822.7227   -52805.698   0.26997212 
   51800    275.67549   -998.41167    142721.14   -49024.556     3785.739   -52810.295   0.28822288 
   51900    268.51494   -1014.1257    142735.64   -49080.822    3687.4062   -52768.228   0.26398698 
   52000    274.85573   -992.35184     142728.4     -49069.7    3774.4816   -52844.182   0.27394369 
   52100     269.8144   -1011.9045     142708.1   -49139.541     3705.251   -52844.792   0.28906092 
   52200    266.11514   -1004.1007    142688.31   -49199.284    3654.4506   -52853.734   0.26909519 
   52300    269.01519   -969.29203    142652.73   -49173.742    3694.2758   -52868.018   0.27286098 
   52400    267.45279   -1003.0488       142644   -49256.942      3672.82   -52929.762   0.28529966 
   52500    272.65132   -988.24049    142653.19    -49113.07    3744.2092   -52857.279   0.27295599 
   52600    270.02182   -1022.4647    142703.47   -49076.727    3708.0994   -52784.826    0.2738993 
   52700    273.64733   -964.26796    142719.46    -49017.92    3757.8871   -52775.807   0.28312263 
   52800    278.21562   -995.68333    142770.93   -48992.154    3820.6216   -52812.776   0.26995298 
   52900    273.48451   -987.02625    142785.08   -49021.322    3755.6511   -52776.973   0.26365821 
   53000    276.83773   -989.14427     142775.5   -48966.287    3801.6995   -52767.986   0.28687897 
   53100    271.87593   -1010.6672    142754.28   -49094.899    3733.5612    -52828.46   0.26785076 
   53200    271.57665   -1003.2582    142721.69   -49142.099    3729.4513    -52871.55   0.26885213 
   53300    269.34983   -986.79646    142733.65    -49108.84    3698.8712   -52807.711   0.28109131 
   53400    275.64948    -983.9293    142770.09   -49047.607    3785.3819   -52832.989   0.26520441 
   53500    270.86255   -1012.0436    142767.89   -49033.382    3719.6448   -52753.027   0.27641049 
   53600     273.4677   -1008.2337    142780.41   -49102.159    3755.4203    -52857.58   0.27626934 
   53700    270.27287   -1021.1936    142773.25   -49085.404     3711.547   -52796.951   0.27050189 
   53800    268.16648   -1007.5894    142753.42   -49106.302    3682.6208   -52788.923   0.26894416 
   53900    268.69556   -1002.8685    142751.62   -49111.548    3689.8865   -52801.434   0.28102875 
   54000      275.337   -968.37902    142774.02    -49127.88    3781.0907   -52908.971   0.26177476 
   54100     271.1214   -1010.3062    142765.09   -49094.922    3723.1995   -52818.121   0.26868998 
   54200     271.7615   -1009.0666     142787.8   -49053.812    3731.9898   -52785.802   0.28128378 
   54300    272.44718   -1004.1324    142799.57   -48981.985     3741.406   -52723.391    0.2738488 
   54400    274.41816   -1051.3055    142810.17   -48904.481    3768.4727   -52672.953   0.27247217 
   54500    276.07098    -975.4575    142801.33   -48970.567    3791.1702   -52761.737   0.28055305 
   54600    275.65106   -988.54329    142767.17   -48974.106    3785.4036   -52759.509   0.27371213 
   54700    269.13818   -1016.1647    142763.37   -49029.594    3695.9648   -52725.559   0.27094754 
   54800    274.56707   -993.55618    142758.34   -48965.398    3770.5175   -52735.915   0.28816089 
   54900    276.09829   -1026.8128    142756.86   -48984.881    3791.5452   -52776.426   0.27351756 
   55000    275.33426   -1006.5313       142760     -49013.5     3781.053   -52794.553   0.26537119 
   55100    271.56241   -1013.0969     142738.9   -49027.482    3729.2558   -52756.738   0.28824044 
   55200    266.49752   -1042.9319    142692.77   -49134.778    3659.7017    -52794.48   0.27758799 
   55300    270.02809   -980.47563    142686.35   -49180.979    3708.1856   -52889.165   0.26691331 
   55400    269.96363   -989.28041    142713.12   -49144.328    3707.3004   -52851.629   0.28711011 
   55500    268.57034    -1011.672    142716.44   -49103.626    3688.1669   -52791.793   0.27727049 
   55600    276.28783   -970.72809    142734.64   -49009.605     3794.148   -52803.753   0.26797261 
   55700    277.30115   -971.21803    142757.05   -48969.429    3808.0635   -52777.492   0.28612487 
   55800    269.22846   -1001.5122    142788.62   -48960.458    3697.2045   -52657.663   0.28356842 
   55900     273.3214    -945.7595     142792.7   -48973.228    3753.4112   -52726.639   0.26118925 
   56000     276.4876   -1007.4344     142803.3   -48985.591    3796.8914   -52782.482   0.28607689 
   56100    276.61744   -983.62806    142782.19   -48967.859    3798.6744   -52766.533   0.26887531 
   56200    273.51084   -998.16636    142814.52   -49010.271    3756.0127   -52766.284   0.26662709 
   56300    270.40033   -1009.2949    142796.17   -49078.195    3713.2974   -52791.493   0.27636441 
   56400    270.03313   -1003.4109    142744.03   -49121.646    3708.2548     -52829.9   0.26737211 
   56500    268.27953   -983.00859    142722.13   -49172.816    3684.1733   -52856.989   0.27012617 
   56600     263.3203   -1028.6053    142695.96    -49219.76    3616.0702    -52835.83   0.28188157 
   56700    267.89264   -1002.0799     142716.4   -49199.614    3678.8602   -52878.474   0.26930108 
   56800    268.91768    -978.2352    142761.79   -49093.942    3692.9367   -52786.879   0.27169644 
   56900    271.25459   -999.83511     142732.6   -49189.034    3725.0286   -52914.062   0.27984485 
   57000    265.24628   -1005.1492    142702.96   -49170.569    3642.5189   -52813.088   0.26440831 
   57100    269.56961   -1011.0683    142705.22   -49092.402    3701.8894   -52794.292   0.27852043 
   57200     272.7817   -1004.0249    142728.61   -49052.448    3745.9998   -52798.448   0.28598159 
   57300    268.48462   -1011.7242    142730.47   -49175.719    3686.9897   -52862.709   0.26664925 
   57400    276.63954   -988.81979    142745.04   -49060.367    3798.9779   -52859.345   0.27250502 
   57500    273.64667   -996.42833    142776.66   -49028.267     3757.878   -52786.145    0.2824747 
   57600    270.88996   -954.56841    142751.68   -49131.036    3720.0212   -52851.057   0.26142312 
   57700    268.72923   -983.82311    142778.83    -49051.64    3690.3489   -52741.989   0.26941064 
   57800    276.78504   -969.83641    142788.44   -49004.792    3800.9761   -52805.769   0.28190428 
   57900    274.67202   -1018.3409    142829.43   -49043.789    3771.9587   -52815.748   0.26370374 
   58000    275.03945   -987.92402     142809.3   -49002.752    3777.0046   -52779.756   0.26356913 
   58100    271.29149   -1021.2919    142807.16   -49057.011    3725.5353   -52782.546   0.28557435 
   58200    277.65654    -1014.446    142804.58   -48952.397     3812.944   -52765.341   0.26810167 
   58300    273.97205   -1005.8255    142820.82    -49016.45    3762.3464   -52778.796   0.26550508 
   58400    274.47098   -1027.9375    142817.15   -49057.928    3769.1979   -52827.125   0.28265903 
   58500    276.65123   -982.96203    142803.65   -49067.064    3799.1384   -52866.203   0.26221381 
   58600     267.1699   -986.12561    142768.39   -49096.763    3668.9352   -52765.699   0.27034408 
   58700    272.98887   -982.13755    142776.51   -49053.151    3748.8448   -52801.996   0.27429246 
   58800    271.85378    -1005.534    142773.63   -49091.656     3733.257   -52824.913   0.27619815 
   58900    271.12212   -1001.7992    142791.39   -49015.633    3723.2094   -52738.842   0.27441463 
   59000    277.93304   -955.42523    142819.92   -48984.001    3816.7411   -52800.743   0.27453928 
   59100    278.41636    -967.6425    142813.43   -48949.325    3823.3783   -52772.704   0.27033275 
   59200    274.34983   -1009.1587    142805.74   -49064.412    3767.5343   -52831.946    0.2664742 
   59300    269.92129   -991.96864    142785.24   -49047.203    3706.7189   -52753.922   0.27802606 
   59400    271.63252   -996.32257    142782.76   -49026.287    3730.2185   -52756.506   0.27221984 
   59500    273.28818   -984.32287     142758.2   -49129.338    3752.9551   -52882.294   0.26475122 
   59600     269.0999   -1006.4188    142768.22   -49104.232    3695.4392   -52799.671   0.27784496 
   59700     268.5954   -1033.0549    142801.22   -49034.195     3688.511   -52722.706   0.27170982 
   59800    266.16973   -1021.6483    142747.96   -49141.733    3655.2003   -52796.933   0.27390799 
   59900    270.11811   -1018.1486     142740.5   -49141.392    3709.4218   -52850.813   0.27868075 
   60000    269.49741   -1011.7918    142747.88   -49108.274     3700.898   -52809.172   0.26549252 
   60100    267.33846   -966.13871       142730   -49066.455    3671.2499   -52737.705   0.27695487 
   60200    271.35674   -1013.1646     142756.8    -49039.85    3726.4314   -52766.282   0.27780182 
   60300    274.53365   -1006.9823    142759.84   -49001.946    3770.0586   -52772.004   0.27803374 
   60400    275.65897   -978.60826    142773.89   -48946.794    3785.5121   -52732.306   0.27190331 
   60500    269.41062   -986.84498     142796.3   -48970.192    3699.7062   -52669.899   0.27825876 
   60600    269.35359    -983.5437    142770.89   -49036.827    3698.9229    -52735.75   0.27162966 
   60700      281.033   -972.92587    142821.87   -48869.184    3859.3115   -52728.496   0.26702288 
   60800    276.81717   -1004.9523    142853.15   -48892.769    3801.4173   -52694.186   0.27361522 
   60900    273.88803   -1020.2326    142833.74   -48981.483    3761.1926   -52742.676   0.27182915 
   61000    278.43257   -1008.2936    142794.59   -49023.298    3823.6008   -52846.899   0.26395423 
   61100    270.37065   -1013.9562    142765.79     -49007.6    3712.8899    -52720.49   0.28386453 
   61200    277.44105   -996.81538    142755.55   -48948.901    3809.9847   -52758.886   0.27757599 
   61300    274.69129    -1007.841    142768.99   -49042.888    3772.2234   -52815.111   0.26787551 
   61400    270.94672   -1001.8424    142752.64   -49092.521    3720.8007   -52813.321   0.27451719 
   61500    271.63359    -1022.457    142734.76   -49033.762    3730.2332   -52763.995   0.27876748 
   61600    275.15757   -990.07826    142713.54   -49073.598    3778.6267   -52852.224   0.26698481 
   61700    273.77935   -1027.5886    142710.87   -49134.553    3759.7001   -52894.253   0.27745451 
   61800     272.7024   -991.50081    142715.06   -49120.586    3744.9108   -52865.497   0.27818604 
   61900     271.2293   -995.10694    142741.12   -49019.851    3724.6813   -52744.532   0.27039886 
   62000    271.91961   -1003.0938    142773.57   -49035.612    3734.1611   -52769.774   0.28271477 
   62100    268.66676   -980.74786       142759   -49101.879     3689.491    -52791.37   0.27659808 
   62200    273.97317   -1010.9766    142772.39    -49001.73    3762.3618   -52764.091    0.2723615 
   62300    274.71561   -988.15468    142777.47    -49044.03    3772.5573   -52816.587   0.26611596 
   62400    272.74915   -1003.8601    142743.83    -49084.57    3745.5528   -52830.122   0.27606955 
   62500      273.345   -1009.3472    142771.63   -49080.085    3753.7354    -52833.82   0.26737977 
   62600    268.01977   -964.41849    142743.02   -49104.423    3680.6062   -52785.029   0.27467883 
   62700    269.69351   -1002.1258    142756.61   -49142.225    3703.5909   -52845.816   0.27165049 
   62800    269.80523   -986.98551    142747.13   -49119.094    3705.1251   -52824.219   0.26993059 
   62900    272.55345   -977.08762    142770.83   -49027.173    3742.8653   -52770.038   0.27595479 
   63000    274.40195   -984.07664     142788.5   -49058.868      3768.25   -52827.118   0.26096816 
   63100    268.19341   -997.30359    142741.94   -49127.627    3682.9906   -52810.618   0.27538532 
   63200    271.53223    -1025.471    142762.43   -49012.522    3728.8412   -52741.363   0.27689961 
   63300    275.37313   -1004.6402    142771.36    -49108.94    3781.5868   -52890.526   0.26309714 
   63400    268.09417   -1021.5929    142719.52   -49187.035    3681.6279   -52868.663   0.26645842 
   63500    268.57661   -1030.5383    142717.07   -49162.374     3688.253   -52850.627   0.27892364 
   63600    267.74945   -998.92966    142729.39   -49212.731    3676.8939   -52889.625   0.26940547 
   63700    267.27286   -1052.4362    142713.67   -49178.805    3670.3491   -52849.154    0.2713096 
   63800    263.49642    -1016.146    142692.12   -49246.988    3618.4889   -52865.477   0.28217818 
   63900    272.80645   -1001.0536    142710.74   -49145.854    3746.3397   -52892.194   0.26571638 
   64000    275.44303   -960.85464    142732.27   -49060.905    3782.5468   -52843.452   0.26270282 
   64100    274.62932   -980.09381    142779.72   -49018.495    3771.3724   -52789.867   0.27399119 
   64200    271.98676   -987.50647    142793.68   -49007.924    3735.0832   -52743.007   0.27378801 
   64300    271.71636   -1034.7479    142783.75   -49043.573    3731.3699   -52774.943   0.27224135 
   64400    270.69298   -995.55569    142744.99   -49097.801    3717.3163   -52815.117   0.27812768 
   64500    272.92873   -997.72705     142725.9   -49089.175    3748.0188   -52837.194   0.27763139 
   64600    272.13762    -1038.908    142710.08   -49117.827    3737.1549   -52854.982   0.26288762 
   64700    273.00977   -992.64206     142713.2   -49121.458    3749.1318    -52870.59    0.2761703 
   64800    272.79594   -994.87845    142724.33   -49071.059    3746.1953   -52817.255   0.27614251 
   64900    278.58759    -984.1852    142743.57   -48989.699    3825.7296   -52815.429   0.27046566 
   65000    275.57967    -1010.678    142753.53   -48975.183    3784.4232   -52759.606   0.27822251 
   65100    272.36633   -971.51226    142769.21   -49035.314    3740.2957   -52775.609   0.27052177 
   65200    272.58531   -1018.0475     142738.5   -49057.789    3743.3028   -52801.092   0.28082612 
   65300    271.14554   -1032.1016    142756.68   -48997.122    3723.5311   -52720.654   0.27634455 
   65400    276.26646   -985.02456    142723.61   -49038.137    3793.8546   -52831.992   0.27030647 
   65500    275.52108    -998.8271    142731.51   -48971.002    3783.6185    -52754.62   0.27514812 
   65600    275.27786   -1014.6238    142762.79   -48986.956    3780.2786   -52767.235   0.27582725 
   65700    273.14788   -1021.2263    142770.01   -48946.612    3751.0283    -52697.64   0.27467381 
   65800    274.14206   -1011.2244    142775.24   -49011.997     3764.681   -52776.678   0.26882813 
   65900    274.39985   -994.85529     142789.2   -49025.712    3768.2212   -52793.934   0.27911685 
   66000    274.38134   -968.07482    142782.77    -49036.15     3767.967   -52804.117   0.26056122 
   66100    276.58187   -992.21636    142793.43   -49011.805    3798.1859   -52809.991   0.26448127 
   66200    270.96663   -1034.2204    142761.68   -49136.106    3721.0742    -52857.18   0.27735883 
   66300    277.01365   -1002.6324    142737.81    -49069.69    3804.1154   -52873.805   0.26162218 
   66400    271.60232   -1012.2355    142749.92   -49075.719    3729.8038   -52805.523    0.2652257 
   66500    270.61474   -1012.2379    142760.21   -49107.244    3716.2417   -52823.486   0.27828185 
   66600    268.40393   -997.97086    142735.03   -49107.307    3685.8817   -52793.188   0.26450988 
   66700    268.62565   -994.29694    142744.41   -49092.069    3688.9264   -52780.995   0.26295683 
   66800    264.78938   -998.98655    142750.24   -49117.488    3636.2445   -52753.733   0.28282069 
   66900    268.34166   -1019.6531    142758.08   -49132.162    3685.0265   -52817.189   0.26748591 
   67000    266.70187   -1004.1764    142728.09   -49230.913    3662.5079   -52893.421   0.25451839 
   67100    268.31329   -1004.0429    142760.86   -49075.697    3684.6369   -52760.334   0.27975178 
   67200    266.08759   -992.27252    142754.59   -49177.683    3654.0723   -52831.755   0.26154342 
   67300    269.50638   -997.10833     142779.1   -49104.292    3701.0211   -52805.313    0.2568175 
   67400     271.7038   -1015.6868    142751.39   -49076.473    3731.1974    -52807.67   0.28111085 
   67500    275.49358   -997.58933    142768.58   -49064.376     3783.241   -52847.617   0.26734933 
   67600    275.34215   -978.91501    142820.74   -48927.181    3781.1614   -52708.342   0.26323196 
   67700    272.89115    -1008.086    142819.63   -48997.523    3747.5028   -52745.025   0.27547442 
   67800    272.19188   -991.99547    142768.92   -49035.042       3737.9   -52772.942   0.26998797 
   67900    271.61494   -969.96589    142772.48   -49067.892    3729.9772   -52797.869   0.26438874 
   68000    268.31478    -1034.608    142743.54   -49102.565    3684.6574   -52787.222   0.28232646 
   68100    273.60531   -1009.1094    142719.59   -49099.607    3757.3101   -52856.917       0.2672 
   68200    270.80938   -1007.4029    142739.68   -49068.774    3718.9146   -52787.689   0.26552358 
   68300    272.33397   -989.11755    142751.33    -49013.31    3739.8513   -52753.161   0.28073027 
   68400    269.68159   -1022.3007    142768.42   -48982.618    3703.4272   -52686.045   0.27315906 
   68500     274.5887   -1008.4795    142776.88   -48987.563    3770.8145   -52758.378   0.27587946 
   68600    274.30943   -1014.0286    142738.96   -49070.174    3766.9795   -52837.154   0.28327881 
   68700    271.90236   -1023.8309    142707.46   -49045.258    3733.9242   -52779.182   0.26674772 
   68800    271.61016   -969.97507    142731.72   -49040.296    3729.9114   -52770.207   0.27593861 
   68900     274.0243   -955.23325    142746.79   -49041.333    3763.0639   -52804.397   0.27734752 
   69000    276.30446   -955.31479    142775.94   -49040.958    3794.3764   -52835.335   0.26109442 
   69100    270.73213   -966.02358    142754.99   -49106.195    3717.8539   -52824.049   0.26870212 
   69200    267.09587   -1018.5679    142754.29   -49119.205    3667.9186   -52787.123   0.28914818 
   69300    269.32878   -1030.2652    142754.47   -49153.798    3698.5823    -52852.38   0.26023331 
   69400    272.63691   -986.25405     142730.7   -49199.219    3744.0115    -52943.23   0.25975635 
   69500     274.0463   -973.12692    142710.55    -49063.17     3763.366   -52826.536   0.28815949 
   69600    268.92073   -1017.6786    142783.39   -48966.192    3692.9787    -52659.17   0.26767338 
   69700    271.17595   -1055.3711    142770.42   -49053.564    3723.9486   -52777.512   0.26856505 
   69800    274.18525   -985.15482    142770.24   -49050.839    3765.2742   -52816.113   0.28467697 
   69900    269.43561   -1011.2275    142757.32   -49143.159    3700.0492   -52843.208   0.26068748 
   70000    266.14296   -1016.9493    142751.74   -49081.379    3654.8327   -52736.212   0.26577067 
   70100    264.23484   -1023.2854    142739.55   -49194.227    3628.6292   -52822.857   0.28365936 
   70200    270.61343   -1002.5367    142779.21   -49042.018    3716.2238   -52758.242   0.26873903 
   70300    272.71906    -957.0692    142824.48   -49051.241    3745.1395    -52796.38   0.25880154 
   70400    277.55878    -986.4384     142832.1   -48945.622    3811.6014   -52757.223   0.27599608 
   70500    269.04463   -997.35968    142810.91   -49014.465      3694.68   -52709.145   0.26560484 
   70600     271.7746   -1013.5052    142792.19   -49067.213    3732.1697   -52799.383   0.26377927 
   70700      275.029    -985.6637     142775.3   -49040.383    3776.8611   -52817.244   0.27683432 
   70800    266.98343   -970.97499    142775.51   -49071.982    3666.3745   -52738.357   0.27088799 
   70900    272.73878   -976.64735    142768.06    -49064.31    3745.4104    -52809.72   0.26566652 
   71000      271.464   -1020.7743    142771.33   -49087.004    3727.9043   -52814.908   0.27082563 
   71100    272.73534   -981.36806    142760.22   -49074.971    3745.3631   -52820.334   0.26705383 
   71200    265.47432   -1018.6037    142752.97    -49106.58    3645.6506   -52752.231   0.27202571 
   71300    269.58625   -976.74853    142753.34    -49161.12     3702.118   -52863.238   0.27149857 
   71400    274.31557   -993.67107    142773.13   -49097.976    3767.0638   -52865.039   0.26233238 
   71500    275.57193   -992.18172    142798.72   -49057.018    3784.3168   -52841.334   0.26071658 
   71600    271.11164   -1005.9539    142781.11   -49071.726    3723.0656   -52794.792   0.27663444 
   71700    272.97685   -966.82535    142779.07   -49061.162    3748.6796   -52809.842   0.25973221 
   71800    269.94594   -1017.0006    142754.93   -49231.722    3707.0575    -52938.78   0.26967792 
   71900    270.07583   -1000.7257    142732.63   -49176.255    3708.8412   -52885.096   0.27333628 
   72000    274.68282   -988.09209    142723.85   -49143.239     3772.107   -52915.346   0.25537423 
   72100    272.63686   -967.16612    142774.79   -49016.892    3744.0108   -52760.903   0.26739183 
   72200    278.72238   -945.45532    142844.15   -48909.509    3827.5807   -52737.089   0.27045024 
   72300    278.46406   -982.17134    142881.44   -48886.294    3824.0333   -52710.327     0.261526 
   72400     272.7708   -1014.9072    142844.99   -49003.039    3745.8501   -52748.889   0.26384003 
   72500    279.45249   -1032.6312    142823.91   -49001.861     3837.607   -52839.468   0.28175939 
   72600    271.11591   -1012.5547    142810.41   -48938.311    3723.1241   -52661.435   0.26628916 
   72700    273.98385   -988.96431    142796.89   -49096.995    3762.5084   -52859.503   0.26152948 
   72800    275.74396   -996.41493    142777.39   -49027.575    3786.6792   -52814.254   0.28039073 
   72900     272.8706   -991.98446    142775.13   -49031.371    3747.2205   -52778.591   0.26472576 
   73000    272.63116   -987.81872    142758.88   -49044.296    3743.9325   -52788.228   0.26921065 
   73100    272.99067   -1009.1194     142784.5   -49001.989    3748.8695   -52750.858   0.27573829 
   73200    276.70043   -1026.7654    142805.99   -48990.627     3799.814   -52790.441   0.27033241 
   73300    274.64114   -1013.9036     142818.6   -48963.866    3771.5346     -52735.4   0.25922474 
   73400    278.84252   -1001.8067    142836.97   -48952.225    3829.2306   -52781.455   0.27156983 
   73500    277.48001   -997.33935    142845.04   -48958.999    3810.5198   -52769.519   0.26940475 
   73600    272.98986   -1025.2518    142800.77   -48998.908    3748.8583   -52747.766   0.26653536 
   73700    278.00702   -1007.0945    142774.75   -49054.449     3817.757   -52872.206   0.27485144 
   73800    275.92881   -960.47313    142765.37   -49140.439    3789.2177   -52929.657   0.25220983 
   73900    270.00176   -1016.7425    142750.93   -49117.759    3707.8239   -52825.583   0.26810806 
   74000    272.99727   -988.96483     142749.6    -49042.62    3748.9601    -52791.58   0.27483479 
   74100    276.54857   -1018.5588    142810.41   -48879.888    3797.7286   -52677.616   0.26952218 
   74200    277.40858   -1007.8857    142787.89   -49038.856    3809.5389   -52848.395   0.26853753 
   74300     277.6611   -994.45613    142750.35   -49036.294    3813.0066   -52849.301   0.27288291 
   74400    273.19157   -997.03024    142717.93   -49072.208    3751.6283   -52823.837   0.26445431 
   74500    270.68512   -1012.7698    142693.99   -49089.222    3717.2082    -52806.43   0.27070927 
   74600    274.07367   -1031.8772    142710.34   -49091.936    3763.7419   -52855.678   0.27994553 
   74700    275.74261   -993.88087    142745.06   -49009.437    3786.6608   -52796.098   0.26666128 
   74800    267.62563   -993.76639    142749.46   -49060.537    3675.1936   -52735.731   0.27091732 
   74900     276.4531   -976.19693    142767.08   -49063.413    3796.4176    -52859.83   0.27939033 
   75000    270.84053   -969.98763    142761.99   -49047.887    3719.3425   -52767.229   0.26165082 
   75100    275.71603   -967.54276    142805.94   -48983.249    3786.2958   -52769.545   0.25606061 
   75200    277.98852   -992.25201     142802.6   -49028.772    3817.5029   -52846.275   0.27624656 
   75300    271.74498   -987.84314    142776.52   -49077.763    3731.7629   -52809.526   0.26505092 
   75400    269.43363   -966.45776    142767.54   -49091.179     3700.022   -52791.201   0.25956495 
   75500    274.50507   -967.16699    142763.94   -49086.837    3769.6661   -52856.503   0.26763378 
   75600     279.8162   -993.27534    142782.17    -49016.92    3842.6017   -52859.522   0.26681444 
   75700    273.09269   -1028.2029    142812.03   -48980.381    3750.2705   -52730.652   0.26877373 
   75800    273.75774   -1018.0514    142827.63   -48999.658    3759.4033   -52759.061   0.27200794 
   75900    271.39176   -1011.7591    142804.27   -49015.834    3726.9122   -52742.746   0.26404745 
   76000     274.7297   -983.80249    142795.89    -49022.09    3772.7509   -52794.841   0.26917894 
   76100    269.79536   -1002.6942    142796.71   -49103.733    3704.9896   -52808.723   0.27008665 
   76200    270.07969   -993.27244    142767.49   -49152.897    3708.8942   -52861.791   0.26271208 
   76300    272.80168   -995.60091    142771.64   -49098.224    3746.2741   -52844.498   0.27259673 
   76400    273.46443   -983.19211    142750.26   -49090.483    3755.3755   -52845.858   0.27128824 
   76500    277.06292   -1014.9466    142767.45   -49085.006     3804.792   -52889.798   0.26459309 
   76600    272.11564    -1014.374    142745.89   -49115.183     3736.853   -52852.036   0.27849353 
[...]
   81900    272.45769   -1017.8613    142704.29   -49116.295    3741.5503   -52857.845   0.27211653 
   82000    271.93681   -1010.1757    142721.64   -49027.845    3734.3973   -52762.242   0.28368539 
   82100    274.97678   -987.69334    142775.35   -48979.407    3776.1439   -52755.551   0.28020441 
   82200    278.21522   -986.29148    142767.88   -48986.579    3820.6161   -52807.195   0.27107101 
   82300    270.90373   -1017.8006    142768.34   -49060.337    3720.2104   -52780.548   0.27641221 
   82400    277.27577   -1014.6777     142764.9   -48945.071     3807.715   -52752.786   0.27820769 
   82500    277.15919   -988.39463    142802.83   -48845.825     3806.114   -52651.939    0.2792508 
   82600     275.0302   -1008.9966    142802.87   -48941.867    3776.8775   -52718.745    0.2731094 
   82700     275.0189   -962.79906    142768.61   -49024.927    3776.7224   -52801.649   0.27444874 
   82800    274.59954   -963.01092    142741.81   -49037.835    3770.9634   -52808.798   0.27115224 
   82900    275.78098   -1002.4232    142738.07    -48996.24    3787.1877   -52783.428   0.27146763 
   83000    277.28909   -965.29771    142772.08   -48938.503    3807.8979   -52746.401   0.27729214 
   83100    276.29664   -995.46559    142779.74   -48970.629     3794.269   -52764.898   0.27750727 
   83200    276.26543   -1028.9015    142795.06   -49001.809    3793.8404    -52795.65   0.27013842 
   83300    273.78365   -1008.0422    142793.57   -48995.184    3759.7591   -52754.943   0.27647218 
   83400     275.4974   -1017.4536       142799   -49072.888    3783.2934   -52856.181   0.27021935 
   83500    268.43102   -1015.0665    142725.71   -49171.855    3686.2537   -52858.109   0.26675921 
   83600    264.55666   -997.83333    142752.32    -49121.64    3633.0486   -52754.688   0.27239118 
   83700    268.83634   -1007.7323     142715.6   -49142.457    3691.8197   -52834.277   0.26925594 
   83800    275.85802   -989.46835    142712.17   -49107.644    3788.2456    -52895.89   0.27328784 
   83900    272.57312   -1003.3574    142711.38   -49106.723    3743.1354   -52849.858   0.27719832 
   84000    270.29753   -1004.6583    142727.25   -49129.779    3711.8856   -52841.664   0.27077741 
   84100    270.21579   -987.64885    142703.08   -49058.404    3710.7631   -52769.167   0.27579808 
   84200    275.40991   -991.93982    142722.24   -49010.385    3782.0919   -52792.477   0.28027175 
   84300    273.50538   -962.07839    142739.22   -49057.899    3755.9377   -52813.836   0.27047317 
   84400    269.92241   -1004.8546    142758.38   -49060.032    3706.7343   -52766.766   0.27572683 
   84500    268.64325   -1039.8362    142746.81   -49114.083    3689.1681   -52803.251   0.28393832 
   84600     274.9995   -1016.4648    142749.85   -49028.424    3776.4559    -52804.88   0.27433988 
   84700    272.86868   -1016.9761    142777.95   -49043.913    3747.1943   -52791.108   0.27448335 
   84800     272.5078   -1000.6882    142769.94   -49033.002    3742.2383   -52775.241   0.28163551 
   84900    274.96071   -992.21177    142783.11   -48960.086    3775.9232   -52736.009   0.27218388 
   85000    275.08306   -1011.2861    142770.41   -49024.702    3777.6034   -52802.305   0.28028833 
   85100     270.1582   -995.14937     142761.3   -49046.755    3709.9724   -52756.727   0.27498036 
   85200     268.6476   -1006.6167    142765.39   -49089.831    3689.2278   -52779.059   0.26513307 
   85300    272.68743   -1006.6292    142766.25   -49101.639    3744.7051   -52846.344   0.27591159 
   85400    267.21102   -1002.2781    142753.22     -49127.2       3669.5     -52796.7   0.27546311 
   85500     270.3429    -1000.324    142757.14   -49073.448    3712.5087   -52785.956   0.27207665 
   85600    272.58222   -983.84297    142759.32    -49104.96    3743.2604   -52848.221   0.27323797 
   85700    271.21511   -948.72815    142753.58   -49048.418    3724.4864   -52772.905   0.27702169 
   85800    271.37889    -993.5068    142796.53   -49041.863    3726.7356   -52768.599   0.26652288 
   85900    271.37919    -1016.615    142815.04   -49016.158    3726.7396   -52742.897   0.27210816 
   86000    270.54416   -983.17747     142771.1   -49062.019    3715.2725   -52777.292   0.27219864 
   86100    277.07096   -987.71193    142762.66   -49032.975    3804.9024   -52837.877   0.26940585 
   86200    275.18852   -981.64348    142812.02   -49004.398    3779.0516    -52783.45   0.27203892 
   86300    273.02885   -991.73375     142793.4   -49043.721    3749.3938   -52793.115   0.26978458 
   86400    270.61853   -985.39773    142784.63   -49104.194    3716.2938   -52820.488   0.26702878 
   86500    270.09848   -1008.4549     142783.6   -49135.406    3709.1522   -52844.558   0.27133798 
   86600     275.4045    -999.6897    142842.05   -48985.241    3782.0176   -52767.258   0.26308827 
   86700    277.45881   -995.85521    142857.38   -48987.184    3810.2285   -52797.413   0.26574857 
   86800    267.55165   -1014.0711    142804.56   -49101.678    3674.1776   -52775.856   0.26967319 
   86900    270.64855   -1031.4003    142800.33   -49085.893    3716.7061   -52802.599   0.26938399 
   87000    272.68526   -987.76596    142811.73   -49057.482    3744.6754   -52802.158   0.26583964 
   87100    275.19702   -994.80271    142810.23   -49036.433    3779.1684   -52815.602   0.27000675 
   87200    276.51508   -970.68083    142822.52   -48971.907    3797.2688   -52769.176    0.2680822 
   87300    271.39003   -1013.6046    142823.31   -48987.105    3726.8885   -52713.993   0.26822392 
   87400    270.75975   -996.57728    142781.76   -49035.476    3718.2331   -52753.709   0.27750713 
   87500    272.79557   -1000.7356    142798.23     -49012.5    3746.1902    -52758.69   0.27417581 
   87600    273.38145   -979.70124    142817.52   -49036.915    3754.2359   -52791.151   0.26643357 
   87700    273.95934   -993.04517     142785.4    -49001.64    3762.1718   -52763.812   0.27258366 
   87800    272.94274   -1051.3929     142767.6   -49084.921    3748.2112   -52833.132   0.27777225 
   87900    268.97857    -1017.331     142747.4   -49106.989     3693.773   -52800.762     0.272314 
   88000    266.84516   -1032.3752    142749.63   -49073.426    3664.4757   -52737.902   0.27658837 
   88100    277.09002   -963.17762       142758   -49042.754    3805.1642   -52847.918   0.27468862 
   88200    268.58338   -1012.4768    142735.94   -49138.476    3688.3459   -52826.822   0.26930479 
   88300    272.47992   -977.67264    142715.14   -49084.175    3741.8555    -52826.03   0.27184103 
   88400     276.1517   -1017.4903    142753.46   -49024.206    3792.2786   -52816.485   0.27622987 
   88500    274.31724   -1016.8612    142727.49   -49084.124    3767.0867    -52851.21   0.27227723 
   88600    270.82374   -963.90869     142716.8   -49069.165    3719.1119   -52788.277   0.27333355 
   88700    274.59636   -996.96474    142724.42    -49039.48    3770.9197   -52810.399    0.2759363 
   88800    267.42153    -1035.447    142734.84   -49104.368    3672.3908   -52776.759   0.27605962 
   88900    270.27002   -955.44231    142720.29   -49049.061    3711.5079   -52760.569    0.2732442 
   89000    273.43228   -1018.2362    142760.26    -49019.58    3754.9339   -52774.513   0.27765758 
   89100    274.66137   -1014.8273    142754.12   -49066.967    3771.8124    -52838.78   0.26637253 
   89200    269.83362    -1036.197     142738.9   -49017.875    3705.5149    -52723.39   0.27881585 
   89300    268.17136    -1014.954    142713.61   -49129.738    3682.6878   -52812.425   0.27346198 
   89400    271.82735   -1051.7216    142738.93   -49035.931     3732.894   -52768.825   0.28022517 
   89500    272.14044   -1047.2019    142714.79   -49133.892    3737.1936   -52871.086   0.27495558 
   89600    275.49135   -972.50082     142685.2   -49158.668    3783.2103   -52941.878    0.2751548 
   89700    267.06857   -990.84929    142674.24   -49073.866    3667.5437    -52741.41   0.28338622 
   89800    269.27444   -1047.9312    142702.41   -49013.548     3697.836   -52711.384   0.27790112 
   89900    274.79559   -999.52048    142738.14   -49000.312    3773.6557   -52773.968   0.27830582 
   90000    275.51413   -1001.8087    142748.06    -49023.44    3783.5232   -52806.963   0.27500002 
   90100    274.79185   -1004.1811    142733.72   -49000.177    3773.6043   -52773.782   0.27430713 
   90200    268.33244   -1012.8097    142716.74   -49070.112    3684.8999   -52755.012    0.2825314 
   90300    273.95237   -1000.6392    142694.75   -49050.188    3762.0761   -52812.264   0.27203606 
   90400    274.94126   -1010.5063    142725.33   -49040.683    3775.6562    -52816.34   0.27740731 
   90500    272.46792   -1024.9192     142715.9   -49046.539    3741.6908    -52788.23   0.28353088 
   90600    268.97764   -1011.4102    142692.83   -49065.017    3693.7602   -52758.778   0.28146322 
   90700    274.54713   -992.82153    142700.44    -49099.97    3770.2437   -52870.214   0.27296376 
   90800    278.22264   -1022.1672    142702.03   -49117.167     3820.718   -52937.885   0.27637347 
   90900    266.08551   -989.28996    142718.04   -49086.815    3654.0438   -52740.859   0.28147025 
   91000    269.05941   -973.49103    142729.09   -49106.731     3694.883   -52801.614   0.26475951 
   91100    266.27875   -1002.8831    142706.89   -49211.511    3656.6974   -52868.208   0.27763752 
   91200    267.95491   -986.71605    142719.06   -49156.876    3679.7154   -52836.591   0.27497893 
   91300    273.41376   -1009.5301    142740.56   -49098.992    3754.6796   -52853.671   0.26609026 
   91400    275.54985   -984.26154    142751.99   -49069.365    3784.0136   -52853.378   0.26712966 
   91500    276.58687   -962.78703    142797.61   -48915.762    3798.2546   -52714.017   0.26975801 
   91600    280.11651   -1014.5521    142818.63   -48982.095    3846.7258   -52828.821   0.26866305 
   91700    271.98131   -1018.5769    142759.94     -49046.8    3735.0083   -52781.808   0.27266402 
   91800    271.21438   -1029.9831    142786.31   -49023.876    3724.4764   -52748.352   0.27377283 
   91900    273.54186   -1013.0289    142802.57   -49013.321    3756.4387    -52769.76   0.27171978 
   92000    267.91158    -1011.549    142819.13   -49059.713    3679.1204   -52738.833   0.27179106 
   92100     271.6458   -1044.9841    142812.52   -49045.857    3730.4009   -52776.258   0.27273047 
   92200    271.77986   -1042.3321    142810.26   -49074.362    3732.2418   -52806.604   0.26924284 
   92300    277.04142   -990.95699     142821.9    -48953.02    3804.4968   -52757.517   0.27420952 
   92400     271.3346   -986.68248    142823.75   -49001.424    3726.1273   -52727.552   0.26881247 
   92500    270.98932   -1012.0864    142839.44   -49002.308    3721.3858   -52723.694   0.26359708 
   92600    273.83119   -976.68885    142860.16   -48911.121     3760.412   -52671.533   0.27933048 
   92700    275.18469   -1030.4042     142830.8   -49031.215     3778.999   -52810.214   0.26359955 
   92800    273.45592   -985.60462    142835.15    -49047.91    3755.2586   -52803.169   0.26631888 
   92900    269.98597    -1029.072    142826.05   -49082.446    3707.6071   -52790.053   0.27607363 
   93000     273.0204   -997.24662    142820.46   -49093.297    3749.2777   -52842.575   0.26918058 
   93100    274.09689   -978.51769    142795.72   -49013.947    3764.0607   -52778.008   0.26211124 
   93200    274.04841   -1014.9183    142781.78   -49067.698     3763.395   -52831.093   0.27053761 
   93300    272.62512    -1002.356    142757.36   -49114.147    3743.8496   -52857.996   0.27650889 
   93400    266.41399   -986.91789    142740.23   -49166.364    3658.5545   -52824.919   0.26492785 
   93500     263.4647   -1007.8789    142733.06   -49167.572    3618.0531   -52785.625   0.27148857 
   93600     268.9544   -991.82058    142727.76   -49118.065    3693.4411   -52811.506   0.28069849 
   93700    270.97201   -997.34107    142756.05   -49094.618     3721.148   -52815.766   0.27553589 
   93800    276.67625   -976.61097    142753.28   -49090.055     3799.482   -52889.537    0.2695945 
   93900    268.94299   -1022.5954    142727.62   -49165.059    3693.2843   -52858.343   0.27642835 
   94000     272.8532   -973.48465    142739.82   -49131.186    3746.9817   -52878.167   0.26872097 
   94100    272.86872   -984.80846    142787.47   -49020.001    3747.1948   -52767.196   0.27012771 
   94200    271.81832   -1020.3187    142767.46   -49010.368      3732.77   -52743.138    0.2742173 
   94300    273.60341   -1033.8697    142774.56   -49020.763    3757.2839   -52778.047   0.27520645 
   94400    277.41077   -979.17136    142809.15   -49014.458    3809.5689   -52824.027   0.27293667 
   94500     276.3624   -1007.3857    142794.82   -49019.242    3795.1721   -52814.414   0.27075788 
   94600    275.92444   -985.31826    142780.92   -49031.354    3789.1578   -52820.512   0.26980341 
   94700    277.31989   -991.69888    142758.06   -49066.197    3808.3208   -52874.518   0.27387745 
   94800    269.15171   -995.64701    142754.54   -49101.942    3696.1506   -52798.092   0.26787693 
   94900    267.88752   -992.39734    142744.78   -49130.119      3678.79   -52808.909   0.26683862 
   95000    272.12266   -988.58157    142765.29   -49093.897    3736.9495   -52830.846   0.27923691 
   95100    272.12308   -1010.0694    142785.39   -49060.063    3736.9552   -52797.018   0.27177122 
   95200    273.43846   -1013.0271    142781.42    -49087.64    3755.0188   -52842.659   0.26196612 
   95300    272.46945   -1008.0126    142784.18    -49045.12    3741.7118   -52786.831   0.28105779 
   95400    273.17007   -1007.6675    142787.98   -49014.984     3751.333   -52766.317   0.27251624 
   95500    274.46458   -1012.7129    142799.61   -49032.032    3769.1101   -52801.142   0.25651947 
   95600    276.46132   -981.78466    142813.86   -49020.201    3796.5305   -52816.731   0.27798199 
   95700    273.09413   -1024.6681    142785.55   -49051.676    3750.2902   -52801.967   0.27672304 
   95800    274.74822   -982.62921    142774.04   -48995.669    3773.0051   -52768.674   0.26686156 
   95900     271.7015   -979.89235    142787.74   -49017.227    3731.1658   -52748.393   0.27698864 
   96000    272.32754   -980.98833    142814.19   -48987.787     3739.763    -52727.55   0.27504638 
   96100    275.48361   -985.26129    142839.68   -48936.284     3783.104   -52719.388   0.26554175 
   96200    273.18712   -998.44669    142836.12   -48957.785    3751.5672   -52709.352   0.27259061 
   96300    275.61554   -979.12476    142811.45   -48978.298    3784.9158   -52763.214   0.27061728 
   96400    275.71789    -1009.741    142810.03   -49026.401    3786.3212   -52812.723   0.27113045 
   96500    275.36089   -1019.5812    142801.01   -49025.433    3781.4188   -52806.852   0.27399626 
   96600    274.67306   -1010.7396     142770.2   -49074.668     3771.973   -52846.641   0.26881583 
   96700    275.56916   -995.94081     142786.8   -49046.673    3784.2788   -52830.952   0.27365096 
   96800     274.7874    -1028.201    142785.62   -49065.141    3773.5433   -52838.684   0.28186506 
   96900    273.64592   -987.74298    142777.06   -49069.522    3757.8678    -52827.39   0.26804189 
   97000    270.40604   -982.13435    142788.38   -49138.712    3713.3757   -52852.088   0.27269074 
   97100    265.69371   -1017.7292    142790.15    -49110.42    3648.6633   -52759.083   0.28120483 
   97200    275.09367   -1015.3531    142788.61   -49055.129    3777.7491   -52832.878   0.25925244 
   97300    277.66566   -993.83666    142808.21   -48951.469    3813.0692   -52764.538    0.2791359 
   97400    271.58309   -987.79551    142811.82   -49038.686    3729.5398   -52768.226   0.27825042 
   97500    274.38408   -1034.2898    142802.57   -49018.287    3768.0046   -52786.292   0.27051855 
   97600     274.7715   -1021.2122     142821.4   -48958.141    3773.3249   -52731.466   0.27444604 
   97700    274.07691   -1029.9965    142822.16   -48920.609    3763.7864   -52684.395   0.28999365 
   97800    275.04868   -1004.7977    142801.68   -49023.469    3777.1313   -52800.601   0.26708527 
   97900    278.02156   -970.95586    142811.74   -48983.754    3817.9566    -52801.71   0.26262725 
   98000    270.67804   -1026.2511    142767.35   -49064.934    3717.1111   -52782.045   0.29139015 
   98100    271.82084   -985.63106    142773.76    -49047.23    3732.8046   -52780.035   0.27030199 
   98200     275.1502    -988.1329    142763.21   -49040.922    3778.5255   -52819.447   0.26876823 
   98300    273.56735   -995.83763    142793.32   -48979.772    3756.7888   -52736.561   0.28402991 
   98400    274.14208   -995.72721     142801.3   -49022.768    3764.6814    -52787.45   0.27670623 
   98500    270.20209   -1026.4755    142778.38   -48997.964     3710.575   -52708.539   0.27385101 
   98600    273.88501   -994.41943    142771.58   -49008.176    3761.1511   -52769.327   0.27512184 
   98700    277.39708   -989.36438    142817.67   -48980.917    3809.3808   -52790.298   0.27447267 
   98800    271.03388   -1029.0651    142810.48   -48985.299    3721.9977   -52707.297   0.27212158 
   98900    274.95994   -964.23624    142804.99   -49047.585    3775.9126   -52823.498   0.26530334 
   99000    271.22894   -989.96987    142802.23   -49041.854    3724.6764   -52766.531   0.27545266 
   99100    270.20756   -1025.8824    142784.73   -49101.388    3710.6502   -52812.039   0.26964526 
   99200    266.53592   -1033.2335    142780.04   -49104.943    3660.2291   -52765.172   0.27377729 
   99300    274.55048   -1005.3607    142797.57   -49032.905    3770.2897   -52803.195   0.27162902 
   99400    272.22288   -1002.5338    142817.15   -49074.295    3738.3257   -52812.621   0.26850078 
   99500    273.03383   -984.43507    142818.09   -49034.714    3749.4621   -52784.176   0.27091841 
   99600     276.4956   -996.58808    142806.46   -49028.287    3797.0013   -52825.289   0.26372858 
   99700     270.3133   -1048.9322    142778.68     -49073.2    3712.1022   -52785.302   0.28393097 
   99800    268.97419   -1013.9769    142774.99   -49085.932    3693.7128   -52779.644   0.27928115 
   99900    271.07692    -1016.261    142741.48   -49135.919    3722.5887   -52858.507   0.26577052 
  100000    274.96918   -973.23421    142754.41   -49052.302    3776.0395   -52828.341   0.27976084 
Loop time of 112.093 on 6 procs for 100000 steps with 4608 atoms

Performance: 385.395 ns/day, 0.062 hours/ns, 892.118 timesteps/s
98.9% CPU use with 6 MPI tasks x no OpenMP threads

MPI task timing breakdown:
Section |  min time  |  avg time  |  max time  |%varavg| %total
---------------------------------------------------------------
Pair    | 93.907     | 95.01      | 96.43      |  10.5 | 84.76
Neigh   | 6.3409     | 6.5051     | 6.7684     |   6.9 |  5.80
Comm    | 6.3399     | 7.8763     | 9.1727     |  39.7 |  7.03
Output  | 0.16835    | 0.16912    | 0.17232    |   0.3 |  0.15
Modify  | 1.8525     | 1.904      | 1.9404     |   2.4 |  1.70
Other   |            | 0.6277     |            |       |  0.56

Nlocal:        768.000 ave         773 max         764 min
Histogram: 1 2 0 0 0 0 1 1 0 1
Nghost:        1654.33 ave        1675 max        1617 min
Histogram: 1 0 0 0 0 0 3 0 1 1
Neighs:        0.00000 ave           0 max           0 min
Histogram: 6 0 0 0 0 0 0 0 0 0
FullNghs:      24075.7 ave       24314 max       23962 min
Histogram: 3 0 0 0 2 0 0 0 0 1

Total # of neighbors = 144454
Ave neighs/atom = 31.348524
Neighbor list builds = 6586
Dangerous builds = 0

undump              1
unfix               2
unfix               3
unfix               4




################################################
#######         Run Simulation         #########
################################################

reset_timestep      0
log                 log.run_${NAME}
log                 log.run_ice_273K_-1000atm_mW
