

read_data data.ice_${TEMP}K_${PRES}atm_mW group ice
read_data data.ice_273K_${PRES}atm_mW group ice
read_data data.ice_273K_-1000atm_mW group ice
Reading data file ...
  orthogonal box = (0.35624209 0.31665963 0.31665963) to (56.914268 50.590460 50.590460)
  3 by 1 by 2 MPI processor grid
  reading atoms ...
  4608 atoms
  reading velocities ...
  4608 velocities
  read_data CPU = 0.009 seconds
read_data data.liq_${TEMP}K_${PRES}atm_mW add append shift ${X_HI} ${YZ_LO} ${YZ_LO} group water
read_data data.liq_273K_${PRES}atm_mW add append shift ${X_HI} ${YZ_LO} ${YZ_LO} group water
read_data data.liq_273K_-1000atm_mW add append shift ${X_HI} ${YZ_LO} ${YZ_LO} group water
read_data data.liq_273K_-1000atm_mW add append shift 50.5904603677188 ${YZ_LO} ${YZ_LO} group water
read_data data.liq_273K_-1000atm_mW add append shift 50.5904603677188 -0.316659632282484 ${YZ_LO} group water
read_data data.liq_273K_-1000atm_mW add append shift 50.5904603677188 -0.316659632282484 -0.316659632282484 group water
Reading data file ...
  orthogonal box = (0.35624209 -0.36451665 -0.36451665) to (104.29587 50.638317 50.638317)
  3 by 1 by 2 MPI processor grid
  reading atoms ...
  4608 atoms
  reading velocities ...
  4608 velocities
  read_data CPU = 0.017 seconds

write_data data.icewater_test
System init for write_data ...
WARNING: Communication cutoff is 0.0. No ghost atoms will be generated. Atoms may get lost. (../comm_brick.cpp:167)

# Define potential
#
pair_style sw
pair_coeff * * /data/emrosky-sim/Freezing_Simulations/Melting/mW_fancy/mW.sw mW
Reading sw potential file /data/emrosky-sim/Freezing_Simulations/Melting/mW_fancy/mW.sw with DATE: 2019-02-27

# Delete water and ice atoms that are overlapping
#
delete_atoms overlap 2.5 water ice
System init for delete_atoms ...
Neighbor list info ...
  update every 1 steps, delay 10 steps, check yes
  max neighbors/atom: 2000, page size: 100000
  master list distance cutoff = 6.3065
  ghost atom cutoff = 6.3065
  binsize = 3.15325, bins = 33 17 17
  2 neighbor lists, perpetual/occasional/extra = 1 1 0
  (1) command delete_atoms, occasional, copy from (2)
      attributes: full, newton on
      pair build: copy
      stencil: none
      bin: none
  (2) pair sw, perpetual
      attributes: full, newton on
      pair build: full/bin/atomonly
      stencil: full/bin/3d
      bin: standard
Deleted 691 atoms, new total = 8525

# set timestep
#
timestep 10.0

# Define output
#
compute 1 all msd
thermo 50
thermo_style custom step temp press vol etotal ke pe c_1[4]

# Neighbor lists
#
neigh_modify delay 0 every 1 check yes

# Set fixes
#
fix 1 all momentum 10 linear 1 1 1 rescale
fix 2 all nph iso ${PRES} ${PRES} ${PCOUPL}
fix 2 all nph iso -1000 ${PRES} ${PCOUPL}
fix 2 all nph iso -1000 -1000 ${PCOUPL}
fix 2 all nph iso -1000 -1000 10000.0
fix 3 all temp/csvr ${TEMP} ${TEMP} ${TCOUPL} 837492
fix 3 all temp/csvr 273 ${TEMP} ${TCOUPL} 837492
fix 3 all temp/csvr 273 273 ${TCOUPL} 837492
fix 3 all temp/csvr 273 273 5000.0 837492


# Fix ice atoms in place
#
velocity ice set 0.0 0.0 0.0
fix 4 ice setforce 0.0 0.0 0.0

# Run 1.0 ns equilibration of water
#
dump 1 all atom 1000 eq.all.${NAME}.dump
dump 1 all atom 1000 eq.all.coexist_273K_-1000atm_mW.dump
run 100000
Neighbor list info ...
  update every 1 steps, delay 0 steps, check yes
  max neighbors/atom: 2000, page size: 100000
  master list distance cutoff = 6.3065
  ghost atom cutoff = 6.3065
  binsize = 3.15325, bins = 33 17 17
  1 neighbor lists, perpetual/occasional/extra = 1 0 0
  (1) pair sw, perpetual
      attributes: full, newton on
      pair build: full/bin/atomonly
      stencil: full/bin/3d
      bin: standard
Per MPI rank memory allocation (min/avg/max) = 4.596 | 4.604 | 4.612 Mbytes
Step Temp Press Volume TotEng KinEng PotEng c_1[4] 
       0    123.30293   -2186.1091    270377.01   -86336.325    3132.9331   -89469.258            0 
      50    148.27846   -1741.1996    268010.57   -86093.716    3767.5222   -89861.238   0.95575817 
     100    158.39156   -878.48753    264140.51   -85838.658    4024.4802   -89863.138    2.1756649 
     150    165.33419   -471.92492    262493.67   -85540.056    4200.8815   -89740.937    3.4580374 
     200    168.51892   -621.22154    262898.79   -85327.388    4281.8003   -89609.188     4.531261 
     250    174.63181   -1090.0871    264191.02   -85045.652    4437.1193   -89482.771    5.6730962 
     300    179.08889   -1012.9218    265172.42   -84726.829    4550.3666   -89277.195    7.0201535 
     350    182.60485   -1081.9306    265532.94   -84533.555    4639.7016   -89173.257    8.4310481 
     400    187.48566   -1198.1021     265570.5   -84329.514    4763.7153    -89093.23    10.167752 
     450    192.98398   -929.69354    265140.77   -84098.241     4903.419    -89001.66    11.990703 
     500    195.74359   -932.36506    264980.83   -83923.526    4973.5362   -88897.062    13.771747 
     550    202.61381     -856.533    265257.35   -83749.316    5148.0978   -88897.414    15.516073 
     600    199.68648   -1006.0856    265926.12   -83567.271    5073.7189    -88640.99    17.305421 
     650    202.95707   -1073.2954     266628.2   -83380.323    5156.8196   -88537.143    19.224585 
     700    206.28673   -1277.9184    267054.14   -83195.337     5241.421   -88436.758    21.146309 
     750    213.83939   -1159.0163    266698.19   -83063.649    5433.3221   -88496.971    23.137072 
     800    217.15056   -885.81765    266302.99   -82903.613    5517.4536   -88421.067    25.368635 
     850    220.85628   -800.07034    266598.02   -82734.438    5611.6102   -88346.048    27.856695 
     900    218.05808   -928.78809    267503.14    -82572.12    5540.5124   -88112.632    30.116642 
     950    216.03961   -1188.0882    268149.92   -82417.919    5489.2262   -87907.145    32.334803 
    1000    222.43626   -977.98345    267961.94   -82297.905    5651.7551    -87949.66    34.639024 
    1050    223.21806   -787.40063    267536.51   -82195.729    5671.6194   -87867.349    36.955122 
    1100    233.21161   -983.19661    267566.01    -82107.67    5925.5396    -88033.21     39.39634 
    1150     228.8528   -807.53736    267823.91    -81996.61    5814.7891   -87811.399     42.26278 
    1200    233.76631   -1095.5339    268185.43   -81909.155    5939.6338   -87848.789    45.090728 
    1250    233.41883   -832.08179    268494.73   -81815.898    5930.8047   -87746.703    47.596753 
    1300    233.49644   -1035.4253    268842.71    -81734.04    5932.7767   -87666.817    49.900177 
    1350    232.11515   -957.69685    268881.29   -81645.702    5897.6803   -87543.382    52.391361 
    1400    233.81982   -827.18055    268757.58   -81534.119    5940.9933   -87475.112    54.967808 
    1450    238.40218   -846.62574     268632.8   -81439.668    6057.4238   -87497.092    57.623884 
    1500     243.2945   -1033.4574    268840.93   -81369.938    6181.7299   -87551.668    60.211689 
    1550    241.88713    -855.6522    268842.03   -81302.199     6145.971    -87448.17    63.037105 
    1600    243.48561   -850.97402    268915.28   -81218.863    6186.5857   -87405.449    65.900884 
    1650    243.18882    -1016.502    269174.84   -81160.287    6179.0448   -87339.332    68.519222 
    1700    246.54897   -774.69215    269565.06   -81066.479    6264.4209     -87330.9    71.212305 
    1750    244.07432   -884.31536    270010.87   -81004.198    6201.5439   -87205.742    73.908528 
    1800    248.20983   -1157.0339    270229.65   -80913.299    6306.6207   -87219.919    76.724737 
    1850    251.43846   -1039.7107    270009.05   -80837.695    6388.6551    -87226.35    79.823893 
    1900    247.90835    -829.6687    269647.12   -80760.139    6298.9608     -87059.1    82.592124 
    1950    253.82436   -972.23073     269631.8    -80694.06    6449.2771   -87143.337    85.341384 
    2000    253.76415   -1012.4134    269898.21   -80607.725    6447.7473   -87055.473    88.419954 
    2050    254.01256   -1082.4107    270277.22   -80594.776    6454.0589   -87048.835    91.794801 
    2100    254.59519   -1224.5449    270424.36   -80563.836    6468.8628   -87032.699    94.846316 
    2150     254.9755   -1045.7115    270326.73   -80509.703    6478.5257   -86988.229    98.233029 
    2200     256.3043   -885.23277    270069.72   -80452.278    6512.2886   -86964.567    100.92317 
    2250    258.71219   -1117.8313    270193.69   -80421.218    6573.4693   -86994.687    104.17805 
    2300     258.3854    -1158.318    270364.89   -80333.101     6565.166   -86898.267    107.07791 
    2350    258.76416   -719.20298    270302.46   -80254.398    6574.7897   -86829.187    110.39901 
    2400    262.01386   -1054.9961    270598.62   -80233.144    6657.3595   -86890.503    113.50252 
    2450    263.87179   -1133.1787    270721.73   -80191.869    6704.5665   -86896.435    116.63637 
    2500    264.46982   -791.34878    270753.93   -80123.581    6719.7615   -86843.343    119.93194 
    2550    261.86642    -1127.304    271008.66   -80094.737    6653.6132    -86748.35    123.64301 
    2600    261.11595   -1135.9999     270882.5   -80078.455     6634.545       -86713    126.82537 
    2650    266.47236   -804.20174    270598.28   -80010.069    6770.6428   -86780.712    130.03495 
    2700    267.84973   -938.70344    270786.98   -79980.138    6805.6397   -86785.778    133.47504 
    2750    264.35938   -989.12601     271245.2   -79995.086    6716.9555   -86712.041    136.77442 
    2800    265.24804    -1145.389    271529.59    -79968.82     6739.535   -86708.355    140.20705 
    2850    265.86276   -964.08546    271340.24    -79977.41    6755.1541   -86732.564    143.64074 
    2900    264.23941   -948.87765    271201.94   -79992.333    6713.9072    -86706.24    147.32435 
    2950    263.68891   -765.58257    270942.15   -79990.165    6699.9198   -86690.085    150.35807 
    3000    266.94321   -1064.2144    270763.99   -79950.539    6782.6064   -86733.146    153.17291 
    3050    267.99302   -987.94636    270689.62   -79960.611    6809.2805   -86769.892    156.87439 
    3100    268.86601   -982.09549    270614.14   -79950.507    6831.4618   -86781.969    160.26846 
    3150    268.19754   -791.72524    270713.62   -79955.347     6814.477   -86769.824    163.59087 
    3200    269.70606   -936.82893    271110.36   -79913.196    6852.8061   -86766.002    167.08184 
    3250    272.27853   -1162.1911    271499.62   -79879.973    6918.1686   -86798.141    170.63573 
    3300    269.22843    -1079.548    271609.64   -79833.401    6840.6704   -86674.072    174.60888 
    3350    271.97116   -1181.3491    271576.29   -79743.641    6910.3589       -86654    178.25372 
    3400    267.60888   -1006.9261    271344.81   -79790.242    6799.5202   -86589.762    181.72811 
    3450    270.47919   -1139.5839    271037.54   -79817.668    6872.4502   -86690.118    185.47863 
    3500    269.26245   -928.69854    270828.55   -79804.413    6841.5347   -86645.948    189.61428 
    3550    268.39126   -895.69637    270838.26   -79763.501    6819.3992     -86582.9    193.22072 
    3600    270.34814   -898.67194    271097.09   -79776.374    6869.1205   -86645.494    197.96461 
    3650    265.60655   -863.99516    271617.56   -79772.118    6748.6442   -86520.763    201.94677 
    3700    271.38856   -1066.2161    271835.64   -79759.011    6895.5558   -86654.567    205.60642 
    3750    266.85158   -1081.9336    271689.63   -79781.664    6780.2783   -86561.942    209.20063 
    3800     267.8804   -972.11388    271460.65   -79782.087    6806.4191   -86588.506    212.49235 
    3850    270.36715   -1118.6951    271334.54   -79776.885    6869.6034   -86646.488    216.83476 
    3900    270.42098   -1004.4406    271305.72   -79784.313    6870.9711   -86655.284    220.15263 
    3950    273.55766   -815.28382    271068.31   -79747.199    6950.6694   -86697.868    223.33851 
    4000    269.90872   -1179.5435    271264.81   -79746.891    6857.9554   -86604.847    227.02665 
    4050    268.35732   -986.48075    271457.01   -79731.458    6818.5369   -86549.995    230.34642 
    4100    267.83409   -1001.1198     271590.7   -79721.071    6805.2423   -86526.314    233.39589 
    4150    269.31777   -1215.3893    271816.33   -79680.465    6842.9403   -86523.406    237.06528 
    4200    270.39203   -1058.9582    272005.38    -79671.38    6870.2357   -86541.616    240.47397 
    4250    270.88773   -1216.8251    271978.27   -79646.747    6882.8305   -86529.578    242.99146 
    4300    275.30474   -1006.5788    271472.29   -79670.299    6995.0597   -86665.359    245.39529 
    4350    269.22859   -810.71915    271190.18   -79685.981    6840.6743   -86526.655    249.13135 
    4400     273.3292   -854.91318    271506.82   -79679.551    6944.8644   -86624.416    252.68403 
    4450    274.52742   -1134.0968    272016.39   -79614.078    6975.3094   -86589.387    255.89144 
    4500    274.93162   -1200.7752     272228.2   -79561.559    6985.5795   -86547.139    259.10842 
    4550    273.99512   -1193.5406    272182.02   -79517.409    6961.7844   -86479.194    262.83292 
    4600    276.86707   -877.66038    271727.63   -79527.059    7034.7562   -86561.816    266.43454 
    4650    276.50338   -898.50519    271538.36   -79472.731    7025.5155   -86498.247    269.76032 
    4700    275.49973   -1012.9333    271856.42   -79454.736    7000.0142    -86454.75    272.85346 
    4750    270.43808   -1077.8836    272054.73   -79462.441    6871.4056   -86333.846    276.59098 
    4800    277.21197   -1135.3689     272095.3   -79467.403    7043.5196   -86510.923    281.45356 
    4850    276.96245   -978.52899    272052.88   -79477.568    7037.1796   -86514.748    284.64947 
    4900    272.80659   -1011.5313    272099.66   -79468.355    6931.5857   -86399.941    288.41692 
    4950    272.19321   -882.03465    271898.46   -79477.669    6916.0007    -86393.67    291.74771 
    5000    275.22968   -1029.3376    271633.46   -79501.725    6993.1526   -86494.877    295.30447 
    5050    276.34736   -892.11304    271385.02   -79522.699    7021.5511    -86544.25    298.13017 
    5100    271.44267    -842.8295    271404.54   -79535.832    6896.9308   -86432.762      301.528 
    5150    272.69627   -979.58102    271803.26   -79556.898    6928.7827   -86485.681    305.45931 
    5200    272.31155   -963.68329    271999.31    -79551.64    6919.0076   -86470.647    308.87702 
    5250    276.88907   -918.59288    271814.36   -79542.691     7035.315   -86578.006    311.75748 
    5300    278.74731   -867.96978    271491.18   -79538.429    7082.5301   -86620.959    314.75533 
    5350    275.84303   -687.44675    271350.45   -79518.181     7008.737   -86526.918    318.77421 
    5400    274.30031   -949.49735    271810.52   -79561.792    6969.5388   -86531.331    322.24184 
    5450    270.38395   -1031.3283    272344.66   -79536.864    6870.0303   -86406.894    325.55274 
    5500    272.43016   -1068.3513    272360.53   -79534.224    6922.0211   -86456.245    328.42263 
    5550    278.92696   -1051.3959    271989.64   -79593.105    7087.0946     -86680.2    331.62906 
    5600    275.45675   -856.11607    271435.89   -79654.623    6998.9222   -86653.545    335.25258 
    5650    273.44102     -830.733    271239.99    -79733.88    6947.7055   -86681.586     337.7945 
    5700    268.74134   -1001.8091    271480.99   -79706.914    6828.2941   -86535.208    341.28721 
    5750    272.25293   -1181.8928    271742.76   -79679.683    6917.5182   -86597.201     344.8495 
    5800    265.54614    -968.6859    271814.76   -79670.905    6747.1091   -86418.014     347.6441 
    5850    272.28818    -828.1536     271513.7   -79615.444    6918.4136   -86533.858    350.67187 
    5900    275.48184   -948.06524    271269.21   -79647.969    6999.5597   -86647.529    353.44898 
    5950    274.60417   -1054.7645    271398.39   -79656.489    6977.2593   -86633.748    356.83466 
    6000    269.06732   -942.54252    271583.72   -79650.983    6836.5769    -86487.56    360.21104 
    6050    275.42446   -976.94088    271548.34   -79603.682    6998.1016   -86601.784    363.40249 
    6100    273.37746   -808.55891    271605.03   -79610.485    6946.0906   -86556.576     367.4161 
    6150    274.35975   -884.01519    271902.13   -79589.878    6971.0492   -86560.927    370.73942 
    6200     272.9456    -987.1926    272102.84   -79609.196    6935.1177   -86544.313    373.03787 
    6250    277.86522   -974.14776    271983.98   -79591.635    7060.1175   -86651.752    377.43561 
    6300    277.08336   -945.35321    271944.84   -79560.619    7040.2519   -86600.871    381.24653 
    6350      271.757   -686.64424    271951.07   -79531.888    6904.9173   -86436.806    384.90462 
    6400    276.58493   -1049.8701    271892.11   -79599.119    7027.5874   -86626.706    388.18903 
    6450    269.43126   -1149.4258    271751.91   -79605.011     6845.824   -86450.835    391.16287 
    6500    275.28915   -1088.1299    271428.48   -79554.752    6994.6637   -86549.416    394.87516 
    6550    273.35789   -742.02587    271004.58   -79546.345    6945.5933   -86491.939    398.16158 
    6600    277.05298   -837.47593    271216.43   -79562.958    7039.4799   -86602.438    402.14863 
    6650    276.64906   -1247.4767    271887.25   -79592.143    7029.2169    -86621.36    405.04448 
    6700    271.07529    -1166.522    272020.74   -79607.476    6887.5961   -86495.073    409.12726 
    6750    272.99493   -958.90121    271579.31   -79635.625    6936.3711   -86571.996    411.78877 
    6800    273.30495   -922.39756    271084.69   -79612.453    6944.2484   -86556.701      414.421 
    6850    271.61918   -754.97154    270761.19   -79611.536    6901.4156   -86512.952    416.80865 
    6900     273.2586   -796.64471    271092.78   -79574.607    6943.0705   -86517.677    420.42685 
    6950    277.03116   -1178.3414    271953.26   -79560.396    7038.9255   -86599.321    424.39635 
    7000    274.41976   -1059.7653    272511.98   -79530.346    6972.5738    -86502.92    427.74044 
    7050    273.66297   -1123.9172    272303.46   -79519.502    6953.3451   -86472.847    431.31922 
    7100    272.04427   -839.46309    271593.32   -79528.167    6912.2165   -86440.384    433.20363 
    7150    272.77913   -743.12871    271044.84   -79586.309     6930.888   -86517.197    435.94796 
    7200    269.37066   -805.40778    271203.91   -79622.455    6844.2841   -86466.739    438.80556 
    7250    273.79523   -1132.0439    271756.52   -79570.093    6956.7056   -86526.799    441.34385 
    7300    276.01157   -1112.7836    272287.44   -79542.657    7013.0193   -86555.676    445.08111 
    7350    275.35695   -925.89624    272436.25   -79531.433    6996.3863   -86527.819     448.0093 
    7400    277.05016   -1232.7322    272248.69   -79496.615    7039.4083   -86536.023    451.51716 
    7450    272.79317   -891.76063    271761.86   -79476.492    6931.2448   -86407.737    453.82468 
    7500    277.72638   -1150.5747    271491.85   -79543.519    7056.5899   -86600.109    456.40391 
    7550    273.45786   -896.82337    271183.56   -79581.717    6948.1335   -86529.851    459.51982 
    7600    277.09959   -891.71687    271221.35   -79531.591     7040.664   -86572.255    462.16401 
    7650    273.42355   -999.76461    271532.54   -79534.743    6947.2617   -86482.004    465.56715 
    7700    274.39702   -1233.4579    271894.78   -79523.757     6971.996   -86495.753    469.34213 
    7750    276.78876   -1032.8437    272072.51   -79483.574    7032.7663    -86516.34    473.55353 
    7800    274.46198   -1072.3537    272076.43   -79518.481    6973.6467   -86492.128    478.05472 
    7850    277.10596   -1059.2773    271722.09   -79504.729    7040.8258   -86545.554     481.0359 
    7900    273.69386   -908.12498    271332.59   -79548.757    6954.1299   -86502.886    484.51042 
    7950    274.74898   -955.77711    271238.24   -79593.253    6980.9389   -86574.192    487.26363 
    8000    276.79626   -906.47553    271224.53   -79580.109    7032.9571   -86613.066    490.49917 
    8050    270.24903   -1034.6257    271280.38   -79564.331    6866.6021   -86430.933    493.21816 
    8100    270.79162   -1081.8247    271605.76   -79603.266    6880.3884   -86483.654    496.35543 
    8150    272.49552   -1078.4701    271972.74   -79547.539    6923.6819   -86471.221    499.19226 
    8200    273.85559   -1140.4686    272002.89    -79576.67    6958.2393   -86534.909    501.84074 
    8250    273.72756   -1146.4159    271767.46   -79575.917    6954.9862   -86530.903    503.59473 
    8300    274.33657    -788.9687    271378.69   -79559.612    6970.4601   -86530.072    505.90255 
    8350     274.7494    -820.0827    271150.61    -79623.03    6980.9496    -86603.98    508.80894 
    8400    269.53662   -746.04549    271319.62   -79621.812    6848.5009   -86470.313    512.91654 
    8450    272.35292    -958.0885    272014.36    -79612.66    6920.0586   -86532.719    517.18496 
    8500    271.18998   -1111.9179    272710.99   -79581.861    6890.5103   -86472.371     521.1526 
    8550    273.29957   -1265.3165    272880.58   -79603.861    6944.1117   -86547.972    524.59073 
    8600     266.3162    -918.5442    272181.91   -79605.791    6766.6752   -86372.466     525.7411 
    8650    270.29194   -901.77319    271226.19   -79614.168    6867.6924    -86481.86    528.54143 
    8700    271.38311    -909.2429    270665.49   -79617.274    6895.4174   -86512.692    532.16527 
    8750    272.42915   -716.06302    270652.32   -79585.663    6921.9955   -86507.659    533.55243 
    8800    275.96987   -1074.3281    271212.26   -79603.858    7011.9598   -86615.817    538.01958 
    8850    273.09221   -1103.8548    271729.74   -79636.727    6938.8429    -86575.57    542.60077 
    8900    272.36188    -1154.335    272038.03   -79656.437    6920.2863   -86576.724    545.91055 
    8950    272.80212   -1159.9947    272020.35   -79630.666    6931.4721   -86562.138    549.31603 
    9000    275.39438   -1066.8009    271451.09   -79634.213    6997.3373    -86631.55    551.58971 
    9050    274.22624   -907.19568    270960.22   -79641.544    6967.6568   -86609.201    554.50344 
    9100    271.93635   -1016.0749    271041.85   -79693.606    6909.4743    -86603.08    558.33755 
    9150    267.60675   -800.95253    271353.24   -79649.007     6799.466   -86448.473    561.36943 
    9200    268.64071    -932.2898    271925.62   -79648.034    6825.7373   -86473.772    565.20016 
    9250    272.38064   -1302.0042    272233.52   -79679.564     6920.763   -86600.327    569.83128 
    9300    269.27393    -1091.147    271661.88   -79729.905    6841.8264   -86571.731    572.48013 
    9350    274.69767     -869.052    270909.15   -79721.602    6979.6351   -86701.237    574.26843 
    9400    270.54567   -873.17978    270603.11   -79719.559    6874.1394   -86593.698    576.24387 
    9450    274.35403   -968.06962    270923.57   -79676.973    6970.9038   -86647.877    578.06707 
    9500    271.12555   -1005.5052    271543.55    -79687.28    6888.8732   -86576.153    580.98164 
    9550     277.0909   -1260.6828    272025.96   -79666.264    7040.4433   -86706.708    585.43106 
    9600    269.20241   -1185.7907    272028.76   -79639.689    6840.0093   -86479.698    587.68057 
    9650    269.41949   -949.07603    271482.13   -79674.307     6845.525   -86519.832    589.88042 
    9700    272.01356   -909.99851    271118.94    -79681.36    6911.4362   -86592.796    592.71215 
    9750    270.02731   -916.49145    271102.85   -79684.629    6860.9686   -86545.598    595.86757 
    9800    274.22039    -913.8415    271320.36   -79686.837    6967.5081   -86654.345    599.42861 
    9850    275.18235   -1068.4622    271495.79   -79679.629      6991.95   -86671.579     603.5524 
    9900    270.08661   -1046.6433    271475.86   -79682.194    6862.4754   -86544.669    606.70738 
    9950    275.46374     -876.186    271420.89   -79664.266    6999.0998   -86663.365    609.82714 
   10000    270.44582   -1075.0714     271270.4   -79665.713    6871.6022   -86537.316    613.25951 
   10050    269.95197   -941.56228    271187.47   -79660.646    6859.0544     -86519.7    615.86782 
   10100    273.22272   -891.69823    271457.15   -79631.504    6942.1589   -86573.663    617.87976 
   10150     274.9128   -1245.7976    271941.88    -79607.91    6985.1013   -86593.011    621.21524 
   10200    275.17438   -1003.7536    272112.47   -79590.428    6991.7474   -86582.175    623.79849 
   10250    274.21726   -1146.6019    272167.77   -79596.916    6967.4287   -86564.344    626.18773 
   10300    274.99914    -1326.239     271640.8   -79581.537    6987.2949   -86568.832    628.60001 
   10350    275.24856   -910.69698    270806.39   -79592.195    6993.6322   -86585.827    629.42798 
   10400    276.67436   -711.45878    270657.51   -79664.568    7029.8596   -86694.428    632.34612 
   10450    271.48629   -806.70037     271346.2   -79629.895    6898.0391   -86527.935    636.68027 
   10500    272.46787   -1120.1407    272197.93   -79612.258    6922.9795   -86535.237    639.69389 
   10550    267.67812   -901.81189    272424.32    -79590.36    6801.2794   -86391.639    643.39068 
   10600    274.41361   -1238.0115    272198.75   -79591.387    6972.4176   -86563.804    647.15766 
   10650    270.94451   -855.53622    271612.57   -79581.015    6884.2732   -86465.288    648.16364 
   10700    275.58372   -807.03574    271448.92   -79612.435    7002.1483   -86614.583    650.84821 
   10750    266.60537   -836.65905    271554.69   -79576.612    6774.0225   -86350.635    654.70176 
   10800    272.00319   -1133.8908    271830.16   -79592.287    6911.1727   -86503.459    658.89876 
   10850    270.97017   -882.01338    271773.09   -79538.557    6884.9252   -86423.482    662.83637 
   10900    272.11941   -1036.4613    271662.28   -79543.594    6914.1256   -86457.719    664.88452 
   10950    275.86452   -1031.9437    271480.78   -79557.099    7009.2829   -86566.381    668.44861 
   11000    271.71731   -934.67111    271517.61   -79596.261    6903.9089    -86500.17    672.28588 
   11050    269.53999   -1198.4627    271827.51   -79611.259    6848.5867   -86459.846    674.26089 
   11100    270.65632   -889.06286    271762.35   -79594.007    6876.9506   -86470.958    676.79089 
   11150    272.23468   -1024.1096    271799.74   -79598.883    6917.0543   -86515.937    679.41282 
   11200    274.04252   -1044.2309    271787.21   -79588.638    6962.9888   -86551.627    682.22599 
   11250    270.52636   -775.29911    271642.21    -79619.27    6873.6488   -86492.918       683.97 
   11300    276.83543   -1045.6131    271542.24   -79616.724    7033.9523   -86650.676     685.5158 
   11350    271.20456   -953.56663    271505.35   -79647.102    6890.8807   -86537.983    687.41674 
   11400    271.16749   -1296.9069    271776.16   -79644.287    6889.9389   -86534.226    688.76311 
   11450    273.01468    -1064.564    271459.76   -79699.737     6936.873    -86636.61    691.91681 
   11500    272.29439   -1021.2742    271098.81   -79695.958    6918.5716   -86614.529    694.10176 
   11550    273.17041   -940.83748    270955.62   -79727.245    6940.8298   -86668.075    697.01534 
   11600    270.16905   -840.40464    271129.24   -79707.124      6864.57   -86571.694    699.55792 
   11650    274.32495   -1016.2145    271535.37   -79692.325    6970.1649    -86662.49    702.97518 
   11700    268.37458   -1058.3873    271714.11   -79653.397    6818.9755   -86472.372    705.63902 
   11750    266.37422   -924.18369    271764.14   -79663.543    6768.1493   -86431.693    708.57218 
   11800    267.63529   -1020.2732    271642.45    -79680.18     6800.191   -86480.371    709.92207 
   11850    272.45035   -776.87784    271554.43   -79618.912    6922.5341   -86541.446    712.26901 
   11900    276.07392   -1217.5575    271791.74   -79699.304    7014.6034   -86713.907    716.06226 
   11950    272.77784   -1214.6859    272045.21   -79687.128    6930.8552   -86617.983    721.22821 
   12000     270.9905   -1031.5183    272039.32   -79684.823    6885.4417   -86570.265    724.11088 
   12050    268.99295   -828.02434    271565.11    -79677.63    6834.6871   -86512.317    725.93611 
   12100    274.83271   -753.56293    270965.87   -79659.636    6983.0662   -86642.703    727.35328 
   12150    275.75173   -944.83344    270682.21    -79657.21    7006.4171   -86663.628    729.29147 
   12200    272.98335   -756.87834    270775.96   -79648.124    6936.0769     -86584.2    732.60331 
   12250    278.84057   -1095.0641    271482.95   -79611.951    7084.8996    -86696.85    736.90296 
   12300    268.99561    -1225.012     272220.1    -79603.46    6834.7549   -86438.215    739.70259 
   12350    272.69302   -1355.8683    272159.98   -79632.328       6928.7   -86561.028    741.94925 
   12400    272.22565   -1008.2737    271561.92   -79674.674     6916.825   -86591.499    744.12153 
   12450    274.33684   -924.61333    271105.35   -79656.893     6970.467    -86627.36    744.90511 
   12500    275.10931   -1133.0023    270951.92   -79630.513    6990.0941   -86620.607    747.23363 
   12550    272.43309   -1049.9112    270779.75   -79682.537    6922.0957   -86604.633    750.45699 
   12600    274.52017   -849.03197     270858.6   -79633.578     6975.125   -86608.703    754.32451 
   12650    273.93132   -944.70803    271340.61   -79644.631    6960.1633   -86604.794    758.45115 
   12700    274.12302   -991.77007    271961.85   -79612.005    6965.0342    -86577.04    763.26381 
   12750    268.07589   -1119.6794    272288.54   -79647.675    6811.3862   -86459.061    766.11544 
   12800    272.15225   -1145.0647    271952.03   -79669.722    6914.9601   -86584.682    767.78262 
   12850    273.38818   -1131.7505    271433.23   -79668.016     6946.363    -86614.38    769.90406 
   12900    275.73668   -915.41878    271081.22   -79656.337    7006.0347   -86662.372    771.48453 
   12950    270.80997   -822.81124    271273.49   -79661.183    6880.8547   -86542.038     773.2671 
   13000    280.29789   -1047.2813    271688.27   -79637.313    7121.9278   -86759.241    779.16778 
   13050    273.03969   -1281.1656    271927.35   -79618.722    6937.5085    -86556.23    782.73329 
   13100    271.86153   -965.39252    271639.28   -79596.839    6907.5732   -86504.412    786.02902 
   13150    272.36888   -798.41429    271395.42   -79622.184    6920.4641   -86542.648    788.08235 
   13200    273.23791   -1144.3747    271481.18   -79636.444    6942.5449   -86578.989    791.42572 
   13250    271.31095   -968.98702    271502.99   -79682.939    6893.5839   -86576.523     793.0784 
   13300    274.38767   -912.14854    271444.17   -79684.254    6971.7585   -86656.012    793.49303 
   13350    273.03385   -889.03992    271351.72   -79657.251      6937.36   -86594.611    795.13336 
   13400    271.17484   -1176.8086    271370.81   -79676.928    6890.1254   -86567.054     796.7094 
   13450    271.96541   -875.24333    271359.24   -79710.142    6910.2127   -86620.355    798.62634 
   13500    268.09586   -871.63248    271461.44   -79668.448    6811.8934   -86480.341    800.88807 
   13550    268.59914   -937.16624    271569.19   -79742.911    6824.6811   -86567.592    803.79542 
   13600     265.8248    -986.7295    271747.09   -79741.773    6754.1895   -86495.963    808.15749 
   13650    270.92682   -1227.5977    271707.29   -79745.843    6883.8237   -86629.666    811.77767 
   13700    271.45357   -825.06899    271140.87   -79747.551    6897.2076   -86644.759    813.70722 
   13750    271.23202   -928.75738    270918.02   -79734.537    6891.5785   -86626.115    815.30646 
   13800    271.63939    -949.5335    271061.07   -79780.567     6901.929   -86682.496    818.59238 
   13850    271.64477    -747.9071    271098.84   -79774.561    6902.0656   -86676.627    821.99979 
   13900    272.15142   -822.20989    271336.22   -79746.118    6914.9389   -86661.057    824.87845 
   13950    273.33015   -1085.8261    271603.56   -79759.307    6944.8887   -86704.196     828.3025 
   14000    268.99143   -1033.3258    271677.47    -79710.77    6834.6485   -86545.419    830.21088 
   14050     268.3715   -910.49004    271444.54   -79699.514    6818.8972   -86518.412    831.51629 
   14100    269.86975   -771.34384    271169.29   -79698.992    6856.9652   -86555.958    833.37317 
   14150    269.83647   -948.88743    271397.52   -79693.512    6856.1198   -86549.631    835.96943 
   14200    272.58232    -1236.733    271846.09   -79683.589    6925.8875   -86609.476     839.2075 
   14250     272.3008    -1127.843    272243.01   -79606.223    6918.7344   -86524.958    842.53754 
   14300    274.65369    -1268.837    272330.95   -79626.551    6978.5176   -86605.069     846.1274 
   14350    274.23525   -1106.8545    271814.36   -79633.528    6967.8857   -86601.414    849.08649 
   14400     275.0124   -1060.7321    271314.06   -79624.871     6987.632   -86612.503    850.29734 
   14450    270.26898    -788.4773    271126.77    -79668.95    6867.1091   -86536.059    852.21932 
   14500    269.36105   -955.88089    271173.16   -79682.091    6844.0401   -86526.131     855.5692 
   14550    267.48147    -1170.782    271165.56   -79719.419    6796.2829   -86515.702    858.54232 
   14600    270.19468   -951.17863    271104.26   -79712.633    6865.2213   -86577.854     860.8082 
   14650    269.66014   -951.97475    271250.17   -79722.893    6851.6394   -86574.532     863.4377 
   14700    273.61923   -992.99179    271648.44    -79682.85    6952.2338   -86635.084    868.09234 
   14750    271.52083    -1107.278    271782.12   -79687.614    6898.9165    -86586.53    871.03586 
   14800    272.85845   -1065.5997    271732.79   -79738.772    6932.9035   -86671.676    873.56097 
   14850    273.99326   -1166.9768    271610.36   -79751.409    6961.7371   -86713.146    876.68456 
   14900    272.27455   -853.08498    271158.62   -79764.813    6918.0674    -86682.88    877.56799 
   14950    268.79267   -841.56523    270867.09   -79838.769    6829.5983   -86668.367      880.339 
   15000    267.96275   -900.64067    270743.89   -79831.709    6808.5115    -86640.22    882.76077 
   15050    267.68292   -895.20534    270809.21   -79830.552    6801.4014   -86631.953    886.30922 
   15100     270.0247   -1160.7777    271134.85   -79801.236    6860.9023   -86662.139    888.43565 
   15150    269.75963   -1011.9071    271226.04   -79807.484    6854.1672   -86661.651    889.72438 
   15200    268.46085   -907.28054    271229.56   -79793.043    6821.1674   -86614.211    891.33015 
   15250    270.25352    -1207.884    271314.21   -79795.477    6866.7162   -86662.193    893.93878 
   15300    266.07252   -1130.4601    271299.52   -79754.461    6760.4836   -86514.945    895.75637 
   15350    273.14727   -1127.1466    271284.64   -79754.973    6940.2418   -86695.215    897.50107 
   15400    271.38299   -992.67452    271157.96   -79725.158    6895.4144   -86620.573    899.93004 
   15450    272.61208   -1032.3022    271095.51   -79735.252    6926.6435   -86661.895    902.77708 
   15500    268.43133   -879.05045    271317.81   -79719.612    6820.4173   -86540.029    907.21927 
   15550    268.88749   -946.72461     271751.6   -79720.485    6832.0076   -86552.493    910.97761 
   15600    266.82274   -1083.3924    272033.46   -79708.479    6779.5456   -86488.025    914.63296 
   15650    267.93667   -1127.8082     271807.4   -79715.128    6807.8488   -86522.977    917.65849 
   15700    270.62394   -910.13754    271373.09    -79699.61     6876.128   -86575.738    917.43966 
   15750    266.80449   -757.44954    271155.46   -79711.506    6779.0818   -86490.588    919.52795 
   15800     270.3193   -822.27553    271123.25   -79704.003    6868.3877   -86572.391    920.82687 
   15850    273.28509   -841.10121    271371.68   -79688.471    6943.7438   -86632.215    924.12708 
   15900     274.6585    -1160.239    271909.58   -79685.099    6978.6399   -86663.739    926.33377 
   15950    273.51156   -1180.6358    271969.98   -79651.066    6949.4979   -86600.563     928.6273 
   16000    275.92893    -1085.841    271638.57   -79633.257    7010.9196   -86644.176    930.58763 
   16050    274.72953   -1048.2044    271317.18   -79596.964    6980.4446   -86577.408    931.17684 
   16100    275.98379   -756.58391    271151.82   -79594.211    7012.3134   -86606.525    934.19085 
   16150    271.15126   -895.55003    271404.55   -79594.467    6889.5264   -86483.993    939.01436 
   16200    272.33064   -1023.0062    271921.62   -79535.724    6919.4926   -86455.216    942.31661 
   16250    274.44369   -1154.7572    272523.04    -79517.11    6973.1819   -86490.292     946.6604 
   16300    273.05876   -1313.4647     272603.2   -79534.284    6937.9929   -86472.277    949.82083 
   16350    274.08088   -1055.2552    272091.69   -79563.897    6963.9634    -86527.86    950.48608 
   16400    279.48077   -993.86109    271384.88   -79558.694    7101.1661    -86659.86    951.30106 
   16450    273.42501   -753.42793     271088.9   -79602.796    6947.2987   -86550.095    954.38863 
   16500    276.28718   -752.91613    271310.31   -79577.471    7020.0222   -86597.493    958.21366 
   16550    274.76685   -1011.5617    271950.18   -79535.784     6981.393   -86517.177    962.43057 
   16600     274.8577   -1427.0458    272308.42   -79507.503    6983.7012   -86491.204    965.57932 
   16650     278.3868   -957.94659    271981.52   -79460.224    7073.3701   -86533.594    967.89024 
   16700    276.09188    -1090.553    271750.16   -79542.024    7015.0597   -86557.084    969.44596 
   16750    272.59314   -943.73523    271654.63   -79562.671    6926.1624   -86488.834    971.85427 
   16800    274.89744    -1152.875    271691.67   -79584.702    6984.7108   -86569.413    974.58582 
   16850    274.09372   -794.45858    271449.57   -79621.026    6964.2896   -86585.316    977.67721 
   16900    273.73214   -1000.1257    271661.46   -79614.799    6955.1025   -86569.902    978.81974 
   16950    273.43814   -860.92654    271845.56   -79574.382    6947.6324   -86522.015     980.8335 
   17000    272.81849    -1023.578    271888.89   -79605.771    6931.8882   -86537.659    984.37582 
   17050     272.4185   -949.92689    271766.35   -79578.906    6921.7249   -86500.631     987.7115 
   17100    274.20482   -1059.1207    271568.35   -79584.513    6967.1127   -86551.625    991.37881 
   17150    274.26677   -862.03283    271487.67    -79530.55    6968.6867   -86499.237    993.02154 
   17200    273.37029   -909.24727    271639.81   -79487.629    6945.9085   -86433.537    996.95332 
   17250     274.6057   -1076.5353    271763.78    -79488.57    6977.2983   -86465.868     1001.069 
   17300    276.98553   -1210.5385    271722.77    -79445.78     7037.766   -86483.546    1003.6742 
   17350    275.76348   -1016.8255    271561.25   -79491.259    7006.7156   -86497.975    1005.0608 
   17400    276.54512   -951.04107     271244.9   -79520.017    7026.5759   -86546.592    1006.7471 
   17450    279.50657   -923.06467     271148.2   -79491.558    7101.8217    -86593.38    1010.8825 
   17500    275.39986   -806.20893    271281.36   -79541.267    6997.4767   -86538.743    1013.7378 
   17550    276.92212   -999.56505    271691.91   -79580.738    7036.1549   -86616.893    1016.2996 
   17600    271.58368   -1025.1579    272014.13   -79548.764    6900.5136   -86449.277    1019.8596 
   17650    274.32832   -1089.8937    271983.82   -79501.041    6970.2506   -86471.291    1022.3634 
   17700    276.10697   -1003.4974    271580.78   -79486.969    7015.4432   -86502.412    1024.2507 
   17750    277.38819   -805.16257    271304.97   -79484.777    7047.9971   -86532.774    1025.3987 
   17800    275.93225   -937.53968    271648.49   -79478.839    7011.0039   -86489.843    1029.1572 
   17850    274.76732   -1185.2252    272222.25   -79490.851    6981.4049   -86472.255    1034.0336 
   17900    275.11446   -1189.8004     272436.1   -79513.447     6990.225   -86503.671    1037.4303 
   17950    275.14843   -1158.8722    272263.96   -79531.054    6991.0883   -86522.142    1038.3423 
   18000     274.0817   -1049.0534     271562.6   -79602.315    6963.9842   -86566.299    1039.7333 
   18050    271.80086   -755.68581    270976.01   -79640.763    6906.0318   -86546.795    1041.8148 
   18100    270.92892    -1010.675    270971.42    -79672.75    6883.8772   -86556.627     1042.758 
   18150    274.46465   -923.16162    270968.22    -79702.94    6973.7144   -86676.654    1043.9928 
   18200     269.7257   -950.87149    271318.14   -79639.439    6853.3052   -86492.745     1046.271 
   18250    275.17798   -1052.4582    271735.52   -79584.752    6991.8391   -86576.591    1050.7202 
   18300    268.06501   -978.21097    271892.86   -79556.723    6811.1098   -86367.833    1053.2847 
   18350    272.22249   -958.39135    271866.44   -79546.712    6916.7446   -86463.457    1055.3966 
   18400    276.29602   -1173.2869    271618.27    -79553.49    7020.2467   -86573.737    1057.8383 
   18450    277.66082   -986.30107    271161.46   -79582.586     7054.924    -86637.51    1059.8383 
   18500    277.04098   -813.99229    271278.36   -79555.591    7039.1748   -86594.766    1062.4044 
   18550    274.96229   -1035.0793    272148.92   -79515.289    6986.3587   -86501.648    1067.2599 
   18600    270.44763   -1080.9824    272810.36   -79470.685    6871.6482   -86342.333    1071.7864 
   18650     273.6608   -1106.1788     272767.4   -79488.498      6953.29   -86441.788     1075.284 
   18700    275.69147   -1294.2691    272141.88   -79515.094    7004.8861    -86519.98     1078.153 
   18750    278.13063   -745.64083    271249.35   -79461.365    7066.8612   -86528.227    1078.2873 
   18800    273.53261   -967.30219    271235.69    -79473.76    6950.0327   -86423.793    1080.9203 
   18850    280.48112    -954.4774    271556.11    -79508.39    7126.5835   -86634.974    1085.0653 
   18900    277.13601   -1053.5743    272241.95   -79513.635    7041.5894   -86555.224    1090.5052 
   18950    273.69604   -1308.5427    272727.08   -79537.407    6954.1854   -86491.593    1094.1032 
   19000    275.63515   -975.92639    272361.33   -79521.078    7003.4551   -86524.533    1095.8821 
   19050    276.03956   -868.41632    271651.97   -79510.032    7013.7305   -86523.762    1094.7693 
   19100    272.00334   -841.02087    271020.97   -79549.823    6911.1764   -86460.999    1095.2573 
   19150    274.05903   -824.78099    270887.31   -79525.072    6963.4083    -86488.48    1097.3211 
   19200    278.75865   -1146.9379    271456.68   -79532.878    7082.8182   -86615.697    1102.3598 
   19250    275.72466   -1276.9691    272183.15   -79511.509    7005.7292   -86517.238    1108.1603 
   19300    272.28768   -1159.4047    272365.93   -79520.402    6918.4011   -86438.803     1111.268 
   19350    271.81241   -1277.7565     271799.8   -79552.066    6906.3253   -86458.392    1112.4656 
   19400    276.11698   -851.55733    271142.56   -79572.664    7015.6977   -86588.362    1112.9692 
   19450    265.89604   -747.79497    271137.27   -79593.186    6755.9997   -86349.186    1114.6485 
   19500    270.02705   -761.69238    271547.64   -79650.151    6860.9621   -86511.113    1118.7882 
   19550    274.05848   -920.39139    272165.51   -79580.207    6963.3942   -86543.601    1123.2057 
   19600     275.0227   -1340.3267    272413.44   -79560.948    6987.8937   -86548.842    1127.5986 
   19650    269.21046   -992.88659    271926.19   -79520.714    6840.2138   -86360.928    1129.6383 
   19700    274.79967   -995.00805    271520.13   -79477.791    6982.2268   -86460.018    1131.5709 
   19750    275.08356    -895.0157    271198.44   -79512.756      6989.44   -86502.196    1132.2467 
   19800    279.69175   -985.69241    271224.51   -79537.178    7106.5267   -86643.705    1134.7554 
   19850    274.08224    -920.4175    271558.34    -79512.12    6963.9981   -86476.118    1139.2097 
   19900    271.62994   -789.60306    271816.92   -79453.149     6901.689   -86354.838    1142.4417 
   19950    278.88467   -1042.3677    271912.46   -79463.793    7086.0201   -86549.814    1145.5968 
   20000     277.5363   -1167.7488    272071.35   -79430.483    7051.7602   -86482.243    1149.5465 
   20050      278.602    -1254.548    272106.57   -79465.375    7078.8381   -86544.213    1153.4651 
   20100     274.9366   -1126.0071    271850.11   -79495.192    6985.7059   -86480.898    1155.6383 
   20150    275.97288   -936.96121    271521.28   -79526.168    7012.0361   -86538.204    1155.7106 
   20200    275.19376   -829.66983     271490.2   -79520.075    6992.2399   -86512.315    1158.7704 
   20250    275.73428   -939.88753    271731.81   -79536.132    7005.9736   -86542.105    1162.9311 
   20300    275.89956   -1216.1398    271955.28   -79513.521    7010.1734   -86523.695    1164.7615 
   20350    275.00464   -1055.4283    271941.74     -79510.5    6987.4347   -86497.934    1166.6965 
   20400    277.57009    -1061.211    271795.01    -79486.83    7052.6188   -86539.449    1169.8937 
   20450    278.97006   -940.74879    271614.56   -79446.118    7088.1899   -86534.308    1173.6591 
   20500    279.09995   -974.82694    271652.67   -79448.484    7091.4901   -86539.974    1173.9728 
   20550     275.2634   -1105.7146    271863.77   -79433.428    6994.0094   -86427.437    1176.9332 
   20600    274.94823   -1147.2683    272288.35   -79423.317    6986.0015   -86409.318    1181.0407 
   20650    281.16053   -1021.0036    272287.72   -79379.421    7143.8461   -86523.267    1182.7589 
   20700    275.34941   -957.80659    272101.97   -79455.993    6996.1947   -86452.188    1185.3117 
   20750     273.7082    -1023.043    272078.56    -79450.43    6954.4942   -86404.924    1187.8494 
   20800    273.54376   -946.97639    271747.83   -79442.134    6950.3161    -86392.45    1188.4922 
   20850    272.09134   -681.71633    271147.69   -79449.924    6913.4123   -86363.337    1189.0852 
   20900    277.04766   -926.96061    271210.55   -79381.112    7039.3447   -86420.457      1190.87 
   20950    274.40179   -708.55216    271676.03   -79427.816    6972.1172   -86399.933    1194.9853 
   21000    272.59172   -946.50321    272281.11   -79448.161    6926.1263   -86374.288    1199.5113 
   21050      276.919   -1191.8174    272710.21   -79394.226    7036.0755   -86430.301    1204.1509 
   21100    276.22477   -1384.2339    272359.66   -79378.909    7018.4363   -86397.345    1205.5076 
   21150    278.00691   -870.94552    271533.08   -79425.404    7063.7177   -86489.122    1205.9597 
   21200    278.47795   -846.48046    270906.33   -79456.302    7075.6862   -86531.988     1206.025 
   21250    274.47661   -1208.5426    271086.06   -79495.003    6974.0183   -86469.021    1210.2126 
   21300    277.36183   -908.04545    271650.79   -79480.995    7047.3272   -86528.322    1215.0602 
   21350    275.02675   -1192.5564    272100.35   -79540.059    6987.9966   -86528.055    1218.7194 
   21400    273.78919   -1061.8416    271905.06   -79537.531     6956.552   -86494.083    1221.1914 
   21450    275.17017   -877.48238    271446.55   -79536.211    6991.6405   -86527.852    1223.3455 
   21500    273.78257   -733.83327    271141.91   -79508.983    6956.3838   -86465.367    1222.5878 
   21550    275.04408    -1098.664    271716.72    -79515.74    6988.4368   -86504.177    1228.8959 
   21600    279.03329    -1338.941    272239.79   -79546.175    7089.7965   -86635.972    1232.9827 
   21650    277.49228   -1123.9531    272103.39   -79559.817    7050.6418   -86610.459    1234.6103 
   21700    272.32893   -1027.0639    271656.42   -79540.703    6919.4492   -86460.152     1236.311 
   21750    276.37882   -804.94671    271209.09    -79549.49    7022.3504    -86571.84    1237.2599 
   21800    275.12326   -795.50155    271210.42   -79566.135    6990.4488   -86556.584    1238.8732 
   21850    274.08547   -1038.0982    271689.46   -79560.042      6964.08   -86524.122     1243.683 
   21900    274.94006   -1148.1272    272107.69   -79537.858    6985.7939   -86523.652    1246.2013 
   21950    270.33283   -980.73859    271963.84   -79546.348    6868.7314   -86415.079    1249.8264 
   22000    277.33568   -816.57337    271663.31   -79507.352    7046.6628   -86554.014    1252.6048 
   22050     277.1216   -841.57464    271752.76   -79494.786    7041.2232    -86536.01    1255.3599 
   22100    276.45232    -1061.103    272272.09   -79471.434     7024.218   -86495.652    1257.8134 
   22150    276.38527   -1311.7372    272356.86   -79453.125    7022.5143   -86475.639    1259.6876 
   22200    277.28663   -1034.2889    272020.82   -79446.531    7045.4166   -86491.948    1261.7009 
   22250    275.46778   -821.67962    271723.82   -79475.139    6999.2023   -86474.342    1263.6301 
   22300    273.06378   -845.03364    271734.66   -79497.205    6938.1205   -86435.326    1265.0339 
   22350     275.0412   -1082.2758     271986.6   -79503.165    6988.3636   -86491.529    1268.2489 
   22400    275.11919   -1042.5329     272266.6   -79519.394    6990.3453    -86509.74    1271.2232 
   22450    276.13783   -1191.0792    272165.53   -79496.455    7016.2273   -86512.682    1272.7999 
   22500    276.09952   -831.32705    271617.19   -79432.898     7015.254   -86448.152    1274.2475 
   22550    279.14733   -1052.8616    271362.03   -79469.278     7092.694   -86561.972     1275.342 
   22600    276.61235   -1053.1377    271506.38   -79499.466    7028.2841    -86527.75    1277.6442 
   22650    280.14694   -1028.2644    271646.65   -79487.767    7118.0925    -86605.86    1280.8118 
   22700    271.98986   -1053.6891    271693.71   -79503.744     6910.834   -86414.578    1283.1057 
   22750    277.13269   -1095.2123    271789.24   -79469.588     7041.505   -86511.093    1285.2735 
   22800    274.11516   -805.31161    271731.08   -79491.816    6964.8344    -86456.65    1287.8835 
   22850    272.47796   -893.91759    271828.86   -79475.799    6923.2357   -86399.035    1290.2617 
   22900    277.12958   -1158.3643    272004.82   -79422.722    7041.4261   -86464.148    1290.6785 
   22950    275.41946   -1022.7274    272165.22   -79434.636    6997.9747   -86432.611    1293.7916 
   23000    278.35295   -1093.3615    272163.39   -79498.898    7072.5099   -86571.408    1294.7654 
   23050    273.86525   -887.23317    271673.82   -79491.711    6958.4846   -86450.195     1295.268 
   23100    276.20352   -936.37874    271371.38   -79542.799    7017.8963   -86560.695    1295.8548 
   23150    273.46708   -1084.9667    271391.12   -79547.994    6948.3678   -86496.362    1296.0459 
   23200    276.02907   -873.16285    271541.13   -79506.904     7013.464   -86520.368     1298.597 
   23250     273.2776   -1083.8293    271847.87   -79492.181    6943.5534   -86435.735    1303.2217 
   23300     276.5948   -990.10309    271975.12   -79505.394    7027.8383   -86533.232    1305.8907 
   23350    277.11586   -907.43129    271884.89    -79521.42    7041.0775   -86562.498    1307.4913 
   23400    274.72539   -1123.0217    271799.11   -79507.946    6980.3393   -86488.286    1311.3843 
   23450    275.17565   -840.31522    271469.86   -79530.168    6991.7797   -86521.948    1310.6755 
   23500    275.36289   -804.52387    271384.58   -79552.106    6996.5373   -86548.643    1309.9853 
   23550    268.45074   -846.11828    271667.98   -79541.218    6820.9105   -86362.129    1312.0591 
   23600    277.09779   -882.29576    272143.21   -79552.779    7040.6183   -86593.397      1315.14 
   23650    271.83623   -1024.0122     272358.9   -79575.539    6906.9303   -86482.469    1317.6636 
   23700    271.20715   -982.73565    271765.26   -79593.549    6890.9466   -86484.496    1318.6851 
   23750     275.9051   -960.48314    271353.71   -79599.066    7010.3141    -86609.38    1319.8595 
   23800     273.8605   -854.77533    271492.12   -79572.235    6958.3639   -86530.599    1322.8384 
   23850    272.51842   -1041.7688    271993.84   -79531.288    6924.2638   -86455.552     1327.508 
   23900    274.26546   -1200.7291    272214.48   -79542.269    6968.6533   -86510.923    1330.8112 
   23950    268.27419    -1061.104    271960.26   -79585.803    6816.4247   -86402.227    1333.9539 
   24000     275.7554   -1174.7821    271651.52   -79574.036    7006.5103   -86580.546    1335.8651 
   24050    274.07452   -811.34974    271496.93   -79564.209    6963.8018    -86528.01    1336.0844 
   24100    274.17998   -819.22083    271521.64   -79567.751    6966.4814   -86534.232     1338.813 
   24150    275.77525    -1006.518    271728.12   -79541.751    7007.0148   -86548.766    1340.6174 
   24200    271.71395   -1069.5102    272057.86   -79541.792    6903.8234   -86445.615    1343.0852 
   24250    274.81167   -1068.8348    272263.46   -79479.653    6982.5318   -86462.185    1345.5552 
   24300    276.06913   -1018.8138    272265.04   -79510.874    7014.4819   -86525.356    1347.7967 
   24350    275.82544   -864.21601    271790.62   -79553.132    7008.2901   -86561.422     1348.388 
   24400    273.95254   -984.87823    271360.65   -79572.032    6960.7026   -86532.735    1350.0288 
   24450    277.94026   -1032.2265    271215.89   -79580.888    7062.0242   -86642.912    1352.0148 
   24500    274.56034   -885.62083    271430.07   -79581.823    6976.1457   -86557.969    1353.8672 
   24550    273.45103   -1109.4109    271772.51   -79605.417    6947.9599   -86553.376    1356.8916 
   24600    270.28031   -851.51938    271931.86   -79625.283     6867.397    -86492.68    1358.7246 
   24650    273.45817   -1135.9012    271913.22   -79617.757    6948.1414   -86565.899    1360.1923 
   24700    272.98865   -1020.9197    271629.22   -79622.204    6936.2115   -86558.415    1362.2825 
   24750    273.15765   -825.15124    271319.85     -79608.2    6940.5055   -86548.705    1363.3915 
   24800    268.74907   -825.36851     271285.4   -79627.406    6828.4907   -86455.896    1365.2931 
   24850    276.29893    -949.9467    271557.35   -79620.297    7020.3207   -86640.618    1367.5087 
   24900    272.21042    -1238.409     271844.4    -79649.94    6916.4379   -86566.378    1370.2093 
   24950    271.04821   -1167.0481    271835.39   -79649.155     6886.908   -86536.063    1371.9075 
   25000    274.87092   -1112.7632    271744.81   -79623.171     6984.037   -86607.208    1372.8933 
   25050    273.13671   -710.77313     271740.2   -79603.745    6939.9736   -86543.718    1375.6496 
   25100    272.96817   -1104.6067    271957.82   -79625.597    6935.6913   -86561.289     1377.984 
   25150    273.89277   -943.02584    271826.93   -79604.883    6959.1839   -86564.067    1380.5556 
   25200    276.44629   -931.09389    271418.87    -79580.36    7024.0648   -86604.424    1382.4581 
   25250    276.98101   -951.17246    271313.62   -79571.619    7037.6512    -86609.27    1384.5308 
   25300    278.51893   -1032.4147    271630.74   -79539.945    7076.7274   -86616.672    1387.4751 
   25350     275.0445   -1135.5378    272098.64   -79542.995    6988.4476   -86531.442    1393.2836 
   25400    267.79518   -865.83098    272191.44   -79557.348    6804.2537   -86361.601    1397.7739 
   25450    270.20636   -887.43577     271767.5    -79585.97     6865.518   -86451.488    1399.1778 
   25500    271.93001   -946.91878    271208.64   -79615.094    6909.3132   -86524.407    1399.1666 
   25550    274.93471   -644.77768     270745.9   -79628.928     6985.658   -86614.586    1399.3307 
   25600    273.61213   -910.52116     270879.4   -79642.523    6952.0533   -86594.576    1401.3452 
   25650    275.74952   -837.45829    271289.93   -79623.729     7006.361    -86630.09    1405.5602 
   25700    275.13816   -1067.8649     272053.4    -79586.27    6990.8273   -86577.097    1411.2092 
   25750    271.51294   -983.56688    272394.88    -79591.76    6898.7162   -86490.477    1415.4311 
   25800    272.36272    -997.3346    272268.98   -79570.117    6920.3076   -86490.425    1417.8564 
   25850    276.55568   -929.82996    271768.05   -79575.662    7026.8443   -86602.507    1418.9858 
   25900    276.15174   -803.46995    271369.97    -79613.01    7016.5807   -86629.591    1420.1494 
   25950     274.6558   -696.89661    271520.01   -79630.623    6978.5712   -86609.194    1422.8244 
   26000    270.21851   -1119.0695    272064.91   -79649.747    6865.8267   -86515.573    1427.8477 
   26050    274.61202   -885.37571    272124.37   -79651.446    6977.4588   -86628.905    1431.7874 
   26100    272.88854   -1131.3662    271986.09   -79667.394    6933.6679   -86601.062    1432.9693 
   26150    272.06763   -937.45593    271445.17   -79610.735      6912.81   -86523.545    1433.1456 
   26200    271.92911   -691.99081    271164.96   -79607.984    6909.2903   -86517.274    1435.1228 
   26250     275.0242    -960.1124    271643.24   -79576.543    6987.9317   -86564.475    1441.9319 
   26300    272.07554   -947.64588    272171.25   -79570.757     6913.011   -86483.768    1446.4852 
   26350    271.32044   -869.73553    272294.37   -79514.672    6893.8251   -86408.497    1450.2219 
   26400    275.34159    -921.6461    272102.37   -79524.222    6995.9962   -86520.219    1451.3643 
   26450    270.98004   -741.05526    271766.87   -79568.952     6885.176   -86454.128    1451.6332 
   26500    279.70419   -1011.7058    271593.32   -79545.543     7106.843   -86652.386    1454.4689 
   26550     272.6158   -890.10301    271410.83   -79589.052    6926.7381    -86515.79    1458.8059 
   26600    272.20155   -1001.6705     271350.1   -79577.405    6916.2125   -86493.617    1462.3666 
   26650    273.90732   -1118.9339    271532.14   -79607.817    6959.5535    -86567.37    1464.9918 
   26700    271.28121   -1021.2066    271806.96   -79650.792    6892.8281    -86543.62    1467.7819 
   26750    271.32462   -999.92314    271831.44   -79684.129    6893.9312    -86578.06    1470.3971 
   26800    265.91426   -945.30695    271690.47   -79681.743    6756.4624   -86438.206    1472.6437 
   26850    270.60892   -887.77838    271472.01    -79724.22    6875.7465   -86599.967    1476.8972 
   26900    267.88504   -1080.7953    271530.71   -79744.525     6806.537   -86551.062    1479.8065 
   26950    270.37641   -1137.9671    271400.95   -79742.291    6869.8386    -86612.13    1482.3602 
   27000    269.63052   -926.64654    271062.85    -79766.54    6850.8869   -86617.427    1482.4047 
   27050     268.8399   -1032.3713    271041.37   -79764.585    6830.7985   -86595.384    1485.9077 
   27100    272.06593   -1047.2842    271190.45    -79798.74    6912.7667   -86711.507    1487.7044 
   27150     270.2081   -1021.5039    271348.04   -79702.599    6865.5621   -86568.161    1490.5733 
   27200    271.60681    -1407.769    271727.76   -79698.929    6901.1012    -86600.03    1494.3289 
   27250    277.95654   -1184.9607    271713.73   -79697.227    7062.4379   -86759.665    1496.9782 
   27300    267.88247   -936.35511    271764.23    -79677.18    6806.4717   -86483.652    1501.8916 
   27350    267.53066   -882.42739     271831.5   -79681.323    6797.5327   -86478.856    1505.6281 
   27400    277.36195   -1209.7574    271922.97   -79650.939    7047.3302   -86698.269    1509.0325 
   27450    274.92315   -1155.4321    271813.11   -79614.867    6985.3642   -86600.231    1510.6847 
   27500    274.66376   -681.48529    271507.34   -79579.434    6978.7734   -86558.207    1513.8492 
   27550    271.87088   -878.68223    271530.32   -79565.694    6907.8107   -86473.505    1515.9927 
   27600    277.90591   -960.54232    271841.67   -79550.446    7061.1514   -86611.597     1519.599 
   27650    272.80246   -1065.9078    272247.64   -79571.024    6931.4809   -86502.505    1521.9956 
   27700    269.50815     -946.906    272103.59   -79574.174    6847.7777   -86421.952    1524.4727 
   27750    275.70593   -961.64097    271814.58   -79547.888    7005.2533   -86553.142     1524.733 
   27800    273.57136   -1017.3115    271678.93    -79599.02    6951.0172   -86550.038    1524.9513 
   27850    274.56184   -1057.3225    271311.18   -79580.036    6976.1838   -86556.219    1524.4931 
   27900    276.23476   -967.78218    271291.85   -79515.495    7018.6903   -86534.185    1524.4246 
   27950    275.82525   -849.88597    271400.11   -79520.561    7008.2852   -86528.847    1526.6218 
   28000    278.37609    -1125.272    271631.75   -79530.301    7073.0979   -86603.399    1529.7533 
   28050    279.78495   -970.51447    271686.61   -79512.823    7108.8948   -86621.718    1535.0673 
   28100    278.03348   -1138.8334    271632.54   -79516.123    7064.3927   -86580.515    1539.2456 
   28150    274.05763   -818.18171    271726.62   -79544.887    6963.3728    -86508.26    1540.4635 
   28200    273.60168   -1177.8799    272097.51   -79566.451    6951.7878   -86518.239    1546.5801 
   28250    274.42448   -1060.2593    272034.46   -79512.177    6972.6938   -86484.871      1550.37 
   28300    274.97971   -1108.2474    271709.31   -79526.547    6986.8014   -86513.349    1550.8457 
   28350    274.21132   -967.22941    271142.76    -79563.77    6967.2778   -86531.048    1550.0969 
   28400     278.7457   -939.93966    270855.82   -79569.095    7082.4892   -86651.584    1551.7487 
   28450    275.29618   -815.43134    271180.68   -79566.628    6994.8424    -86561.47    1554.3163 
   28500    275.74466   -911.34895    272049.39    -79506.65    7006.2375   -86512.887    1559.0418 
   28550    277.15312   -1205.2335    272914.36   -79456.257    7042.0242   -86498.281    1564.4061 
   28600    274.68601   -1321.2241     273002.1   -79412.714    6979.3389   -86392.053    1568.1595 
   28650    278.13344   -1066.4621    272031.61    -79438.19    7066.9325   -86505.123    1568.5752 
   28700    280.90373   -731.09129    271017.92   -79413.758    7137.3214   -86551.079    1567.0815 
   28750    274.45119   -820.34153    271040.87   -79445.197    6973.3725   -86418.569    1569.2826 
   28800    272.77102   -981.08946     271681.6   -79511.608     6930.682    -86442.29    1575.4761 
   28850    274.05485   -968.02442     272352.4   -79508.508    6963.3021    -86471.81    1580.6499 
   28900    273.52568   -1297.0463    272509.06   -79503.357    6949.8566   -86453.213    1583.2817 
   28950    276.17558   -1223.1685    272101.88   -79515.807    7017.1864   -86532.993    1585.2683 
   29000    276.10432    -1074.898    271533.79   -79557.977    7015.3758   -86573.353    1586.5911 
   29050    272.22716   -765.92763    271040.48   -79568.711    6916.8635   -86485.575    1586.2591 
   29100    272.19903   -773.13613    271113.43   -79553.578    6916.1487   -86469.727    1588.2957 
   29150    270.79292    -1045.938    271771.06   -79558.887    6880.4214   -86439.308    1591.9974 
   29200    273.51517   -1177.4068    272309.73   -79541.583    6949.5896   -86491.173    1598.2596 
   29250    274.38855   -1049.0735    272265.79   -79497.365    6971.7809   -86469.146    1600.6267 
   29300    273.48681   -1035.1754    271966.69    -79543.95    6948.8691   -86492.819    1601.9954 
   29350    275.99558   -705.76915    271344.83   -79579.163     7012.613   -86591.776    1601.9672 
   29400     274.1947   -946.39434    271259.29   -79599.938    6966.8554   -86566.793    1605.8654 
   29450    272.75052   -997.78417    271522.39   -79593.389    6930.1611   -86523.551    1608.2013 
   29500    273.49399   -1135.7656     271897.8    -79598.26    6949.0514   -86547.311    1612.9846 
   29550    272.94493   -1006.9975    271854.25   -79560.916    6935.1007   -86496.016     1614.969 
   29600    276.18167   -1100.1877    271815.75   -79535.664    7017.3413   -86553.005    1618.2473 
   29650    273.62948   -1072.6238    271707.06    -79518.83    6952.4942   -86471.324    1621.0517 
   29700    275.32388   -970.31884    271726.01   -79557.519    6995.5461   -86553.066    1621.9478 
   29750    275.87138   -1180.8045     271733.7   -79538.376    7009.4572   -86547.834    1623.5253 
   29800    274.20783   -829.68029     271610.1    -79519.59    6967.1892   -86486.779    1626.5524 
   29850    276.64454     -867.113    271779.86   -79510.761     7029.102   -86539.863    1627.6726 
   29900    275.29684   -1023.7928    272208.56   -79466.572     6994.859    -86461.43    1632.6634 
   29950    275.22033   -1160.4952    272372.09   -79457.137     6992.915   -86450.052    1636.6563 
   30000    274.83873   -1149.8429    271983.81   -79497.221    6983.2193    -86480.44    1637.2279 
   30050    272.04688   -622.51408    271439.28   -79531.987    6912.2828    -86444.27    1636.4586 
   30100    275.06443   -1071.3728    271389.37   -79493.996    6988.9539   -86482.949    1638.3226 
   30150    278.08703   -879.92673    271510.39    -79493.14    7065.7534   -86558.893    1642.9555 
   30200    275.82742   -1274.8994    272193.46   -79488.278    7008.3402   -86496.618    1650.3615 
   30250    273.46194   -1203.9853    272658.38    -79482.93    6948.2371   -86431.167    1656.8814 
   30300    273.01939   -1044.4227    272207.93   -79466.408    6936.9927   -86403.401     1657.251 
   30350    277.26461   -725.14454    271452.65   -79494.083     7044.857    -86538.94    1658.0159 
   30400    273.13365   -972.67855    271368.24   -79559.157    6939.8959   -86499.053      1659.86 
   30450    270.35553   -723.69946    271427.38   -79580.894    6869.3082   -86450.202    1662.7345 
   30500    270.06457   -1130.9224    272051.04   -79522.584    6861.9153   -86384.499    1668.4329 
   30550    270.34444   -924.51176    272413.17    -79503.23    6869.0263   -86372.256    1673.0714 
   30600    271.70919   -1157.2863    272377.65   -79537.284    6903.7026   -86440.987    1672.7967 
   30650    273.71814   -835.71246    271937.12   -79567.876    6954.7469   -86522.623    1673.7768 
   30700     272.9903   -865.11055    271590.44   -79570.449    6936.2535   -86506.702    1674.8406 
   30750    273.40302   -1033.3652    271672.65   -79602.027    6946.7402   -86548.767    1677.6526 
   30800    270.39107   -1160.1034    271872.43   -79645.203    6870.2113   -86515.415     1680.074 
   30850    269.19135   -991.90648    271715.56   -79659.565    6839.7283   -86499.293    1681.2294 
   30900    275.17782   -885.58584    271485.53   -79646.993     6991.835   -86638.828    1683.1069 
   30950    272.55283   -1165.1156    271413.56   -79659.223    6925.1381   -86584.361    1686.0489 
   31000    270.65066   -821.57422     271198.9   -79663.568     6876.807   -86540.375    1687.9633 
   31050    272.09992   -909.39976    271264.73   -79657.307    6913.6303   -86570.938    1690.8206 
   31100    276.06765   -951.76322    271652.27    -79629.56    7014.4441   -86644.004    1694.0579 
   31150    276.98006   -1015.8293     272138.5   -79592.578    7037.6271   -86630.205      1699.42 
   31200    271.05995   -1239.3943    272418.76   -79569.724    6887.2065   -86456.931    1705.9531 
   31250    275.36097   -1254.7391    271968.24    -79572.22    6996.4886   -86568.708    1707.7502 
   31300    275.99628   -949.42127    271062.21   -79589.186    7012.6308   -86601.817    1706.6037 
   31350    273.60794    -819.5453    270622.93   -79614.955    6951.9467   -86566.902    1707.9496 
   31400    275.61382   -754.56021    270867.49    -79647.01     7002.913   -86649.923    1709.8982 
   31450    270.51084   -927.18448    271493.23   -79618.311    6873.2544   -86491.565      1712.99 
   31500    269.12048   -1133.0975    272218.07    -79604.01    6837.9276   -86441.937    1716.1502 
   31550     269.3419   -1064.6466    272631.02   -79608.902    6843.5535   -86452.455    1719.0269 
   31600    273.87952     -1063.21    272528.79   -79621.281    6958.8473   -86580.129    1720.7585 
   31650    272.74312   -973.61127    271937.92   -79570.915    6929.9732   -86500.889    1721.5128 
   31700    274.27702   -758.32771    271415.62   -79594.755     6968.947   -86563.702    1720.9461 
   31750    280.63337   -1104.4141    271348.33   -79596.353    7130.4519   -86726.805    1724.0881 
   31800    270.86366   -895.03933    271600.83   -79597.682    6882.2189   -86479.901    1726.3377 
   31850    268.99402    -1048.133    272167.89   -79623.121    6834.7145   -86457.836     1733.098 
   31900    270.44761   -1193.1437    272295.16   -79641.266    6871.6478   -86512.913    1737.1036 
   31950    270.77347    -1018.697    271944.86   -79609.938    6879.9274   -86489.865    1737.6755 
   32000    272.50677   -957.45791    271438.73   -79642.466    6923.9679   -86566.434     1736.333 
   32050    274.81755   -870.26803    271226.48   -79660.704    6982.6811   -86643.385    1734.4416 
   32100     278.2892   -989.77491       271367   -79640.599    7070.8902   -86711.489    1735.3426 
   32150    274.07903   -992.05125    271840.91   -79669.981    6963.9164   -86633.898    1737.5153 
   32200    274.53361   -1165.2751    272312.78   -79628.695    6975.4667   -86604.161    1741.1509 
   32250    268.73835   -1147.6164    272030.15   -79611.315    6828.2181   -86439.533    1740.5725 
   32300    269.30565   -793.43806    271278.46   -79640.277    6842.6324    -86482.91    1739.9728 
   32350    271.21609   -971.84738    271017.43   -79643.896    6891.1737    -86535.07    1739.9175 
   32400    274.25728   -793.71517     271092.6   -79651.449    6968.4455   -86619.894    1741.5858 
   32450    268.48174   -672.39201    271351.64   -79680.389    6821.6981   -86502.087    1744.5801 
   32500    273.62815   -1102.3715    271585.97   -79655.598    6952.4603   -86608.058    1748.9813 
   32550    266.70708   -1058.9579     271555.2    -79666.62    6776.6069   -86443.226    1752.1618 
   32600    273.51706   -1149.3652    271289.19   -79622.522    6949.6376   -86572.159    1753.9022 
   32650    275.87301   -939.51592    271002.34   -79621.248    7009.4987   -86630.747    1756.8198 
   32700     274.5077   -742.33272    271117.14   -79628.186    6974.8082   -86602.994     1760.963 
   32750    273.88171   -935.35165     271852.5     -79601.3    6958.9028   -86560.203    1765.0069 
   32800    267.42039   -1209.7092    272412.27   -79610.937    6794.7309   -86405.668    1767.4976 
   32850    269.68007   -1035.8809    272249.88   -79599.232    6852.1458   -86451.377    1767.5918 
   32900    271.83962   -923.74172    271790.18   -79630.781    6907.0167   -86537.797      1770.41 
   32950    271.59538   -1115.0605     271532.5   -79665.248    6900.8108   -86566.058    1770.1174 
   33000    273.82912   -813.83687    271329.46   -79623.677    6957.5667   -86581.244    1771.5664 
   33050    271.28161   -1054.1888    271542.33   -79618.355    6892.8385   -86511.193    1776.0346 
   33100    269.85871   -928.49404    272028.65   -79625.494    6856.6848   -86482.179     1780.764 
   33150    277.31744   -1046.4924    272160.66   -79634.823    7046.1992   -86681.022    1784.4003 
   33200     269.6976   -796.39532    271837.39   -79662.643    6852.5911   -86515.234    1786.2189 
   33250    272.99229   -1093.3356    271530.03   -79677.726    6936.3042   -86614.031    1788.9428 
   33300     276.6551   -841.71716    271290.33   -79671.179    7029.3704   -86700.549    1791.4483 
   33350    268.29796   -807.83163     271450.4   -79702.604    6817.0286   -86519.633    1793.1953 
   33400    275.95237   -1172.8076    271840.26   -79667.552     7011.515   -86679.067    1797.8912 
   33450    269.35716   -1174.5283    271910.91   -79643.681    6843.9411   -86487.622    1800.3787 
   33500    275.95079   -1058.0558    271539.42   -79677.854    7011.4749   -86689.329    1801.5815 
   33550    272.20996   -970.51011    271361.82   -79658.783    6916.4263    -86575.21    1802.2884 
   33600     272.0888   -958.91312    271190.35   -79674.982    6913.3477    -86588.33    1802.7806 
   33650    269.99905   -1119.7743    270998.98   -79683.691    6860.2506   -86543.942    1805.2814 
   33700     271.8472   -812.56802    270854.83   -79657.526    6907.2091   -86564.735    1808.6764 
   33750    272.50823   -909.63181     271213.2   -79625.968    6924.0048   -86549.972    1811.0811 
   33800    270.30547   -876.26589    271821.94   -79627.622    6868.0362   -86495.659     1815.623 
   33850    272.99427   -1189.2644    272129.05    -79621.68    6936.3544   -86558.034    1818.4697 
   33900    272.00869   -1249.0326    271936.05   -79639.716    6911.3124   -86551.029    1819.8742 
   33950    274.35832   -1008.8997    271369.42   -79657.293    6971.0127   -86628.305    1820.1121 
   34000    269.23213    -872.6622    270968.52   -79628.168    6840.7644   -86468.933    1821.3928 
   34050     274.1367   -1070.4544    271300.16   -79639.467    6965.3817   -86604.849     1825.918 
   34100     269.9844   -1109.1048    271794.81   -79646.517    6859.8785   -86506.395    1832.8507 
   34150    268.69143   -1077.4328    271839.28   -79643.282    6827.0259   -86470.308    1835.4194 
   34200    271.81569   -1037.6753    271662.59   -79658.975    6906.4084   -86565.383    1835.1055 
   34250    273.41339   -869.57057    271379.37   -79656.543    6947.0037   -86603.546    1834.4653 
   34300    271.09509   -966.38144    271200.58   -79609.177    6888.0993   -86497.276    1835.9045 
   34350    270.38208   -687.55667    271325.83   -79627.111    6869.9827   -86497.094    1838.9617 
   34400    269.67889   -1058.0333    271828.41   -79660.922    6852.1157   -86513.038    1844.6644 
   34450    272.72596   -980.14673    271800.78   -79619.133     6929.537   -86548.671    1846.7857 
   34500    274.66502   -894.45232    271616.33   -79664.164    6978.8055    -86642.97    1848.1459 
   34550    273.80763   -1148.2956    271681.36   -79716.359    6957.0207    -86673.38    1851.2618 
   34600    267.23239   -907.95234    271687.54   -79745.197    6789.9541   -86535.151    1853.3126 
   34650    270.44128    -824.4695    271498.89    -79723.71    6871.4869   -86595.197    1854.8889 
   34700    271.53181   -1081.3963    271267.43   -79693.233    6899.1955   -86592.429    1855.2271 
   34750    274.53779   -888.01468    271092.33    -79720.37    6975.5727   -86695.942     1856.814 
   34800      269.799    -1033.951    271181.23   -79683.234    6855.1675   -86538.401    1860.9852 
   34850    272.79745   -1170.4302    271353.93   -79716.354    6931.3535   -86647.707    1865.3975 
   34900    273.51743   -1055.5418    271451.26   -79721.386     6949.647   -86671.033    1867.8184 
   34950    272.89161   -955.78444    271534.74   -79670.491     6933.746   -86604.237    1872.5028 
   35000    275.13061   -1149.4091    271538.37   -79673.099    6990.6354   -86663.734    1875.1431 
   35050    275.10085   -923.37041    271289.32   -79667.356    6989.8793   -86657.235    1876.1702 
   35100     272.7939   -837.05572    271215.66   -79704.704    6931.2634   -86635.967    1878.8893 
   35150    274.63719   -1116.8272    271630.19   -79716.966    6978.0983   -86695.064    1882.5544 
   35200    270.75992   -1228.3049    271951.49   -79705.592     6879.583   -86585.175    1884.9615 
   35250    272.84941   -1069.8998    272059.26    -79667.89    6932.6737   -86600.563    1888.8977 
   35300    274.31291   -1003.6624       272063   -79635.611    6969.8589    -86605.47    1893.3031 
   35350    272.81757    -1078.758    271820.25   -79619.033    6931.8647   -86550.897     1895.169 
   35400    269.41245   -898.45248    271407.23   -79662.052     6845.346   -86507.398    1894.2691 
   35450    273.76014    -939.5668    271351.28    -79645.53    6955.8139   -86601.343    1896.4977 
   35500     271.3321   -1155.4702    271525.53   -79613.427    6894.1212   -86507.548    1900.5234 
   35550     273.4124   -1018.2875    271439.66   -79657.051    6946.9783    -86604.03    1903.7148 
   35600    271.95345   -1061.8701    271086.45   -79577.859    6909.9089   -86487.768     1905.133 
   35650    271.20714   -827.65048    270908.48    -79576.15    6890.9463   -86467.096    1905.7512 
   35700    275.38843   -1144.5915     271651.1   -79611.483    6997.1863   -86608.669    1911.5133 
   35750    272.70822   -1260.0049     272160.9   -79604.318    6929.0862   -86533.404    1914.3069 
   35800    269.42975   -863.60108     272033.3   -79612.462    6845.7856   -86458.248    1915.6119 
   35850    271.05511    -1056.572    271854.24   -79586.321    6887.0834   -86473.404    1918.2022 
   35900    274.64449   -904.65687    271497.88   -79589.127    6978.2839   -86567.411    1919.1019 
   35950    277.72917   -965.45719    271372.12   -79609.255    7056.6608   -86665.916    1921.6434 
   36000    272.34867   -927.98073    271581.63   -79635.887    6919.9507   -86555.838    1926.5923 
   36050    272.68961   -1358.0367    272068.19   -79658.219    6928.6133   -86586.832    1933.0261 
   36100    269.19692    -1154.687    272237.07    -79618.29    6839.8698   -86458.159    1936.7177 
   36150    272.70924   -1157.3489    271975.89   -79612.986    6929.1121   -86542.098    1938.2114 
   36200    273.74958   -769.11822    271143.55   -79636.561    6955.5455   -86592.106    1936.9093 
   36250    276.21689   -896.07313    270841.76   -79627.089     7018.236   -86645.325    1936.5505 
   36300    274.07428   -867.45709    271016.51   -79671.385    6963.7957   -86635.181    1940.4785 
   36350    273.52588   -1004.6933    271537.89    -79596.74    6949.8619   -86546.602    1947.5507 
   36400    273.58893   -1046.6999    272010.08    -79634.26    6951.4639   -86585.724    1953.2257 
   36450    274.17625   -1298.4019    271980.75   -79607.159    6966.3866   -86573.546    1954.0155 
   36500     268.6776   -736.46834    271317.51   -79615.006    6826.6747   -86441.681    1952.0096 
   36550    274.20763   -936.13885    271200.04   -79585.462    6967.1841   -86552.646    1953.5518 
   36600    272.56829   -920.83109    271448.02   -79565.283    6925.5308   -86490.814    1957.3698 
   36650     274.3851   -1147.9142    271622.39   -79583.557    6971.6932    -86555.25    1959.1577 
   36700    273.44815   -884.91719    271383.45   -79581.108    6947.8869   -86528.995    1960.5924 
   36750    276.38912   -954.40844    271150.23   -79609.326    7022.6123   -86631.938    1960.7618 
   36800    275.39823   -929.78434    271014.19   -79571.526    6997.4353   -86568.962     1961.329 
   36850    276.80795   -959.47244    271188.87   -79586.531    7033.2539   -86619.785    1964.3086 
   36900    272.10718   -1128.6386     271800.3   -79582.482    6913.8147   -86496.297    1968.7988 
   36950    270.90985   -1116.7779    272293.18     -79609.9    6883.3926   -86493.292    1973.9412 
   37000    270.86937   -898.84027    272259.99   -79636.128    6882.3639   -86518.492    1974.7657 
   37050    272.45369   -919.34978    271892.98    -79648.68    6922.6191   -86571.299    1973.3883 
   37100    275.77068   -954.30772    271698.13   -79608.778    7006.8985   -86615.676    1973.9474 
   37150    273.90002   -1069.4964    271666.24   -79616.664    6959.3681   -86576.032    1975.3132 
   37200    275.93953    -1153.076    271857.39   -79627.573    7011.1887   -86638.762    1976.4275 
   37250     271.2213   -899.03108     272214.7   -79618.407    6891.3061   -86509.713    1979.0248 
   37300    272.19301   -997.08505    272291.81   -79622.911    6915.9956   -86538.907    1983.7822 
   37350    268.72935   -955.65876    272058.43   -79622.505    6827.9894   -86450.494    1985.4811 
   37400    272.51815   -928.93876    271601.56   -79616.441    6924.2569   -86540.698    1987.3875 
   37450    275.47599   -845.26444    271069.35   -79624.859    6999.4109    -86624.27    1984.6806 
   37500    275.49043   -899.14705    271100.39   -79632.059    6999.7778   -86631.837    1989.1054 
   37550    273.00629   -1227.7822    271887.76   -79611.939    6936.6598   -86548.598    1995.0206 
   37600    276.92214   -1147.6125    272258.91   -79615.433    7036.1554   -86651.588    1999.8362 
   37650    272.21407   -1032.6399    271952.69   -79611.031    6916.5306   -86527.562    2000.9047 
[...]
   90850     274.6066   -1164.1937    272766.88   -79421.202    6977.3212   -86398.523    4933.3862 
   90900      274.467   -912.76473    271865.86   -79441.547     6973.774   -86415.321    4926.1664 
   90950    278.90181   -691.88641    270972.98   -79487.578    7086.4557   -86574.033    4918.5599 
   91000    275.87738   -994.19184    271130.42   -79470.233    7009.6097   -86479.842    4924.7085 
   91050    275.86552   -878.30522     271545.5   -79497.788    7009.3084   -86507.096     4932.475 
   91100    272.92763   -968.65876    272165.06    -79443.22    6934.6612   -86377.881    4943.3192 
   91150    277.26093   -1008.0288    272480.88    -79450.07    7044.7635   -86494.834    4947.3449 
   91200    277.80628    -1431.959    272302.64   -79483.934    7058.6199   -86542.554    4944.4586 
   91250    276.47984   -1003.4341    271596.98   -79506.725    7024.9173   -86531.642     4939.281 
   91300    275.57444   -842.18129    271135.31   -79510.684    7001.9126   -86512.597    4937.3092 
   91350    279.24592   -821.57184    271294.86   -79524.126     7095.199   -86619.325    4942.4947 
   91400    271.12544   -902.58345    271954.73   -79544.473    6888.8704   -86433.343    4954.8737 
   91450    271.35178   -1251.7387    272624.08   -79559.205    6894.6214   -86453.827     4963.504 
   91500    273.75991   -1378.6896    272442.78   -79561.054    6955.8082   -86516.862    4966.0013 
   91550    272.09825   -959.29761    271556.65   -79565.155    6913.5879   -86478.743    4960.8981 
   91600    274.70192   -819.35051    270873.57   -79606.765    6979.7431   -86586.508    4954.7656 
   91650     274.3923   -702.05588     270855.4   -79665.844    6971.8762    -86637.72    4960.7332 
   91700    270.08017   -921.03897    271549.14   -79667.259    6862.3118   -86529.571    4973.4976 
   91750    273.29768   -1037.8707    272105.34   -79611.561    6944.0635   -86555.624    4978.5146 
   91800    274.61152   -1256.1037    272266.99   -79612.925    6977.4461   -86590.371    4983.9435 
   91850    271.06059   -1048.1787    272001.51   -79637.065    6887.2227   -86524.288    4986.3462 
   91900    270.73502   -950.61745    271562.79   -79619.941    6878.9505   -86498.892    4987.0411 
   91950    271.75847   -930.94041    271208.56   -79677.801    6904.9547   -86582.756    4987.6687 
   92000    276.12474   -958.19921    271322.52   -79639.933    7015.8948   -86655.828     4993.685 
   92050    269.30064   -1227.9775    271747.66   -79677.778    6842.5052   -86520.283    5004.6955 
   92100      277.848   -1003.1751    271689.67   -79618.935    7059.6801   -86678.616    5004.5713 
   92150    275.49191   -1211.9183    271627.81   -79613.644    6999.8155   -86613.459    5007.0578 
   92200    269.67312   -901.04705    271379.55   -79612.111    6851.9691    -86464.08    5008.1935 
   92250     272.7493   -944.53486    271160.77   -79593.654    6930.1301   -86523.784    5008.0906 
   92300    271.10202   -666.61722     271283.9   -79604.966    6888.2753   -86493.242    5013.2014 
   92350    271.11251   -961.24453    271817.49   -79610.977    6888.5419   -86499.519    5020.5409 
   92400    275.11844   -1179.0619       271935    -79614.67    6990.3262   -86604.996    5026.9906 
   92450     276.4277   -1120.0473    271581.87   -79613.467    7023.5924   -86637.059    5028.0986 
   92500    269.58869   -1058.7116    271253.15   -79628.212    6849.8239   -86478.036    5026.5564 
   92550    273.46243   -797.42924    271058.14   -79640.203    6948.2497   -86588.452    5027.1628 
   92600    274.85705   -819.92473     271321.3    -79675.05    6983.6847   -86658.735    5036.3234 
   92650    271.45264   -1008.1154    272020.88   -79649.121     6897.184   -86546.305    5050.3085 
   92700    271.65235   -1389.1162    272628.48   -79627.942    6902.2584     -86530.2    5060.2166 
   92750    274.00321   -1171.8042    272256.52   -79691.919    6961.9899   -86653.909    5053.7973 
   92800    275.91205   -1082.3921    271411.01   -79703.416    7010.4905   -86713.906    5044.4604 
   92850    271.01153   -764.54849     270827.2   -79690.636    6885.9761   -86576.612    5038.9231 
   92900    271.51453   -953.44382    270846.98   -79703.645    6898.7566   -86602.402    5041.3166 
   92950    277.33674   -943.23434    271144.59    -79691.59    7046.6896   -86738.279    5050.3651 
   93000    272.26577   -1003.2345    271658.86    -79653.73    6917.8443   -86571.575    5057.6693 
   93050    272.76465   -1240.5818    272033.78   -79617.298      6930.52   -86547.818     5066.784 
   93100     271.3562   -882.72273    271888.56   -79584.157    6894.7337   -86478.891    5064.7509 
   93150    271.58925    -1004.327    271746.99   -79609.271    6900.6551   -86509.926    5063.3248 
   93200    276.83843   -1051.2384    271495.94   -79596.168    7034.0284   -86630.196    5063.2272 
   93250    274.69269   -1014.7311       271373   -79568.324    6979.5087   -86547.833    5059.7675 
   93300    271.12991   -1067.5837    271462.05   -79587.234    6888.9839   -86476.218    5062.5954 
   93350    277.25255   -921.27426    271504.54   -79626.569    7044.5507    -86671.12    5065.3255 
   93400    275.54337   -1005.4447    271736.29   -79634.271    7001.1231   -86635.394    5069.9369 
   93450    273.51106   -1233.8221    271897.61   -79626.237    6949.4852   -86575.722    5071.7883 
   93500     272.6123   -1124.0166    271707.09   -79614.445    6926.6491   -86541.095    5069.5455 
   93550    274.33667   -952.00244    271355.52   -79617.126    6970.4628   -86587.588    5067.5585 
   93600    274.71554   -855.72735       271142   -79591.985    6980.0892   -86572.074    5069.2277 
   93650    275.18655   -1024.3882    271430.38   -79599.914    6992.0569   -86591.971    5074.3424 
   93700    268.83382   -1141.8999    271995.35   -79584.196    6830.6439    -86414.84    5084.0629 
   93750    274.37694   -1312.2747    272327.58   -79565.657    6971.4858   -86537.143    5090.2059 
   93800    271.98757   -888.76601    271908.62   -79563.156    6910.7758   -86473.932    5086.5959 
   93850    276.89005   -1032.0744    271345.13    -79579.19    7035.3401    -86614.53    5084.7745 
   93900    274.57236   -959.82646    270997.44   -79571.008    6976.4511   -86547.459    5084.3007 
   93950    279.76306   -870.86137    271022.98   -79571.829    7108.3387   -86680.168    5082.7859 
   94000    274.16961    -858.3977    271549.28   -79554.549    6966.2178   -86520.767    5088.1536 
   94050     274.6442    -1219.857    272326.39   -79504.702    6978.2766   -86482.979    5099.4657 
   94100     276.2929   -1209.0898    272525.57   -79521.006    7020.1673   -86541.173    5106.6551 
   94150    273.00164    -939.8937    272124.28    -79519.35    6936.5417   -86455.891    5102.9954 
   94200    275.73298   -632.47028    271449.89   -79526.502    7005.9406   -86532.443    5096.0386 
   94250    277.54408   -798.66638    271149.88   -79508.246    7051.9579   -86560.204    5094.8879 
   94300    276.83647   -645.43844    271335.71   -79484.463    7033.9787   -86518.441    5100.3604 
   94350    275.12188   -915.93458    271978.89    -79489.07    6990.4135   -86479.484    5111.4975 
   94400    275.55977   -1284.2192    272139.87    -79505.93    7001.5397    -86507.47    5114.9583 
   94450    277.33976   -826.03027    271804.32   -79511.534    7046.7665     -86558.3    5116.0625 
   94500    280.43575   -1034.7338    271669.81   -79493.474    7125.4307   -86618.905    5113.5445 
   94550    277.23843   -1080.8533     271634.6   -79531.201    7044.1918   -86575.393    5115.7985 
   94600     274.2915   -1036.8506    271783.85   -79510.727    6969.3149   -86480.042    5120.0986 
   94650     275.0574   -1075.0401    271846.06   -79483.811    6988.7753   -86472.586    5123.6538 
   94700    275.94941   -951.59438    271794.88   -79442.345      7011.44   -86453.785     5126.038 
   94750    275.64572   -987.28845    271814.08   -79492.525    7003.7236   -86496.249    5129.0354 
   94800    274.53885   -1166.2238    271746.07   -79501.708    6975.5997   -86477.308    5134.2823 
   94850    277.56997   -880.75286    271466.09   -79523.328    7052.6158   -86575.943    5134.7685 
   94900    274.84471   -917.28463    271440.67    -79527.34    6983.3712   -86510.711    5135.1432 
   94950    274.94766   -985.05325    271783.69   -79557.282    6985.9869   -86543.269    5142.0133 
   95000    273.85211   -1166.0356    272241.88   -79563.328    6958.1509   -86521.479    5152.1137 
   95050    271.69715   -1012.4013    272218.51   -79523.765    6903.3967   -86427.162    5154.3516 
   95100    275.59896   -1071.7493    271843.13   -79540.172    7002.5354   -86542.707    5154.7962 
   95150    272.92568   -952.41968    271456.82   -79558.596    6934.6116   -86493.207    5151.0893 
   95200    272.02562   -843.07576    271120.48   -79569.643    6911.7425   -86481.385    5144.7558 
   95250    273.35951   -947.30032    271335.21   -79557.934    6945.6346   -86503.568    5150.4856 
   95300    273.84717   -951.96801    271824.56   -79591.827    6958.0252   -86549.852    5161.3065 
   95350    274.93005   -996.44195    272164.78   -79600.914    6985.5396   -86586.454    5168.2855 
   95400    275.66825   -1357.0039    272171.77   -79552.096    7004.2961   -86556.392    5167.4753 
   95450    275.25066     -1045.75    271570.21   -79581.524    6993.6857    -86575.21    5163.6153 
   95500    272.87216   -1008.5953     270912.7   -79584.068    6933.2518    -86517.32     5155.341 
   95550     275.3337   -724.71506    270871.59   -79600.522    6995.7955   -86596.318    5155.7584 
   95600    273.47395    -957.4351    271374.38   -79595.813    6948.5424   -86544.355    5167.5802 
   95650    271.01657   -1093.7341    271638.72   -79619.216    6886.1042    -86505.32    5173.1888 
   95700    274.17894   -1055.5049    271724.77   -79600.082    6966.4551   -86566.537    5179.3674 
   95750    273.80687   -1061.7698    271806.83   -79594.527    6957.0012   -86551.528    5178.5478 
   95800     274.4078   -1115.7425    271864.53   -79618.241    6972.2701   -86590.511    5183.4936 
   95850    272.98749   -1116.2808    271640.34   -79605.268    6936.1821    -86541.45    5184.8872 
   95900    275.93448    -974.7197    271476.55   -79610.651    7011.0605   -86621.711    5183.4623 
   95950    267.52447   -783.03792    271487.54   -79600.962    6797.3753   -86398.337    5183.5449 
   96000    275.27889   -863.62929    271545.74   -79606.685    6994.4029   -86601.088    5184.4249 
   96050    272.86242    -943.5972     271812.8   -79580.565    6933.0042   -86513.569    5195.2027 
   96100    276.22742   -1244.9579    271857.82   -79514.312    7018.5036   -86532.816    5200.3924 
   96150    276.59995   -933.33872     271490.7   -79541.808    7027.9691   -86569.778    5194.5337 
   96200    277.74777   -883.58471    271399.36   -79505.765    7057.1335   -86562.898    5195.7004 
   96250     275.8248   -916.28136    271628.26   -79491.565    7008.2736   -86499.839    5204.1559 
   96300    277.91717   -1279.6399    272198.49   -79485.609    7061.4374   -86547.047    5215.9289 
   96350    276.17568   -1025.2383    272209.37   -79493.828     7017.189   -86511.017    5215.5404 
   96400    277.17631    -811.2235    271760.59   -79531.729    7042.6134   -86574.343    5211.2843 
   96450    275.97373   -1052.6343    271729.02   -79507.099    7012.0579   -86519.157    5215.7763 
   96500    279.04697   -908.13088    271712.97   -79511.302    7090.1441   -86601.446    5220.1233 
   96550    274.83604   -1073.9147    271907.31   -79492.846    6983.1509   -86475.996    5223.3648 
   96600    277.01468   -1253.4985    271834.24    -79500.33    7038.5067   -86538.837    5222.7765 
   96650    275.68268   -818.84706    271483.46   -79542.985    7004.6625   -86547.647    5221.3548 
   96700    274.88118   -919.55037    271571.61   -79546.976    6984.2978   -86531.273    5223.5865 
   96750    275.33119   -1048.2698    271606.06    -79535.28    6995.7318   -86531.012    5225.2381 
   96800    277.66698   -1016.1733    271418.49   -79548.612    7055.0806   -86603.692    5223.4216 
   96850    271.55818   -921.73218    271339.32   -79580.349    6899.8656   -86480.214    5222.8021 
   96900    273.45568    -845.3195    271553.61   -79534.615     6948.078   -86482.693    5226.3317 
   96950    280.76395   -1139.7722    271833.64   -79544.403    7133.7698   -86678.173    5236.4047 
   97000    275.10883   -904.62551    271728.33   -79554.222    6990.0819   -86544.304    5236.2951 
   97050    276.63066    -986.6198    271611.74   -79545.298    7028.7493   -86574.048    5236.8113 
   97100    270.49577   -885.57243    271370.41   -79580.369    6872.8715    -86453.24    5236.0007 
   97150    273.81025   -965.84064    271247.16   -79589.907    6957.0871   -86546.994    5234.8482 
   97200    278.21563   -1058.2362    271580.54   -79576.146    7069.0209   -86645.167    5242.8133 
   97250    275.81488   -1150.9044    272004.77   -79579.815    7008.0217   -86587.836    5250.6387 
   97300    271.07922   -953.66788    271855.77   -79605.386    6887.6961   -86493.082    5251.6148 
   97350    272.77137   -933.13791    271649.57   -79625.695     6930.691   -86556.386    5250.2664 
   97400    271.31355   -1081.5302    271429.58   -79645.534      6893.65   -86539.184    5245.6167 
   97450    276.73026   -1136.9787    271191.39   -79668.638    7031.2801   -86699.918    5246.0601 
   97500    270.53566    -901.1191     271139.1   -79670.288    6873.8851   -86544.173    5250.2347 
   97550    274.65983   -1040.5324    271351.06   -79638.409    6978.6736   -86617.083    5255.9059 
   97600    275.79051   -937.97989     271505.3   -79612.178    7007.4023   -86619.581    5261.4233 
   97650    274.67301    -928.3596    271782.54   -79597.059    6979.0086   -86576.067    5266.5814 
   97700    270.65725   -998.78299    272222.47   -79586.498    6876.9743   -86463.473    5274.5067 
   97750    276.00739   -1101.9294    272353.52   -79581.046     7012.913   -86593.959    5277.4068 
   97800    269.96404   -1098.7635    272162.92   -79613.848     6859.361   -86473.209    5278.5835 
   97850    275.55905   -903.71057    271478.21   -79651.661    7001.5215   -86653.182    5277.4147 
   97900    270.29427   -894.64139    270965.02   -79699.805    6867.7517   -86567.557    5275.2672 
   97950    276.64274   -876.74776    270895.82   -79664.822    7029.0563   -86693.878    5276.2767 
   98000    275.28275   -1095.2876    271341.77   -79683.883    6994.5011   -86678.384    5285.0983 
   98050    267.98432   -905.27763    271769.85   -79668.368    6809.0594   -86477.428    5291.6915 
   98100    274.65516   -1164.8061    271889.16   -79686.825     6978.555    -86665.38    5296.4938 
   98150    268.05378   -842.39331    271625.22   -79691.018    6810.8243   -86501.842    5295.5386 
   98200    272.94198   -1003.7898    271343.02   -79719.132    6935.0258   -86654.158     5294.529 
   98250    275.77504   -1000.4125    271086.59   -79715.022    7007.0095   -86722.031    5292.0365 
   98300     269.5388   -835.13724    271013.92   -79742.477    6848.5564   -86591.034    5293.6936 
   98350    269.23162   -1133.0493    271212.01   -79744.589    6840.7515   -86585.341    5302.0787 
   98400    270.11705   -1128.2957    271514.56   -79708.672    6863.2489   -86571.921    5307.7976 
   98450    269.67483   -1049.3885     271778.7   -79675.594    6852.0128   -86527.607    5314.9202 
   98500    275.10913   -1285.8466    271701.42   -79690.163    6990.0896   -86680.253    5315.2274 
   98550    271.96442   -986.17656    271477.28   -79721.158    6910.1876   -86631.346    5314.5733 
   98600    272.88419   -1280.7912    271182.99   -79732.012    6933.5574   -86665.569    5311.5744 
   98650    271.17599   -844.13985    270869.58   -79732.293    6890.1547   -86622.448    5311.4026 
   98700    270.33183   -920.93301    271086.83   -79714.787     6868.706   -86583.493    5320.5094 
   98750     270.6048   -956.28792    271499.73   -79693.116    6875.6417   -86568.757    5329.1511 
   98800    271.62466   -1308.1736    271855.92   -79685.705    6901.5548    -86587.26    5335.9595 
   98850    269.61903   -1094.0673    271615.39   -79664.824    6850.5948   -86515.419     5334.405 
   98900    271.50421   -1010.6868    271311.78   -79680.287    6898.4944   -86578.782    5328.6994 
   98950    272.16902   -994.97558    271155.09   -79663.517    6915.3862   -86578.903    5328.6549 
   99000    269.85955   -971.25085    271461.05   -79641.824    6856.7061   -86498.531    5339.4311 
   99050    267.35707   -951.52948    272079.87    -79640.79    6793.1219   -86433.912    5350.4598 
   99100    270.77719   -1295.2055    272391.98   -79641.412    6880.0218   -86521.434     5356.662 
   99150    272.58424   -1080.7804    271802.71   -79649.125    6925.9361   -86575.061    5352.7692 
   99200    274.14892   -756.16646    271020.43   -79671.647    6965.6923   -86637.339    5342.9173 
   99250    274.22562   -800.97848    270790.57   -79701.443     6967.641   -86669.084    5344.4746 
   99300    271.43715   -828.47787    271177.66   -79730.108    6896.7903   -86626.898    5353.9554 
   99350    273.46121   -1122.7874    271549.01    -79746.56    6948.2187   -86694.779    5364.2342 
   99400    268.73421   -783.29642    271589.79   -79722.129     6828.113   -86550.242    5369.9566 
   99450    276.28761   -901.26665     271578.1   -79719.892    7020.0331   -86739.925    5370.6949 
   99500    266.95968   -776.59512    271591.53   -79742.019    6783.0249   -86525.044    5375.4894 
   99550    271.82865   -1002.6905    271552.53   -79693.467    6906.7379   -86600.205    5378.8836 
   99600    272.01558   -962.06426    271271.05   -79703.659    6911.4875   -86615.146    5378.7333 
   99650    273.32132     -1041.89    271293.29   -79707.146    6944.6643   -86651.811    5378.3382 
   99700    272.49817   -735.27076    271506.15   -79699.403    6923.7492   -86623.152     5381.993 
   99750    270.36988   -1034.0787     271689.8    -79702.01    6869.6727   -86571.682    5385.9638 
   99800    273.75107   -1198.5331    271523.94   -79703.848    6955.5834   -86659.431     5384.685 
   99850    268.54144   -796.96638     271319.5   -79693.845     6823.215    -86517.06    5381.6226 
   99900    269.80068   -1154.8528    271187.93    -79713.67    6855.2104    -86568.88    5387.5323 
   99950    274.60624   -726.38394    271088.24   -79700.271     6977.312   -86677.583    5391.2392 
  100000    270.35784   -1054.7018    271618.08    -79657.73    6869.3669   -86527.097     5400.458 
Loop time of 349.535 on 6 procs for 100000 steps with 8525 atoms

Performance: 247.186 ns/day, 0.097 hours/ns, 286.095 timesteps/s
99.6% CPU use with 6 MPI tasks x no OpenMP threads

MPI task timing breakdown:
Section |  min time  |  avg time  |  max time  |%varavg| %total
---------------------------------------------------------------
Pair    | 161.84     | 224.26     | 293.42     | 346.2 | 64.16
Neigh   | 34.644     | 38.68      | 42.273     |  47.3 | 11.07
Comm    | 7.5873     | 80.344     | 146.8      | 611.0 | 22.99
Output  | 0.13335    | 0.13565    | 0.1435     |   1.0 |  0.04
Modify  | 4.9795     | 5.0127     | 5.0571     |   1.1 |  1.43
Other   |            | 1.103      |            |       |  0.32

Nlocal:        1420.83 ave        1437 max        1411 min
Histogram: 1 2 0 1 0 0 1 0 0 1
Nghost:        2203.83 ave        2233 max        2172 min
Histogram: 1 1 1 0 0 0 0 1 0 2
Neighs:        0.00000 ave           0 max           0 min
Histogram: 6 0 0 0 0 0 0 0 0 0
FullNghs:      44668.7 ave       45124 max       43937 min
Histogram: 1 0 0 0 1 0 1 1 0 2

Total # of neighbors = 268012
Ave neighs/atom = 31.438358
Neighbor list builds = 20852
Dangerous builds = 0

# Create data file for import to other simulations
#
write_data data.${NAME}
write_data data.coexist_273K_-1000atm_mW
System init for write_data ...

Total wall time: 0:05:49
