
# Import phase coexistance setup
#
read_data           data.coexist_${TEMP}K_${PRES}atm_mW
read_data           data.coexist_273K_${PRES}atm_mW
read_data           data.coexist_273K_-1000atm_mW
Reading data file ...
  orthogonal box = (0.27684721 -0.40347546 -0.40347546) to (104.37526 50.677276 50.677276)
  3 by 1 by 2 MPI processor grid
  reading atoms ...
  8525 atoms
  reading velocities ...
  8525 velocities
  read_data CPU = 0.027 seconds

# Define potential
#
pair_style 	    sw
pair_coeff	    * * /data/emrosky-sim/Freezing_Simulations/Melting/mW_fancy/mW.sw mW
Reading sw potential file /data/emrosky-sim/Freezing_Simulations/Melting/mW_fancy/mW.sw with DATE: 2019-02-27

# Reset velocity/set timestep
#
velocity	    all create ${TEMP} 120598 rot yes dist gaussian
velocity	    all create 273 120598 rot yes dist gaussian
timestep	    10.0

# Define output
#
compute	            1 all msd
compute             2 all orientorder/atom nnn NULL degrees 2 4 12
thermo              1000
thermo_style        custom step temp press vol etotal ke pe c_1[4]

# Neighbor lists
#
neigh_modify        delay 0 every 1 check yes

# Set fixes
#
fix                 1 all momentum 10 linear 1 1 1 rescale
fix                 2 all nph iso ${PRES} ${PRES} ${PCOUPL}
fix                 2 all nph iso -1000 ${PRES} ${PCOUPL}
fix                 2 all nph iso -1000 -1000 ${PCOUPL}
fix                 2 all nph iso -1000 -1000 10000.0
fix                 3 all temp/csvr ${TEMP} ${TEMP} ${TCOUPL} 837492
fix                 3 all temp/csvr 273 ${TEMP} ${TCOUPL} 837492
fix                 3 all temp/csvr 273 273 ${TCOUPL} 837492
fix                 3 all temp/csvr 273 273 5000.0 837492

# Run very short equilibration
#
dump		    1 all atom 50 eq.${NAME}.dump
dump		    1 all atom 50 eq.melt_273K_-1000atm_mW.dump
run	            500
Neighbor list info ...
  update every 1 steps, delay 0 steps, check yes
  max neighbors/atom: 2000, page size: 100000
  master list distance cutoff = 6.3065
  ghost atom cutoff = 6.3065
  binsize = 3.15325, bins = 34 17 17
  2 neighbor lists, perpetual/occasional/extra = 1 1 0
  (1) pair sw, perpetual
      attributes: full, newton on
      pair build: full/bin/atomonly
      stencil: full/bin/3d
      bin: standard
  (2) compute orientorder/atom, occasional, copy from (1)
      attributes: full, newton on
      pair build: copy
      stencil: none
      bin: none
Per MPI rank memory allocation (min/avg/max) = 4.602 | 4.603 | 4.605 Mbytes
Step Temp Press Volume TotEng KinEng PotEng c_1[4] 
       0          273   -1043.4036    271618.08   -79590.597       6936.5   -86527.097            0 
     500    320.48216   -1021.7247     265262.3   -81427.889     8142.947   -89570.836    16.570397 
Loop time of 1.69077 on 6 procs for 500 steps with 8525 atoms

Performance: 255.505 ns/day, 0.094 hours/ns, 295.724 timesteps/s
99.7% CPU use with 6 MPI tasks x no OpenMP threads

MPI task timing breakdown:
Section |  min time  |  avg time  |  max time  |%varavg| %total
---------------------------------------------------------------
Pair    | 0.91583    | 1.1643     | 1.4575     |  19.1 | 68.86
Neigh   | 0.12901    | 0.15294    | 0.16657    |   4.0 |  9.05
Comm    | 0.02975    | 0.33644    | 0.60885    |  38.0 | 19.90
Output  | 0.0078577  | 0.0084098  | 0.0089326  |   0.4 |  0.50
Modify  | 0.02308    | 0.023654   | 0.024529   |   0.4 |  1.40
Other   |            | 0.005041   |            |       |  0.30

Nlocal:        1420.83 ave        1447 max        1402 min
Histogram: 2 0 0 0 2 0 1 0 0 1
Nghost:        2204.83 ave        2230 max        2181 min
Histogram: 2 0 0 1 0 0 0 1 1 1
Neighs:        0.00000 ave           0 max           0 min
Histogram: 6 0 0 0 0 0 0 0 0 0
FullNghs:      45355.3 ave       46207 max       44699 min
Histogram: 2 0 0 1 0 0 2 0 0 1

Total # of neighbors = 272132
Ave neighs/atom = 31.921642
Neighbor list builds = 85
Dangerous builds = 0

reset_timestep      0
undump              1
unfix               2
unfix               3


################################################
#######         Run Simulation         #########
################################################

log                 log.run_${NAME}
log                 log.run_melt_273K_-1000atm_mW
