
# Set production fixes - Nose/Hoover
#
fix                 2 all nph iso ${PRES} ${PRES} ${PCOUPL}
fix                 2 all nph iso -1000 ${PRES} ${PCOUPL}
fix                 2 all nph iso -1000 -1000 ${PCOUPL}
fix                 2 all nph iso -1000 -1000 10000.0
fix                 3 all temp/csvr ${TEMP} ${TEMP} ${TCOUPL} 837492
fix                 3 all temp/csvr 273 ${TEMP} ${TCOUPL} 837492
fix                 3 all temp/csvr 273 273 ${TCOUPL} 837492
fix                 3 all temp/csvr 273 273 5000.0 837492

# Define Order parameter
#
compute             2 all orientorder/atom nnn NULL cutoff 3.5
thermo              200
thermo_style        custom step temp press vol etotal ke pe c_1[4]

# Run 1ns simulation
dump		    1 all custom 400 prod.${NAME}.dump id type x y z vx vy vz c_2[*]
dump		    1 all custom 400 prod.ice_273K_-1000atm_mW.dump id type x y z vx vy vz c_2[*]
run                 200000
Neighbor list info ...
  update every 1 steps, delay 0 steps, check yes
  max neighbors/atom: 2000, page size: 100000
  master list distance cutoff = 6.3065
  ghost atom cutoff = 6.3065
  binsize = 3.15325, bins = 18 16 16
  2 neighbor lists, perpetual/occasional/extra = 1 1 0
  (1) pair sw, perpetual
      attributes: full, newton on
      pair build: full/bin/atomonly
      stencil: full/bin/3d
      bin: standard
  (2) compute orientorder/atom, occasional, copy from (1)
      attributes: full, newton on
      pair build: copy
      stencil: none
      bin: none
Per MPI rank memory allocation (min/avg/max) = 5.839 | 5.839 | 5.840 Mbytes
Step Temp Press Volume TotEng KinEng PotEng c_1[4] 
       0    274.96918    -973.7494    142754.41   -49052.271    3776.0395   -52828.311   0.27976084 
     200    269.77299    -1017.689    142797.65   -49043.011    3704.6823   -52747.694   0.26709939 
     400    271.98763   -1034.1461    142863.94   -49036.479    3735.0951   -52771.574   0.28160794 
     600    271.79415   -1049.9451    142850.67   -49072.526    3732.4382   -52804.964   0.25975485 
     800    271.83746   -1004.4024    142768.81   -49087.987    3733.0329    -52821.02    0.2673902 
    1000      272.844   -975.09837    142706.14   -49102.192    3746.8553   -52849.048   0.28145104 
    1200    268.16749   -973.99254    142764.07   -49125.146    3682.6347   -52807.781   0.25848975 
    1400    268.99224   -1064.0309    142869.36    -49114.55    3693.9606   -52808.511   0.26818829 
    1600    268.80333    -1049.518    142812.06   -49118.487    3691.3664   -52809.853   0.27518766 
    1800    270.70936   -948.70446    142641.95   -49126.818    3717.5412   -52844.359    0.2718575 
    2000    270.26834   -942.16777    142621.83   -49084.933    3711.4848   -52796.418   0.28240975 
    2200    271.40129   -1011.0511    142819.57   -49051.931    3727.0432   -52778.974   0.27044862 
    2400    270.91244   -1123.0526    142929.36   -49066.606      3720.33   -52786.936   0.27384627 
    2600    271.59486   -1006.9777     142688.4   -49111.827    3729.7013   -52841.529   0.26487127 
    2800    271.34268   -847.82696    142418.22   -49131.216    3726.2383   -52857.454   0.29110422 
    3000    269.64899   -945.36804    142609.05   -49140.239    3702.9796   -52843.219   0.27988038 
    3200    269.87734   -1144.1926    143037.16   -49082.498    3706.1154   -52788.613   0.25192969 
    3400    267.41626   -1150.9811    143031.15   -49117.359    3672.3184   -52789.677   0.27294844 
    3600    269.29241   -839.97756    142473.14   -49152.461    3698.0828   -52850.544   0.27384992 
    3800    275.26383   -720.10836    142233.47   -49087.419    3780.0858   -52867.505   0.29915844 
    4000     275.3561   -1078.9741    142827.84   -49074.504    3781.3529   -52855.857   0.27534139 
    4200    270.44126   -1333.1078    143298.86   -49079.812    3713.8594   -52793.671   0.25040974 
    4400    271.43635   -1085.5255    142796.12    -49075.11    3727.5246   -52802.635   0.28839707 
    4600      272.926   -697.49435    142124.91   -49063.998    3747.9814   -52811.979   0.30047433 
    4800    273.59737   -844.50824    142395.42   -49053.862     3757.201   -52811.063   0.29672564 
    5000    274.79027   -1248.2491    143228.78   -49020.948    3773.5826   -52794.531   0.25488916 
    5200    272.10202   -1246.6074    143284.68   -49019.848     3736.666   -52756.514   0.24896253 
    5400    276.57066   -852.87554    142549.41   -48994.477    3798.0319   -52792.509   0.28815043 
    5600    275.16838   -698.24482    142262.47   -48984.056     3778.775   -52762.831   0.29333775 
    5800    270.61667   -1011.9699    142849.14   -48967.519    3716.2682   -52683.787   0.29162312 
    6000    275.89753   -1306.5207    143365.37   -48945.316    3788.7882   -52734.104     0.246936 
    6200    274.47908   -1082.7006    143024.76   -48943.428    3769.3092   -52712.737   0.25960463 
    6400    277.34857   -760.89062    142414.58   -48921.641    3808.7148   -52730.356   0.29524267 
    6600    278.07191   -822.58032    142449.84   -48960.076    3818.6481   -52778.724   0.28200315 
    6800    269.98268   -1113.6797    143019.77   -48989.192    3707.5619   -52696.754   0.27976752 
    7000    273.98814   -1213.9842    143204.84   -48988.432    3762.5673   -52750.999   0.25154231 
    7200    275.69576   -998.54207    142705.36   -48945.941    3786.0173   -52731.958   0.28172205 
    7400    275.41087   -783.92439    142319.12   -48936.768    3782.1051   -52718.874   0.29942133 
    7600    272.72615   -941.04399    142669.05   -48964.487     3745.237   -52709.724   0.28627849 
    7800    273.25613     -1238.44    143195.05    -48982.78    3752.5149   -52735.295   0.27040877 
    8000    277.46489   -1161.0382    143059.83    -48952.85    3810.3121   -52763.163   0.25353483 
    8200    273.68068   -862.66313    142485.52   -48994.752    3758.3451   -52753.097   0.29438098 
    8400     272.2827    -795.3781     142373.9   -49021.003    3739.1472    -52760.15   0.29019797 
    8600    273.50159   -1073.3724    142872.94   -48977.419    3755.8857   -52733.305   0.27171775 
    8800    272.22819   -1197.9227    143189.61   -48904.638    3738.3986   -52643.037   0.26965306 
    9000    278.57253   -1030.3409    142904.85   -48889.707    3825.5229    -52715.23   0.26243361 
    9200    279.58257   -814.48055    142542.38   -48881.319    3839.3933   -52720.712   0.29328157 
    9400    274.86099    -945.0676    142676.95   -48927.206    3774.5537    -52701.76   0.27768261 
    9600    279.17632   -1083.8438    143024.17   -48911.997    3833.8145   -52745.811    0.2620575 
    9800    272.81561   -1144.6216    143043.11    -48926.12    3746.4654   -52672.586   0.27572976 
   10000    273.95832    -947.2502     142697.2   -48926.983    3762.1578   -52689.141   0.28067944 
   10200    275.76207   -838.74957    142532.29   -48921.987     3786.928   -52708.915   0.28923741 
   10400    276.93171   -1012.8523    142810.08   -48906.993    3802.9902   -52709.983   0.27385867 
   10600    277.89453   -1134.3402    143093.39    -48884.59    3816.2121   -52700.802   0.26623323 
   10800    276.26477   -1073.4883    142924.52   -48917.273    3793.8314   -52711.104   0.27415083 
   11000    274.86324   -878.77954    142557.69   -48961.686    3774.5848    -52736.27   0.27424462 
   11200    282.23153   -894.75215    142545.85   -48978.583    3875.7705   -52854.354   0.29258603 
   11400    273.30303   -1053.7556    142834.08   -48998.594     3753.159   -52751.753   0.26883686 
   11600    275.41688   -1118.4029    142963.66   -48969.358    3782.1877   -52751.546   0.26060636 
   11800    269.37934   -998.94911    142779.16   -49040.866    3699.2765   -52740.142   0.27825527 
   12000    270.94693   -908.12945    142581.77   -49044.993    3720.8036   -52765.796   0.26962575 
   12200    273.51946    -976.5283    142666.14    -49023.18    3756.1311   -52779.311   0.28447647 
   12400    269.22892   -1080.2226    142877.68   -48989.668    3697.2108   -52686.879   0.26994436 
   12600     276.5041   -1058.5516    142862.61   -49000.709     3797.118   -52797.828   0.26379634 
   12800    275.12561   -972.39575    142690.21   -49012.897    3778.1878   -52791.085   0.26403732 
   13000    272.24173    -948.3617     142641.7   -48995.728    3738.5846   -52734.313   0.28203743 
   13200    274.91845   -1009.1543    142776.09   -48967.176    3775.3429   -52742.519   0.28286653 
   13400    278.29323   -1023.4454    142886.68   -48984.149    3821.6874   -52805.836   0.25917493 
   13600     277.9153   -1041.1184    142800.95   -48977.187    3816.4973   -52793.684   0.28752775 
   13800    275.58903   -930.77483    142649.98   -48973.562    3784.5517   -52758.114   0.27983282 
   14000    272.39277   -973.15332    142705.58   -48992.001    3740.6588    -52732.66   0.26893457 
   14200    274.13554   -1081.7188    142880.36   -49014.929    3764.5915    -52779.52   0.27894114 
   14400    272.34916   -1071.3483    142856.59   -49038.351    3740.0599   -52778.411   0.26651139 
   14600    271.94361    -952.1577    142657.57   -49036.572    3734.4907   -52771.062   0.28564694 
   14800    273.14137   -944.00987     142610.3   -49022.745     3750.939   -52773.684   0.27857575 
   15000    270.67513   -1025.2346    142783.96   -49069.052    3717.0712   -52786.123   0.27051449 
   15200    268.09802   -1064.0731    142887.61   -49118.884    3681.6807   -52800.564   0.27427707 
   15400    269.93644   -1035.2731    142757.12    -49136.64     3706.927   -52843.567   0.26790234 
   15600    272.75009   -912.53329    142580.63   -49174.024    3745.5657   -52919.589   0.27578334 
   15800    269.10498   -928.38989    142649.02   -49128.092    3695.5088     -52823.6   0.26539399 
   16000     271.2275   -1096.3622    142887.88   -49112.384    3724.6566   -52837.041   0.26283317 
   16200    274.20778   -1079.3213    142915.56   -49062.828    3765.5835   -52828.411   0.26949981 
   16400    272.27138   -958.81087    142682.61   -49063.057    3738.9918   -52802.049   0.26912871 
   16600    270.94025    -905.0252     142576.1   -49080.873    3720.7119   -52801.585   0.29108779 
   16800    274.85671   -989.76196    142754.78   -49035.478     3774.495   -52809.973    0.2650226 
   17000    274.72842   -1118.6089    142953.84   -49054.102    3772.7333   -52826.836   0.26175436 
   17200    272.00246   -1063.5045    142830.66   -49039.083    3735.2988   -52774.382   0.27349327 
   17400    270.98388   -912.77465    142589.03   -49085.607    3721.3111   -52806.918   0.27358664 
   17600    274.13586     -897.439    142594.42   -49121.826     3764.596   -52886.422   0.27660792 
   17800    269.76787   -1061.4579    142812.74    -49135.97     3704.612   -52840.582   0.26441023 
   18000    268.77144   -1117.5274    142923.84   -49166.403    3690.9285   -52857.332   0.26698801 
   18200    267.01552   -1023.4195     142739.6    -49193.32    3666.8152   -52860.135   0.25852352 
   18400    268.67345   -915.52497    142522.53   -49215.837    3689.5828   -52905.419   0.27811559 
   18600    268.21309   -944.21507    142630.24   -49174.575    3683.2609   -52857.836   0.28688008 
   18800    269.03115   -1076.0555    142952.53   -49109.096     3694.495   -52803.591   0.25654983 
   19000    268.71776   -1150.1098    142996.85    -49134.46    3690.1914   -52824.652   0.26408185 
   19200    269.94115   -953.55134    142603.55   -49114.921    3706.9917   -52821.913   0.27962032 
   19400    272.72262   -802.00126    142359.88   -49110.236    3745.1885   -52855.424   0.27920053 
   19600    271.77668     -989.762    142711.93   -49132.246    3732.1982   -52864.444   0.27118685 
   19800    269.38263   -1233.8386    143103.73    -49121.59    3699.3217   -52820.912   0.25909111 
   20000    273.10838   -1084.6525    142849.13   -49114.953     3750.486   -52865.439   0.26357593 
   20200    269.18802   -793.27554     142268.5   -49145.523    3696.6492   -52842.172   0.29198728 
   20400    267.36571   -793.19143    142286.13   -49125.929    3671.6242   -52797.554   0.29884673 
   20600    268.62289     -1146.29    142932.99   -49112.956    3688.8886   -52801.845   0.26305462 
   20800    269.09161    -1249.751    143230.81   -49108.178    3695.3252   -52803.503   0.25190509 
   21000    266.83493   -1023.4346    142700.97    -49111.64    3664.3352   -52775.975    0.2839334 
   21200    272.12414   -710.10032    142165.04   -49109.393    3736.9697   -52846.363   0.28645521 
   21400    270.30348   -857.20871    142527.28   -49102.218    3711.9674   -52814.185   0.28028556 
   21600    270.83708   -1278.5551    143289.04    -49048.73    3719.2951   -52768.025   0.25235564 
   21800    270.88017    -1259.278    143245.69   -49001.746    3719.8869   -52721.633   0.24863845 
   22000    271.01174   -815.86776    142451.71   -49020.733    3721.6936   -52742.426   0.28720273 
   22200    277.34293   -703.78482    142230.99   -48987.184    3808.6372   -52795.822   0.29990399 
   22400    274.06394   -1099.1089    142985.72    -48956.46    3763.6083   -52720.068   0.25656191 
   22600    274.76779   -1332.2921    143513.76   -48953.009     3773.274   -52726.283   0.24188546 
   22800    273.92282   -1093.3607    142989.14   -48995.759    3761.6704    -52757.43    0.2669849 
   23000    273.99635   -702.97924    142272.83   -49022.724      3762.68   -52785.404   0.29120503 
   23200     272.4265   -804.99271    142456.35   -49016.213     3741.122   -52757.335    0.2896638 
   23400    273.82972   -1144.3687    143138.59   -49015.245    3760.3917   -52775.636   0.26080699 
   23600    266.83059   -1209.2462    143242.65   -49027.128    3664.2756   -52691.404   0.24220107 
   23800    278.03558   -951.64135     142719.5   -48978.654    3818.1491   -52796.803   0.27117342 
   24000    272.36115   -808.18293    142439.13   -49018.394    3740.2245   -52758.619   0.29570445 
   24200    273.51496   -947.07469    142731.68   -48998.793    3756.0693   -52754.862   0.26814608 
   24400    272.59583    -1188.918    143097.65   -48997.051    3743.4472   -52740.499   0.26153062 
   24600     275.7059   -1087.3333    142954.84   -48998.469    3786.1566   -52784.626   0.26614874 
   24800    273.10427   -911.05128    142587.21   -48931.517    3750.4295   -52681.946   0.28055343 
   25000    273.85508   -925.97795    142588.05   -48930.871    3760.7401   -52691.611   0.28549452 
   25200    275.32757   -1060.9855    142897.38   -48949.066    3780.9612   -52730.027   0.27475482 
   25400    274.09627   -1111.9613    143003.32   -49005.481    3764.0522   -52769.534   0.26321337 
   25600    274.35047   -989.55223     142762.9   -49030.079     3767.543   -52797.622    0.2722673 
   25800    277.46402   -894.23409    142594.79   -49010.958    3810.3002   -52821.258   0.27328494 
   26000    275.82956   -964.38746    142752.97   -48989.221    3787.8547   -52777.076   0.27241851 
   26200    270.48976   -1129.5391    142959.44   -49028.955    3714.5255   -52743.481   0.26792979 
   26400    275.84568   -1011.6258    142833.88    -49052.91    3788.0762   -52840.986   0.26849241 
   26600    271.02687   -948.91033    142593.93   -49064.727    3721.9015   -52786.628   0.28677087 
   26800    270.63933   -931.87488    142626.09   -49069.759    3716.5794   -52786.338   0.27310269 
   27000     273.3686   -1104.5844    142897.79    -49066.93    3754.0594    -52820.99   0.26673247 
   27200    272.57372   -1079.5445     142967.2   -49059.383    3743.1437   -52802.526   0.26351181 
   27400    272.40706   -974.04746    142717.13   -49030.574     3740.855   -52771.429   0.27051456 
   27600    270.10747   -876.94522    142535.07   -49037.294    3709.2757   -52746.569   0.28420602 
   27800    275.45858   -969.20289    142728.77   -49031.758    3782.7603   -52814.518   0.27214265 
   28000      273.379    -1153.565    143025.25   -49016.605    3754.2022   -52770.807   0.26129296 
   28200    275.84857   -1060.8661    142954.58   -49034.462    3788.1158   -52822.578   0.26365929 
   28400    275.64758   -882.88235    142628.29   -49034.912    3785.3558   -52820.268   0.28078796 
   28600    275.89053     -842.252    142563.85   -49055.971     3788.692   -52844.663   0.27969787 
   28800    278.33718    -1013.361     142846.3   -49062.929    3822.2909   -52885.219   0.25481616 
   29000    274.18114   -1133.9162    143010.08   -49093.742    3765.2177    -52858.96    0.2595383 
   29200    263.99556   -1054.2166    142742.29   -49131.269    3625.3433   -52756.613   0.27251977 
   29400    272.13932   -874.77399    142418.54   -49136.715    3737.1782   -52873.893   0.27888258 
   29600    272.52077   -920.02586    142537.04   -49099.096    3742.4166   -52841.512   0.29133119 
   29800    277.88893   -1083.3098    142951.97   -49020.118    3816.1353   -52836.253   0.26041986 
   30000    271.69796   -1145.4451    143055.16   -49008.316    3731.1172   -52739.433   0.26369385 
   30200    273.31125   -939.83874    142683.45   -49022.656    3753.2719   -52775.928   0.27500171 
   30400    270.47285   -840.30885    142445.38   -49075.462    3714.2932   -52789.755   0.28527873 
   30600    271.98662   -968.15651    142719.94    -49022.92    3735.0813   -52758.001   0.28299177 
   30800    274.46228   -1209.6547    143130.39   -48985.851    3769.0784   -52754.929    0.2609063 
   31000    274.36669    -1143.934    143034.92   -48974.332    3767.7658   -52742.098   0.26663517 
   31200    278.17171    -865.1256     142518.5   -48984.939    3820.0185   -52804.957   0.28603144 
   31400    273.14826   -765.39797     142416.1   -48983.694    3751.0336   -52734.727   0.28657987 
   31600    273.02441   -1120.6452    142962.56   -49034.241    3749.3328   -52783.574   0.26990377 
   31800    271.77997   -1287.6405    143283.39   -49001.795    3732.2435   -52734.038   0.25814372 
   32000    273.15203   -988.86152    142828.25   -48980.273    3751.0854   -52731.359   0.27154292 
   32200    273.00552   -768.17981     142261.5   -49020.158    3749.0734   -52769.231    0.2910536 
   32400    276.60466   -816.72884    142470.62   -49012.775    3798.4989   -52811.274   0.28291648 
   32600     269.1251   -1255.0051    143193.93   -48987.967    3695.7852   -52683.752   0.26028656 
   32800    271.01252   -1254.7845    143268.24   -48981.559    3721.7043   -52703.264    0.2558891 
   33000    276.98617   -871.34195    142537.06   -48982.837    3803.7381   -52786.575   0.29255488 
   33200    272.23322   -693.67297    142160.46   -48982.855    3738.4677   -52721.323   0.30617493 
   33400    274.49237   -1006.3018    142793.86   -48939.519    3769.4916    -52709.01   0.27607561 
   33600    274.30576   -1371.4645    143476.79   -48863.894     3766.929   -52630.823   0.26455345 
   33800     274.7182    -1201.148       143127     -48901.1     3772.593   -52673.693   0.25800067 
   34000    276.09173   -678.92821    142238.45   -48934.075    3791.4551    -52725.53   0.29985558 
   34200    276.55989   -707.08375    142239.47   -48965.948    3797.8841   -52763.832   0.30724209 
   34400    275.21819   -1200.7313    143102.95   -49015.138    3779.4592   -52794.597   0.25752643 
   34600    270.13484   -1312.4345    143392.22   -48983.566    3709.6515   -52693.217   0.24780558 
   34800    271.89139    -948.7856    142687.75   -49034.218    3733.7735   -52767.991   0.27415157 
   35000    275.95579   -695.96921    142184.66    -49065.01    3789.5883   -52854.599    0.2937302 
   35200    271.71885   -874.62123    142595.08    -49049.57    3731.4041   -52780.974   0.28085976 
   35400    270.10821   -1200.9673    143181.52   -49003.414    3709.2858   -52712.699   0.26925276 
   35600    268.86664   -1195.2527    143062.42   -48999.373    3692.2359   -52691.609   0.26336668 
   35800    272.60721   -863.42686    142563.97   -49007.584    3743.6036   -52751.188   0.26384824 
   36000    274.25392   -872.49783     142512.6   -49010.482    3766.2171   -52776.699   0.29378249 
   36200    271.74528   -1028.6792    142901.16   -49020.168     3731.767   -52751.935   0.26039327 
   36400    271.93368   -1169.7474    143106.47   -49042.061    3734.3542   -52776.415   0.24806342 
   36600    272.60656   -1011.8772       142867    -49022.39    3743.5947   -52765.985   0.28163962 
   36800    275.18095   -890.50083    142602.44   -49068.374    3778.9477   -52847.322   0.26891066 
   37000    266.41984   -910.69948    142691.62   -49057.761    3658.6349   -52716.396   0.26602954 
   37200    274.29813   -1098.7176    142957.62   -49018.018    3766.8243   -52784.842   0.27672755 
   37400    272.95228   -1080.0975    142966.68   -49009.875    3748.3423   -52758.217   0.25964072 
   37600    271.74481   -956.11474    142739.42   -49038.313    3731.7606   -52770.074   0.26011238 
   37800    275.53113   -921.47143    142606.12   -49008.463    3783.7566    -52792.22   0.28276429 
   38000    273.32365   -952.94785    142750.69   -49057.115    3753.4422   -52810.557   0.26383885 
   38200    272.98042   -1064.9216    142938.61   -49048.343    3748.7287   -52797.072   0.25207005 
   38400    272.83825    -1030.378    142865.42    -49016.35    3746.7764   -52763.127   0.28476267 
   38600     277.0283   -933.23057    142664.08   -49017.258    3804.3166   -52821.574    0.2674868 
   38800    272.99895   -920.90576    142662.25   -49065.281    3748.9832   -52814.264   0.25763767 
   39000     269.3229   -1038.1987    142842.18   -49088.156    3698.5015   -52786.658   0.27645321 
   39200    271.35379   -1050.4774    142878.58   -49107.212    3726.3909   -52833.603   0.25655959 
   39400    267.69502   -995.86809     142701.2   -49100.551    3676.1465   -52776.698   0.27299012 
   39600    272.86972   -944.74175    142587.16    -49169.34    3747.2085   -52916.548   0.29110758 
   39800    264.79823   -967.31467    142673.35   -49157.167    3636.3661   -52793.533   0.27058265 
   40000    266.81722   -1060.1035    142817.29   -49166.044     3664.092   -52830.136   0.25512971 
   40200    271.95036   -1018.6985    142788.26   -49142.357    3734.5833   -52876.941   0.27163869 
   40400    270.75858   -963.71286    142642.34   -49139.035    3718.2171   -52857.252   0.28581947 
   40600    270.24432   -953.12564    142623.93    -49166.62     3711.155   -52877.775   0.26028427 
   40800    268.22798   -1034.7444    142786.58    -49180.78    3683.4654   -52864.246   0.28395052 
   41000     268.0838   -1071.9944    142852.83   -49137.658    3681.4855   -52819.143   0.27563317 
   41200    265.40946   -973.29845    142710.64    -49171.15    3644.7598    -52815.91   0.25065562 
   41400     271.2036   -941.91158    142621.67    -49140.33    3724.3283   -52864.658   0.28637862 
   41600    269.95419   -1020.3423    142731.03   -49134.144    3707.1707   -52841.315    0.2679206 
   41800    269.59104   -1013.6919    142873.97   -49130.818    3702.1838   -52833.002   0.25070242 
   42000    272.48105   -1087.0239    142856.32   -49106.534    3741.8711   -52848.405   0.28237646 
   42200     268.1155   -944.38249    142683.63   -49133.303    3681.9207   -52815.224   0.27242558 
   42400      270.063   -923.80768    142637.64   -49182.813     3708.665   -52891.478   0.25599752 
   42600       266.04   -1016.6235    142822.79   -49205.781    3653.4188   -52859.199   0.26818115 
   42800    264.83719   -1097.5318    142947.02    -49204.29    3636.9011   -52841.191   0.26576246 
   43000     268.5904   -1005.7404    142741.86   -49163.809    3688.4424   -52852.252   0.26181085 
   43200    269.64466   -866.62222     142435.8   -49172.039    3702.9201   -52874.959   0.29100143 
   43400    272.28858   -918.05379    142540.43   -49163.139    3739.2279   -52902.367   0.28158183 
   43600    269.11353   -1162.1905    142967.35   -49152.196    3695.6263   -52847.822   0.24410055 
   43800    268.89324   -1199.2579     143053.2   -49124.758    3692.6012   -52817.359   0.26943358 
   44000    267.08966   -930.90775    142624.09   -49147.536    3667.8333   -52815.369   0.27400571 
   44200      271.649   -775.61705    142343.68   -49193.287    3730.4449   -52923.732   0.27138065 
   44400    267.70783    -987.8694    142684.25   -49164.551    3676.3223   -52840.874   0.28392315 
   44600    273.21344   -1132.9442    143119.84   -49098.383    3751.9287   -52850.311   0.24941543 
   44800     270.2797   -1131.5034    142990.47   -49067.158    3711.6408   -52778.799   0.25625169 
   45000    271.77758   -884.45613    142515.88   -49108.796    3732.2106   -52841.007   0.29003729 
   45200    269.29386   -824.93025    142459.81   -49129.412    3698.1027   -52827.515   0.27825589 
   45400    269.53011   -1067.6719    142888.55   -49169.669     3701.347   -52871.016   0.25059761 
   45600    267.36558   -1185.1752    143078.76   -49154.853    3671.6224   -52826.475   0.25664476 
   45800    270.17363   -995.70449    142744.21   -49134.342    3710.1841   -52844.526   0.28136595 
   46000    273.79212   -814.78177    142404.81   -49136.285    3759.8755   -52896.161    0.2785261 
   46200    266.90226   -961.49145    142597.58   -49165.199    3665.2598   -52830.459   0.28892745 
   46400    266.85377   -1153.4436     143002.9   -49142.602     3664.594   -52807.196   0.26830803 
   46600    265.95687   -1104.3339    142968.16   -49139.269    3652.2772   -52791.546   0.23863731 
   46800    270.61935   -913.68616    142556.62   -49112.883    3716.3051   -52829.188    0.2913375 
   47000    268.23468   -834.83287    142428.63   -49094.883    3683.5574    -52778.44   0.29344061 
   47200    271.86977   -1024.4733    142816.25   -49062.441    3733.4766   -52795.918   0.26103599 
   47400    272.22855   -1164.3965    143148.05   -48991.574    3738.4036   -52729.978   0.26553119 
   47600    274.68816   -1044.2942    142920.32   -48969.796    3772.1804   -52741.976   0.26339563 
   47800    276.95989   -820.47163    142481.19     -48946.7    3803.3771   -52750.077   0.27208325 
   48000     277.2374   -874.20913    142578.15   -48950.017    3807.1881   -52757.205   0.27812256 
   48200    274.33636    -1147.681    143081.79   -48941.837    3767.3493   -52709.186   0.26284603 
   48400    275.07935   -1147.0039    143164.36   -48920.503    3777.5524   -52698.056   0.25018194 
   48600    273.52057   -943.03776    142674.83   -48988.326    3756.1463   -52744.472   0.28519182 
   48800    269.10342   -792.49517    142377.27     -48937.3    3695.4874   -52632.788   0.30183688 
   49000    275.70421   -1001.6226    142800.78   -48912.439    3786.1335   -52698.572   0.26238843 
   49200    277.47537   -1233.3962    143302.78   -48936.274     3810.456    -52746.73   0.25292622 
   49400    273.33533   -1111.9488       143068   -48948.615    3753.6025   -52702.218   0.25793633 
   49600    275.84362   -774.93378    142444.57   -48974.161    3788.0479   -52762.209   0.27371311 
   49800    279.69148   -791.03186    142410.42    -48957.63     3840.889   -52798.519   0.30106513 
   50000    276.16189   -1129.4169    143069.83   -48949.052    3792.4185   -52741.471   0.26153451 
   50200    275.74883   -1268.0265    143387.84   -48978.117    3786.7462   -52764.863   0.23442273 
   50400     279.2131   -953.60485    142830.26   -48990.952    3834.3195   -52825.272   0.27000115 
   50600    273.62949   -629.16839    142217.02   -49018.245    3757.6422   -52775.887   0.29092614 
   50800    272.78027   -892.90591    142567.88   -49027.456    3745.9801   -52773.436   0.27258743 
   51000    272.22922   -1280.8657    143344.14   -48954.067    3738.4127    -52692.48    0.2536424 
   51200    274.11247   -1244.7158    143296.11    -48982.76    3764.2746   -52747.034   0.24736449 
   51400    274.79306   -838.49335    142469.76   -48960.176     3773.621   -52733.797   0.27537585 
   51600    280.59741   -695.06342    142227.17   -48965.984    3853.3297   -52819.314   0.30169976 
   51800    273.24263   -1086.1167    142933.61   -48953.718    3752.3295   -52706.047   0.27294088 
   52000    275.87811   -1312.9814     143434.2   -48907.323    3788.5215   -52695.845   0.23928302 
   52200    276.84002    -1064.771    143002.11   -48887.651    3801.7311   -52689.382   0.27360757 
   52400    284.17367   -782.00319    142369.46   -48878.816     3902.441   -52781.257   0.29485442 
   52600    279.78336   -824.30415    142489.28    -48914.94    3842.1507   -52757.091    0.2817244 
   52800     278.5462   -1156.5954    143101.08   -48922.378    3825.1612    -52747.54   0.26944413 
   53000    276.63785   -1176.4924    143218.35   -48923.748    3798.9547   -52722.703   0.25636933 
   53200    276.34882   -920.54155    142693.93   -48939.173    3794.9856   -52734.159   0.26676446 
   53400    275.16785   -780.96814    142342.68   -48971.233    3778.7678   -52750.001   0.29938197 
   53600    273.42108   -924.34512    142638.63   -48992.621    3754.7801   -52747.401   0.28886865 
   53800    272.03334   -1164.6082    143040.12   -48963.914    3735.7228   -52699.636   0.26160529 
   54000    275.97406   -1107.8565    142924.15   -48954.959    3789.8391   -52744.798   0.27218347 
   54200    276.85448    -950.7486    142563.43   -48968.223    3801.9295   -52770.153   0.29027048 
   54400    280.38533   -858.11296    142501.97   -48994.213    3850.4173    -52844.63   0.28016489 
   54600     276.4249   -971.54038    142764.02   -48984.277    3796.0303   -52780.308   0.27629696 
   54800    281.30771   -1064.4108    142955.11   -48929.154     3863.084   -52792.238   0.27267196 
   55000    274.97691   -1045.4626    142812.44   -48932.365    3776.1457   -52708.511   0.27612886 
   55200    274.38454   -914.37464    142556.66    -48963.84    3768.0109   -52731.851   0.29541867 
   55400    274.83989   -888.60792    142585.54   -48985.818    3774.2641   -52760.082   0.29127699 
   55600    269.70397    -1079.246    142822.98   -49016.402    3703.7345   -52720.136   0.27639886 
   55800    275.64841   -1049.2507    142904.68   -48989.191    3785.3671   -52774.558   0.27827366 
   56000    272.19693   -1009.9115    142757.15   -48976.791    3737.9694   -52714.761   0.28150937 
   56200    272.29223   -931.73971    142627.23   -49011.555     3739.278   -52750.833   0.27666239 
   56400    276.30136   -974.45009    142709.26   -49013.152    3794.3338   -52807.486   0.28258105 
   56600    274.41555   -1048.3886    142838.29   -49015.415    3768.4368   -52783.852   0.27775792 
   56800    275.92849   -1025.7182    142811.27   -48968.496    3789.2134    -52757.71   0.27166747 
   57000    274.19367   -931.44209    142714.78   -48976.557    3765.3897   -52741.947    0.2722019 
   57200     272.5134   -976.71506    142700.25   -49005.419    3742.3153   -52747.735   0.28561858 
   57400    274.60954   -1006.6892    142758.39   -49022.911    3771.1007   -52794.012   0.26889089 
   57600    273.75151   -1010.0639    142817.31   -49011.635    3759.3177   -52770.953   0.26985032 
   57800    273.52032   -1053.3959    142800.08   -49025.061    3756.1429   -52781.204    0.2804337 
   58000    272.18597   -979.24021    142708.06   -49037.984    3737.8189   -52775.803   0.26500734 
   58200    270.78443   -1011.9939    142683.35   -49076.488    3718.5721    -52795.06   0.28419329 
   58400    273.88563   -964.04576    142738.49   -49068.842    3761.1596   -52830.002   0.27248788 
   58600     272.2939    -1022.448    142803.85   -49047.235     3739.301   -52786.536   0.26359646 
   58800     268.5809   -1035.1309    142773.84   -49077.625    3688.3119   -52765.937   0.28172602 
   59000    271.76072   -981.94073    142671.68    -49103.16     3731.979   -52835.139   0.27880409 
   59200    272.03657   -928.08134    142629.95     -49103.4    3735.7672   -52839.167   0.27569877 
   59400    273.76915   -982.09546    142716.05   -49047.847      3759.56   -52807.407   0.27567602 
   59600     269.2012   -1061.2305    142891.74   -49041.219    3696.8302   -52738.049   0.27616566 
   59800    273.55438   -1061.0329    142909.11   -49027.735    3756.6107   -52784.346   0.26265595 
   60000    276.67773   -978.71164    142676.54   -49019.046    3799.5024   -52818.548   0.27374643 
   60200    275.31583   -891.11746    142528.53   -48995.932    3780.7999   -52776.732   0.29615416 
   60400    275.43677   -991.47571    142784.27    -48963.21    3782.4608   -52745.671   0.26625078 
   60600    274.49111   -1173.7358    143133.14   -48995.817    3769.4744   -52765.291   0.26156059 
   60800    274.29582   -1064.6414    142987.09   -48940.073    3766.7925   -52706.865   0.26432299 
   61000    274.03416   -865.73049    142528.31   -48984.712    3763.1993   -52747.911   0.27708417 
   61200    274.51532   -843.62648    142485.45    -48989.86    3769.8069   -52759.667   0.29319467 
   61400     274.7643   -1103.2828    142974.13   -48982.267    3773.2259   -52755.493   0.26840935 
   61600    272.37763   -1198.6772    143210.19   -48968.667    3740.4509   -52709.118   0.25763193 
   61800    275.33891   -1009.8478    142804.34   -48975.202    3781.1169   -52756.319   0.27276513 
   62000    272.85454    -815.3135    142347.73   -49005.179         3747   -52752.179   0.29731802 
   62200    274.20418   -902.75906    142543.98   -49013.257    3765.5341   -52778.791   0.28294045 
   62400    273.36229   -1214.9823    143097.72   -48966.442    3753.9728   -52720.415   0.27228924 
   62600    270.94155   -1192.9929    143100.78   -48983.849    3720.7297   -52704.579   0.27512158 
   62800    274.45337   -891.25653    142551.77   -48970.749    3768.9561   -52739.705   0.27247532 
   63000    280.36634   -756.14107    142346.61   -48943.629    3850.1565   -52793.785   0.29429693 
   63200    271.87466   -1054.2771    142863.35   -48941.917    3733.5437   -52675.461   0.28085876 
   63400    280.72056   -1265.2104     143302.1   -48893.925    3855.0209   -52748.945   0.24829558 
   63600    275.91214   -1077.0984    142985.78   -48879.409    3788.9889   -52668.398   0.27163713 
   63800    278.65807   -776.92573     142453.8   -48915.011    3826.6976   -52741.709   0.29151184 
   64000    278.01354   -837.54807    142541.99   -48908.037    3817.8465   -52725.884   0.27544732 
   64200    277.75748   -1122.0325    143081.53   -48901.345    3814.3302   -52715.675   0.26794282 
   64400     280.3473    -1188.838    143205.76   -48887.464     3849.895   -52737.359   0.26298673 
   64600    270.64864   -967.16473    142746.09   -48945.916    3716.7073   -52662.624   0.27115814 
   64800    278.66409   -769.71815    142441.89    -48961.66    3826.7803    -52788.44   0.29218922 
   65000    273.35447   -985.13727    142804.96    -48948.16    3753.8654   -52702.025   0.28494288 
   65200    274.30449   -1206.6476    143207.58   -48967.298    3766.9116   -52734.209   0.25234073 
   65400    272.66768   -1056.9614     142982.7   -48995.304     3744.434   -52739.738   0.26175928 
   65600    274.25585    -829.6288    142496.55   -49025.879    3766.2436   -52792.122   0.28676616 
   65800    277.83739   -820.55918    142478.13   -49003.532    3815.4275   -52818.959   0.28270933 
   66000    269.77282   -1106.5142    142969.93   -48995.601      3704.68   -52700.281   0.26424704 
   66200    272.87151   -1218.7663    143213.02   -49015.975     3747.233   -52763.208   0.26252942 
   66400    272.55888   -1025.0049    142825.56   -49016.591    3742.9399    -52759.53   0.27202845 
   66600    276.77742   -809.29473    142398.91   -49034.819    3800.8713    -52835.69   0.28468012 
   66800     274.0112    -866.5681     142560.2    -49016.07     3762.884   -52778.954   0.28610133 
   67000     275.1883   -1143.0382    143021.25   -49036.678    3779.0486   -52815.727   0.25964591 
   67200    274.35656   -1158.2396     143057.1   -49055.694    3767.6267    -52823.32    0.2608577 
   67400     272.6588   -937.60973    142645.31   -49093.118     3744.312    -52837.43   0.27790934 
   67600    274.14665     -810.696     142433.6   -49054.683     3764.744   -52819.427   0.28641893 
   67800    276.32586   -942.48141    142717.71   -49002.529    3794.6703   -52797.199   0.28460209 
   68000     275.1015   -1151.3207    143002.22   -48992.699    3777.8566   -52770.556   0.26381355 
   68200    270.72093    -1077.131    142865.57   -49061.759       3717.7   -52779.459   0.27044213 
   68400    273.74141   -862.92721     142545.6   -49012.363    3759.1791   -52771.542    0.2828769 
   68600    273.45328    -922.2373    142552.45   -48998.804    3755.2223   -52754.026   0.29089094 
   68800    275.83728   -1018.5003    142877.06   -48963.577    3787.9608   -52751.538   0.27026845 
   69000    273.85852   -1125.2796    143038.18   -49002.553    3760.7873   -52763.341    0.2691236 
   69200    268.07145   -1029.7351     142784.8   -49010.588    3681.3158   -52691.904   0.29034151 
   69400    274.67848   -865.76502    142520.37   -49051.197    3772.0474   -52823.245   0.27383576 
   69600    274.37162   -934.37506    142646.89   -49063.241    3767.8335   -52831.074   0.28429758 
   69800    272.27112   -1061.5993    142923.05   -49026.898    3738.9882   -52765.886   0.27247572 
   70000    278.65792   -1071.3946    142922.48   -48989.912    3826.6955   -52816.608   0.25567009 
   70200    274.21475   -958.24505    142691.46   -48975.697    3765.6792   -52741.376   0.29054525 
   70400     275.1429   -933.07949    142634.78   -48991.259    3778.4251   -52769.684   0.28227695 
   70600    278.78963   -1011.8676    142828.16    -48962.28    3828.5042   -52790.784   0.26613753 
   70800     274.7812   -1110.9452     142977.2   -48982.808     3773.458   -52756.266   0.26675411 
   71000    272.67755    -1006.646    142861.69   -49026.991    3744.5696   -52771.561   0.26283487 
   71200    272.10696   -924.62809    142640.62   -49038.003    3736.7338   -52774.736   0.28031822 
   71400    275.54871   -924.74546    142665.47   -49007.342    3783.9979   -52791.339   0.27894196 
   71600    272.31086   -1090.8886    142876.12   -48983.761    3739.5339   -52723.294   0.27996594 
   71800    272.69442   -1086.2143    142900.61   -49002.057    3744.8012   -52746.858   0.26954234 
   72000    275.18668   -947.55716    142698.59   -49028.483    3779.0264    -52807.51   0.27186277 
   72200     269.3852   -927.66024    142620.58   -49062.255     3699.357   -52761.612   0.28426328 
   72400    271.87362   -1025.0272    142808.17   -49043.557    3733.5295   -52777.086   0.27482648 
   72600     277.1551   -1063.9475    142985.66   -49010.161    3806.0579   -52816.219   0.26610916 
   72800    270.30561   -1058.1307    142855.75    -49083.82    3711.9967   -52795.817   0.26687529 
   73000    273.81835   -920.33998    142577.51    -49086.25    3760.2357   -52846.486   0.28785615 
   73200    266.78619    -883.9767    142574.49   -49098.693    3663.6659   -52762.359   0.29105421 
   73400    272.71347   -1059.1519    142872.28   -49090.936    3745.0628   -52835.999   0.26238686 
   73600    273.42822    -1165.633    143027.62   -49072.084    3754.8781   -52826.962   0.27398359 
   73800    276.80096   -993.80275    142747.68   -49070.977    3801.1946   -52872.171   0.26910365 
   74000    267.07546   -847.52632    142460.57   -49119.232    3667.6383    -52786.87   0.28262735 
   74200    276.38051   -912.90519    142644.54   -49114.622    3795.4208   -52910.043   0.27423768 
   74400    271.72593   -1138.4871    143072.95   -49072.444    3731.5013   -52803.946   0.25815817 
   74600    272.35669   -1171.5249    143088.73   -49092.746    3740.1633    -52832.91   0.26862691 
   74800    269.93398   -904.25704    142515.46   -49109.415    3706.8931   -52816.308   0.28318087 
   75000    271.58579   -759.34887    142203.74   -49079.284    3729.5768   -52808.861   0.30861858 
   75200    272.39809   -1035.7779    142787.39   -49060.023    3740.7318   -52800.754   0.27533033 
   75400    275.15211   -1331.5989    143461.78   -49035.274    3778.5516   -52813.825   0.23719691 
   75600    275.08883   -1168.6818    143066.55   -49021.818    3777.6826     -52799.5   0.27192844 
   75800     269.4991   -654.19998    142087.42   -49013.628    3700.9211    -52714.55   0.30443336 
   76000     274.7101   -668.00814    142121.78   -49001.556    3772.4817   -52774.037   0.30846265 
   76200    276.28017   -1238.3328    143212.46   -49012.033    3794.0428   -52806.075   0.25474554 
   76400    270.63354   -1420.7727     143606.1   -48973.273       3716.5   -52689.773   0.24058948 
   76600    276.47218   -961.49351    142700.28   -48976.707    3796.6796   -52773.386   0.28696541 
   76800    276.89602   -561.01521    142004.58   -48984.875       3802.5   -52787.375   0.30467055 
   77000    272.92367    -891.1614    142589.69   -48981.741    3747.9494    -52729.69   0.29702753 
   77200    274.88376   -1331.9212    143396.76   -49011.945    3774.8666   -52786.811   0.24839614 
   77400     272.6368   -1180.7857    143156.12   -49005.066    3744.0099   -52749.076   0.25901841 
   77600    270.53361   -780.81497    142386.19   -49031.403    3715.1277   -52746.531   0.29815728 
   77800    271.44779   -795.68613    142311.92   -49045.257    3727.6817   -52772.939   0.28835246 
   78000     269.0446   -1087.9462    142929.12   -49037.958    3694.6796   -52732.637   0.28774222 
   78200    272.87675   -1207.4218     143232.1   -49026.621     3747.305   -52773.926   0.25895089 
   78400    275.33421   -1018.4713    142817.65    -49051.92    3781.0523   -52832.972   0.27749966 
   78600    270.99566   -837.62274    142400.01   -49075.627    3721.4727     -52797.1   0.30045981 
   78800    270.98428   -921.32133    142581.32   -49059.907    3721.3165   -52781.224   0.27578579 
   79000    269.43761   -1193.7642    143009.97   -49036.547    3700.0767   -52736.624   0.28849825 
   79200    270.39898   -1144.2622    142996.07   -49045.268    3713.2788   -52758.547   0.26747686 
   79400     271.9489   -903.14174    142592.66   -49006.722    3734.5632   -52741.286   0.28113035 
   79600    274.52746    -830.8108    142478.28   -48999.836    3769.9735   -52769.809   0.28971359 
   79800    272.21286   -1020.1607    142861.13   -49019.641    3738.1882   -52757.829    0.2749888 
   80000    273.35282   -1173.4654    143140.37   -48989.643    3753.8427   -52743.486   0.26435907 
   80200     276.6953   -1029.9899    142891.89   -48959.655    3799.7437   -52759.398   0.26561103 
   80400    271.52961   -846.37999    142543.53   -48936.288    3728.8053   -52665.093   0.30672863 
   80600    276.84345   -866.86261    142638.17   -48955.288    3801.7782   -52757.066   0.27484155 
   80800    278.08572   -1081.5213    143005.54    -48896.35    3818.8377   -52715.187   0.26241755 
   81000    272.98052   -1128.0175    143051.07   -48943.762    3748.7301   -52692.492   0.28538877 
   81200    277.16854   -930.98224    142714.76   -48930.571    3806.2425   -52736.813   0.26963863 
   81400    279.39108   -853.25213    142586.22   -48911.266    3836.7637    -52748.03    0.2858192 
   81600    276.14047   -1051.0435     142863.3    -48927.31    3792.1243   -52719.434   0.27879116 
   81800    278.61769   -1106.4313    143072.07   -48928.114     3826.143   -52754.257   0.25644553 
   82000     279.9388    -1044.645     142899.1    -48898.85    3844.2853   -52743.135   0.27747676 
   82200     275.3088   -922.33336    142610.13   -48945.079    3780.7034   -52725.782   0.28702311 
   82400     278.7452   -865.12682    142640.07    -48946.95    3827.8941   -52774.844    0.2888067 
   82600    272.59529   -1098.0361    142928.58   -48983.942    3743.4399   -52727.382   0.26205699 
   82800    274.30409   -1113.9586    143005.07   -49019.957    3766.9061   -52786.864   0.26594538 
   83000    276.01803   -957.56848    142747.11   -49008.695     3790.443   -52799.137   0.27805142 
   83200    272.05389   -897.38823    142586.05   -49031.501     3736.005   -52767.506   0.27293544 
   83400    269.79713   -961.10089    142765.08   -49047.915    3705.0139   -52752.929   0.29382505 
   83600     272.4877    -1127.223     142967.7    -49058.98    3741.9624   -52800.943   0.25895621 
   83800    271.12612   -1018.3029    142825.65   -49013.706    3723.2643   -52736.971   0.27704351 
   84000    275.07363   -894.79635    142583.93    -49046.66    3777.4739   -52824.134   0.28956121 
   84200    276.87616   -930.02812    142625.03   -49034.922    3802.2273   -52837.149   0.26433322 
   84400    271.38383   -1073.5877    142915.51   -49034.214    3726.8033   -52761.017   0.28044415 
   84600    272.26402   -1151.2349    143024.26   -49029.555    3738.8907   -52768.446    0.2679859 
   84800    275.04221   -973.08814    142730.29   -49042.441    3777.0424   -52819.484   0.27144991 
   85000    271.13409    -837.9464    142470.47   -49012.828    3723.3738   -52736.202   0.29121127 
   85200    275.33543   -940.90671    142735.06   -48982.017    3781.0691   -52763.086   0.27115847 
   85400    274.20603   -1212.9598    143217.68   -48960.758    3765.5595   -52726.318   0.25535792 
   85600    271.75524   -1169.1497    143122.25     -48958.3    3731.9038   -52690.204   0.25638504 
   85800     277.4648   -789.81785    142456.51   -48981.912    3810.3108   -52792.223   0.28836537 
   86000    276.69752   -715.63339    142286.57   -48941.969    3799.7741   -52741.743   0.29551369 
   86200    280.02559   -1059.7849     142987.4   -48943.288    3845.4772   -52788.765   0.25141877 
   86400    280.41591   -1328.9286    143489.25   -48927.439    3850.8372   -52778.276   0.25727632 
   86600    272.90458   -1098.4808    142974.48   -48934.088    3747.6872   -52681.775   0.25007472 
   86800    283.02881   -668.33697    142212.68   -48973.855    3886.7192   -52860.574   0.29316378 
   87000    273.35375   -807.93504    142428.27   -48993.011    3753.8555   -52746.866   0.29793501 
   87200    272.77225   -1199.1557    143274.61   -48952.049      3745.87   -52697.919   0.24190601 
   87400    275.84685   -1323.2022    143409.66   -48913.665    3788.0922   -52701.757    0.2618896 
   87600    273.10183   -916.22743    142646.45   -48987.725    3750.3959   -52738.121   0.27831326 
   87800     274.5429   -636.50067    142196.16   -49000.012    3770.1857   -52770.197   0.30486828 
   88000     273.7956   -972.13856    142711.64   -48948.926    3759.9233   -52708.849   0.27860622 
   88200    275.13614    -1297.146    143363.58   -48949.662    3778.3323   -52727.995   0.24924109 
   88400    280.03328   -1170.8965    143126.56   -48939.267    3845.5827    -52784.85   0.26826726 
   88600    275.24068   -799.61863    142427.52   -48962.865    3779.7679   -52742.633     0.282212 
   88800    277.23382   -760.39352     142381.9   -48955.917     3807.139   -52763.056   0.29855651 
   89000    277.73204     -1097.37    143000.77    -48968.65    3813.9807   -52782.631   0.26153798 
   89200    279.97812   -1243.6281    143302.51   -48937.417    3844.8253   -52782.242   0.25035014 
   89400     275.5938   -1001.9512    142852.43   -48917.755    3784.6173   -52702.373   0.27960395 
   89600    275.91803   -756.97978     142393.9   -48944.852    3789.0697   -52733.922   0.28052494 
   89800    278.26294    -879.3496    142611.58   -48975.475    3821.2715   -52796.746   0.29037763 
   90000    275.27975   -1190.4038    143079.85   -48983.537    3780.3045   -52763.842   0.26091046 
   90200    270.48178    -1132.684    143057.83   -49025.269    3714.4158   -52739.685   0.26594976 
   90400     272.5911   -934.49982    142618.92   -49050.633    3743.3824   -52794.015   0.29053236 
   90600    277.07384   -812.37803    142454.17     -49046.6    3804.9419   -52851.542   0.27032166 
   90800    270.70058   -973.61399    142781.12   -49064.254    3717.4207   -52781.675   0.28144013 
   91000    273.19447   -1174.4184    143034.11    -49061.62    3751.6682   -52813.289   0.26432555 
   91200    273.11477   -1004.7611     142814.6   -49076.832    3750.5737   -52827.405   0.27241363 
   91400    273.91868   -850.07148     142482.5   -49073.153    3761.6135   -52834.766   0.28687911 
   91600    271.33185   -910.77129     142574.5   -49077.375    3726.0895   -52803.465   0.27185584 
   91800    275.52848    -1092.963    142924.68   -49048.993    3783.7202   -52832.713    0.2683921 
   92000    271.94707   -1130.4868    142986.64   -49061.707    3734.5381   -52796.245   0.26029011 
   92200    273.23571   -955.54372    142685.57   -49088.055    3752.2345   -52840.289   0.28016247 
   92400    272.37006   -864.70942    142512.78   -49071.682    3740.3468   -52812.028   0.27749409 
   92600    273.46061   -990.23507    142722.04   -49122.303    3755.3229   -52877.626   0.26683004 
   92800    272.77316   -1058.1434    142972.64   -49088.362    3745.8825   -52834.244   0.26863768 
   93000    271.46269   -1061.4767    142910.87   -49021.169    3727.8863   -52749.056   0.26363345 
   93200    268.45664   -951.96772     142659.9   -49024.144    3686.6055    -52710.75   0.28739798 
   93400    273.16393   -902.95745    142631.55   -49027.314    3751.2488   -52778.563   0.28220721 
   93600    272.54178   -1050.5904    142894.47   -49008.842     3742.705   -52751.547   0.26434654 
   93800    277.00549   -1118.2862    143050.58   -48997.833    3804.0033   -52801.837   0.26506015 
   94000    273.30699   -1013.5479    142822.51   -49000.693    3753.2133   -52753.907   0.27494593 
   94200    267.43101   -883.55069    142532.11    -49082.13     3672.521   -52754.651   0.28067378 
   94400    269.38703    -962.8835    142618.01   -49067.681    3699.3821   -52767.063   0.28553175 
   94600     265.3592   -1106.4077    142922.64   -49059.864    3644.0696   -52703.933   0.27914287 
   94800    272.12023     -1106.23    142957.07   -49108.292     3736.916   -52845.208   0.25797398 
   95000    273.12412   -940.09559    142634.35   -49118.632    3750.7021   -52869.334   0.27800433 
   95200    269.56599   -849.77443    142425.56   -49127.195    3701.8397   -52829.035   0.30078933 
   95400    272.47379   -960.63027    142687.49   -49135.669    3741.7714    -52877.44   0.25673059 
   95600    270.76947   -1165.3822    143043.37   -49093.463    3718.3666    -52811.83   0.26518693 
   95800    272.80881   -1062.0189    142905.41   -49061.255     3746.372   -52807.627   0.27661531 
   96000     271.8498       -827.2    142475.71   -49059.887    3733.2024   -52793.089   0.26890413 
   96200    269.38792   -836.19876    142446.72   -49100.644    3699.3943   -52800.038   0.29063405 
   96400    270.48817   -1098.9407    142925.49   -49086.746    3714.5037    -52801.25   0.27270689 
   96600     267.2819   -1245.0489    143183.93   -49092.445    3670.4733   -52762.918   0.26112924 
   96800     273.2951   -997.90367    142701.53   -49149.804    3753.0501   -52902.854   0.27810532 
   97000    270.39672   -622.68324    142071.25   -49142.319    3713.2478   -52855.567   0.31176959 
   97200    269.35295   -821.45972    142419.56   -49127.782    3698.9142   -52826.696    0.2828636 
   97400    269.82985   -1364.1615    143430.95   -49068.283    3705.4632   -52773.747   0.24281266 
   97600    271.07168   -1340.1795    143418.08   -49040.366    3722.5168   -52762.882    0.2628252 
   97800    271.95242   -782.32308    142282.81   -49051.856    3734.6116   -52786.468   0.28877238 
   98000    274.97104   -497.26033    141845.29    -49030.63     3776.065   -52806.695   0.30865353 
   98200    274.98643    -1042.742    142840.54   -49030.397    3776.2764   -52806.673   0.28505152 
   98400    276.70544   -1420.5082    143655.25   -48947.935    3799.8829   -52747.818   0.22871685 
   98600    267.74138   -1179.5417    143037.67   -49001.158     3676.783   -52677.941   0.27406343 
   98800    275.63055   -603.50194     142063.6    -48978.91    3785.1219   -52764.032   0.31553655 
   99000    271.05613   -748.55957    142261.68   -48981.738    3722.3032   -52704.042   0.29101505 
   99200    275.09379   -1186.9342    143159.35    -49029.12    3777.7507   -52806.871   0.25227209 
   99400    275.85718   -1325.4562    143319.08   -49112.579    3788.2341   -52900.813   0.25629681 
   99600    268.69226   -889.03936    142567.16   -49146.223    3689.8412   -52836.064   0.27690889 
   99800    270.01209   -693.09564    142171.45     -49126.2    3707.9659   -52834.166    0.2969144 
  100000    268.59165   -988.12788    142683.31   -49121.699    3688.4595   -52810.158   0.29101527 
  100200    268.44422   -1251.4404    143230.46   -49072.978    3686.4349   -52759.413   0.25077267 
  100400    269.11402   -1137.4698    142971.83   -49074.147     3695.633    -52769.78   0.26540802 
  100600    273.09301   -831.66872    142393.03   -49035.223    3750.2748   -52785.498   0.30975396 
  100800    273.68681   -810.02378    142430.33   -49063.712    3758.4293   -52822.141   0.26819055 
  101000    273.60299   -1070.6117    142960.72   -49039.952    3757.2782   -52797.231   0.25541332 
  101200    273.22758    -1196.465    143118.21   -49016.612    3752.1229   -52768.735   0.27617669 
  101400    275.34014   -945.53053    142711.14   -49028.338    3781.1338   -52809.472   0.26483741 
  101600    276.53692   -800.44395    142421.51   -49048.635    3797.5686   -52846.204   0.28791444 
  101800    278.90505   -933.65909    142683.57   -49014.553    3830.0893   -52844.642   0.28081233 
  102000    271.89862    -1158.748    143038.16   -49008.831    3733.8728   -52742.703   0.25782848 
  102200    278.57735    -1079.219    142929.08    -49003.08     3825.589   -52828.669   0.26635802 
  102400     278.5283   -892.90052    142570.99   -48953.946    3824.9155   -52778.861   0.29857122 
  102600    273.32004    -852.9245       142531   -48965.996    3753.3926   -52719.389    0.2873558 
  102800    273.14001   -1051.0911     142873.3   -48971.367    3750.9202   -52722.287   0.26647135 
  103000    275.87459   -1142.8656     143043.5   -48962.011    3788.4731   -52750.484   0.27328425 
  103200    273.18642   -997.02693    142796.64   -48946.847    3751.5577   -52698.404   0.28183016 
  103400    274.83202   -870.91248    142548.39   -48978.224    3774.1559    -52752.38     0.285219 
  103600    273.99371   -934.88735    142707.93   -48980.055    3762.6438   -52742.699   0.29677066 
  103800    277.82125   -1123.5107    143021.26   -48980.158    3815.2058   -52795.363   0.25594588 
  104000    273.84482   -1120.8415    143017.83   -48988.485    3760.5991   -52749.084   0.26707907 
  104200    272.26593   -940.64143    142724.82   -49006.149     3738.917   -52745.066   0.29015644 
  104400    272.85668    -848.5197    142624.34   -49023.715    3747.0295   -52770.745   0.26926966 
  104600    270.50701   -1002.4808    142872.66   -49016.983    3714.7624   -52731.745   0.26634926 
  104800    275.45471   -1096.3112    143053.67   -49005.561    3782.7072   -52788.269   0.26116409 
  105000    271.60352   -1020.3958    142867.42   -49035.493    3729.8203   -52765.313   0.26962193 
  105200    273.89809   -873.61575    142620.13   -49041.327    3761.3308   -52802.658   0.27553208 
  105400    274.09817   -942.17379    142695.73   -49033.835    3764.0784   -52797.914    0.2848454 
  105600    276.11345   -1035.3868    142935.35   -49028.459    3791.7533   -52820.212   0.26752354 
  105800    269.86296   -1104.6544    142951.29   -49042.407    3705.9179   -52748.325   0.25679959 
  106000    273.62024   -984.81041     142707.9    -49028.68    3757.5151   -52786.195   0.28880032 
  106200    274.71845   -930.30918    142589.89   -49008.179    3772.5964   -52780.775   0.28393216 
  106400    271.55395   -1003.8033    142760.42    -49016.97    3729.1395    -52746.11   0.26814202 
  106600     271.9243   -1113.7255    142950.34    -49014.84    3734.2255   -52749.066   0.28292826 
  106800    274.83196   -1058.6533    142834.32   -49010.336    3774.1551   -52784.491   0.27455155 
  107000    278.26613   -882.82209     142580.7   -48972.394    3821.3151   -52793.709   0.27268288 
  107200    274.69396   -919.14911    142646.35   -48960.724    3772.2601   -52732.984   0.28871839 
  107400    271.86757   -1153.6088    142996.76   -48962.285    3733.4464   -52695.732   0.27063128 
  107600    279.73487   -1132.7824    143075.03   -48939.412    3841.4848   -52780.897   0.24883916 
  107800    270.98747    -949.9256    142706.32   -48964.449    3721.3604   -52685.809   0.28244629 
  108000    277.67488   -787.87574    142422.53   -48946.379    3813.1957   -52759.575   0.29286014 
  108200    273.84703   -970.65368     142721.7   -48975.317    3760.6295   -52735.947   0.26967593 
  108400    277.97742   -1225.7675    143238.27   -48963.721    3817.3504   -52781.072   0.25601197 
  108600    274.93375   -1169.1594    143134.63   -48936.413     3775.553   -52711.966   0.27000438 
  108800    274.35087   -820.14701    142467.36   -48967.433    3767.5485   -52734.982   0.28420282 
  109000    273.99991   -750.55393    142292.52    -49007.03    3762.7289   -52769.759   0.29335664 
  109200    275.23136   -1085.5937    142924.99   -49000.573      3779.64   -52780.213   0.27080068 
  109400    271.34126   -1316.2032    143372.82   -48976.852    3726.2188   -52703.071   0.24842366 
  109600    272.64227   -1070.0663    142904.24    -48947.83     3744.085   -52691.915   0.27611082 
  109800    276.89028   -713.79634    142248.72   -49006.008    3802.4212   -52808.429   0.30339853 
  110000    280.13834   -783.94538    142443.29    -48946.33    3847.0255   -52793.356   0.28018212 
  110200    273.68334   -1216.6743     143214.5   -48922.317    3758.3816   -52680.698   0.26133447 
  110400    274.05872   -1336.1804     143317.7   -48966.868    3763.5365   -52730.404   0.25383374 
  110600    269.39636   -935.58652    142543.48   -49047.071    3699.5103   -52746.582   0.28305688 
  110800    271.36536   -653.13479    142086.51   -49048.801    3726.5497   -52775.351   0.31482919 
  111000    272.59697   -962.60652    142651.85   -49044.429    3743.4629   -52787.892   0.27995339 
  111200    269.15226   -1326.8709    143308.51   -49020.951    3696.1582   -52717.109   0.26045624 
  111400    269.57082   -1132.8693    142999.16   -49074.924     3701.906    -52776.83   0.27316963 
  111600    274.08092   -729.03371    142269.93    -49136.19    3763.8414   -52900.032   0.28783032 
  111800    268.93214   -790.43094    142263.21   -49167.221    3693.1354   -52860.356   0.29304761 
  112000     268.2296   -1116.4872    142865.27   -49151.734    3683.4876   -52835.221   0.27721911 
  112200    273.24389   -1192.7602    143103.56   -49107.583    3752.3468    -52859.93   0.25988204 
  112400    272.25925   -1000.7171    142700.43   -49083.123    3738.8252   -52821.948   0.27287412 
  112600    274.60534    -795.0381     142331.8   -49065.686     3771.043   -52836.729   0.29579448 
  112800    269.89565   -898.96697    142569.03   -49077.419    3706.3668   -52783.786   0.28191483 
  113000    272.14396   -1149.0803    143001.39   -49050.792    3737.2419   -52788.034   0.26515844 
  113200    274.69097   -1112.6951    142959.79   -49084.674     3772.219   -52856.893   0.27412034 
  113400    270.08582   -882.12417    142537.91   -49072.001    3708.9784   -52780.979   0.28574497 
  113600    271.42505   -845.64527    142417.98   -49078.183    3727.3695   -52805.552   0.29040445 
  113800    272.71527   -1050.5255    142777.38   -49057.135    3745.0876   -52802.223    0.2800811 
  114000    273.00403   -1168.2442    143036.86   -49038.809    3749.0529   -52787.862   0.26813187 
  114200    275.16388   -1012.9633    142801.11   -49054.033    3778.7132   -52832.746   0.27157038 
  114400    278.55317   -837.36209    142496.76   -49003.905    3825.2569   -52829.162   0.29156553 
  114600    277.36248   -911.58031    142649.78   -48977.579    3808.9058   -52786.484   0.28340811 
  114800     276.6547    -1098.434    143058.35   -48958.185    3799.1861   -52757.371    0.2613862 
  115000    276.29486   -1140.3434    143100.61   -48985.392    3794.2446   -52779.636    0.2680188 
  115200    279.56057   -923.73164    142710.78   -49006.389    3839.0912   -52845.481   0.27108221 
  115400    277.26452   -803.30168     142502.3   -49021.339    3807.5606   -52828.899   0.27975009 
  115600      272.181   -1004.7264     142817.2   -49002.074    3737.7506   -52739.825   0.27631153 
  115800     272.7982   -1167.5732    143161.62   -49012.056    3746.2263   -52758.282   0.25143383 
  116000    274.44408   -1082.0493    142980.74   -49001.178    3768.8285   -52770.007   0.26990256 
  116200    279.33668   -843.90578    142564.09   -49024.916    3836.0167   -52860.932    0.2821248 
  116400    273.03081   -893.17644    142558.52   -49064.524    3749.4206   -52813.945    0.2774322 
  116600    271.63793   -1115.4446    142912.01     -49070.7    3730.2928   -52800.993    0.2703954 
  116800    275.27452    -1137.524    143042.74   -49025.893    3780.2326   -52806.125   0.26992637 
  117000    275.16109   -974.15381    142748.48   -49036.633     3778.675   -52815.308   0.27055646 
  117200    275.74906   -879.19842    142501.49   -49031.218    3786.7493   -52817.967   0.29371209 
  117400    276.06829    -922.6812    142638.54   -49052.834    3791.1331   -52843.967   0.27481069 
  117600    270.47242   -1105.6427    142930.11   -49028.978    3714.2873   -52743.265   0.27333822 
  117800    270.81112   -1118.7951    142963.59   -48990.246    3718.9386   -52709.184   0.26923852 
  118000    278.39148   -976.54793    142707.77   -48987.023    3823.0366   -52810.059   0.28920712 
  118200    270.37287   -895.79636    142566.88   -49020.793    3712.9202   -52733.713   0.28478348 
  118400    270.51121   -1004.2633    142762.24   -49065.413    3714.8201   -52780.233   0.25978786 
  118600    274.02003   -1048.3456    142946.01   -49088.683    3763.0053   -52851.689   0.27327221 
  118800    269.64995    -1061.668    142820.58    -49136.83    3702.9927   -52839.823   0.27511192 
  119000    270.14861    -916.7737    142570.13   -49140.118    3709.8406   -52849.958   0.27470581 
  119200    271.21061   -925.50101    142592.45   -49141.768    3724.4246   -52866.193   0.28671976 
  119400    271.27912   -1078.2004    142838.38   -49162.857    3725.3654   -52888.223   0.26173949 
  119600      268.631    -1073.686    142877.45   -49105.393    3688.9999   -52794.393   0.25998339 
  119800     274.9339   -981.37607    142681.57   -49105.726     3775.555   -52881.281   0.27976682 
  120000    269.02647   -957.01086    142570.52   -49123.762    3694.4307   -52818.193   0.28055059 
  120200    272.28614   -997.69868    142702.65   -49097.162    3739.1944   -52836.356   0.27273305 
  120400    269.74495   -1097.8026    142913.74   -49136.845    3704.2974   -52841.143    0.2672367 
  120600    269.19572   -1095.9691    142868.18   -49131.231    3696.7549   -52827.986   0.27480295 
  120800    270.03016    -984.7134    142596.36   -49127.224    3708.2139   -52835.438   0.27244346 
  121000    269.25486   -886.71249    142489.12   -49114.067    3697.5671   -52811.635   0.28284902 
  121200    269.69725   -1060.3855    142744.07   -49109.257    3703.6422   -52812.899   0.28248585 
  121400    273.71276   -1088.2217     142971.4   -49103.864    3758.7856    -52862.65   0.25171073 
  121600    276.91095   -1021.2461    142820.63   -49098.112    3802.7051   -52900.817   0.27338945 
  121800    270.54221   -878.93348    142543.56   -49098.445    3715.2458   -52813.691   0.28099681 
  122000     274.1796   -935.50225    142614.59   -49078.604    3765.1965     -52843.8   0.26838854 
  122200    268.17579   -1104.2508       142926     -49042.4    3682.7486   -52725.148   0.27464071 
  122400    281.27385   -1091.3906    143015.76   -48998.098     3862.619   -52860.717   0.26095432 
  122600    274.41109   -952.07663    142773.84   -48927.297    3768.3755   -52695.673   0.27787971 
  122800    275.98155   -877.33595    142601.35   -48930.684     3789.942   -52720.626   0.28519724 
  123000    276.82059   -1006.3824    142796.42   -48972.957    3801.4642   -52774.421   0.27633189 
  123200    272.08789   -1159.5539    143036.17   -48990.417     3736.472   -52726.889   0.26033851 
  123400    272.42846   -1087.2546     142888.8   -49069.506    3741.1488   -52810.654   0.26953379 
  123600    273.20437   -888.03527    142533.44   -49024.731    3751.8041   -52776.535   0.30276361 
  123800     276.3317   -859.51683    142543.82   -49046.145    3794.7504   -52840.895   0.26450645 
  124000     275.2818   -1128.6425    142967.14   -49025.064    3780.3327   -52805.396   0.26540277 
  124200      272.933   -1174.0491    143133.92   -49005.637    3748.0775   -52753.715    0.2626203 
  124400    272.39298   -994.95677    142767.76   -49024.796    3740.6617   -52765.458   0.25958087 
  124600    273.45402   -756.25353    142441.08   -49047.211    3755.2325   -52802.444   0.28541399 
  124800    276.01807   -928.00998    142687.68   -49049.475    3790.4435   -52839.918   0.27357996 
  125000    273.41436   -1181.6586    143099.87   -49051.132    3754.6879   -52805.819   0.25106342 
  125200    272.85444   -1147.6416    143008.36   -49043.192    3746.9986   -52790.191   0.26083107 
  125400    272.23904    -900.3109    142532.26   -49113.366    3738.5476   -52851.913   0.28575575 
  125600    268.18268   -852.22885    142400.19   -49109.726    3682.8433    -52792.57   0.28413935 
  125800    273.88918   -1048.0026     142821.2   -49094.976    3761.2083   -52856.184   0.26567002 
  126000    272.80599   -1169.3842     143122.5    -49058.08    3746.3333   -52804.413    0.2665085 
  126200     276.3047   -1048.5405    142841.58   -49044.115    3794.3797   -52838.495   0.26279784 
  126400    272.34673   -823.53775    142402.58   -49078.021    3740.0265   -52818.047   0.29285643 
  126600    272.78349   -858.86999    142495.36   -49101.489    3746.0243   -52847.513   0.28726308 
  126800    271.50058   -1114.2535    142998.17   -49067.447    3728.4067   -52795.854   0.25814174 
  127000    275.52673   -1163.6227    143145.37   -49080.456    3783.6962   -52864.152   0.25257985 
  127200    273.25602   -981.93358    142681.83   -49119.912    3752.5134   -52872.426    0.2777445 
  127400    272.00043   -761.74724     142322.9   -49123.324    3735.2709   -52858.595   0.28516441 
  127600    271.92633   -938.71635     142657.1   -49115.373    3734.2533   -52849.626   0.26725932 
  127800    266.80413   -1215.5775    143168.33   -49096.556    3663.9123   -52760.469   0.25878153 
  128000    266.34376   -1171.7264    143055.07   -49095.816    3657.5901   -52753.406   0.25823179 
  128200    270.98364   -871.56369    142488.91   -49071.499    3721.3078   -52792.806   0.28200597 
  128400    267.61229   -798.77901    142351.56   -49099.806    3675.0104   -52774.817   0.29619359 
  128600    268.11328   -1088.8868    142843.63   -49122.264    3681.8902   -52804.154   0.25679337 
  128800    268.74689   -1208.3571    143148.51   -49150.793    3690.5913   -52841.384   0.25149736 
  129000    268.67265   -1053.0714    142749.58   -49188.355    3689.5719   -52877.927   0.27724375 
  129200    266.92215   -755.94002    142268.95   -49154.851     3665.533   -52820.384   0.29115962 
  129400    270.98679   -868.14583    142499.83   -49152.686     3721.351   -52874.037   0.27365203 
  129600    271.51948    -1187.282    143085.91   -49143.685    3728.6662   -52872.351   0.25991352 
  129800    267.74837   -1163.3906    143087.54   -49153.316    3676.8791   -52830.195   0.24861276 
  130000    274.01706   -878.02962    142569.81   -49172.288    3762.9645   -52935.253    0.2690215 
  130200    262.86461   -817.58844    142402.24     -49192.3    3609.8125   -52802.113    0.2964268 
  130400    267.34724   -997.96413    142791.93   -49173.272    3671.3705   -52844.642   0.26203495 
  130600    273.67224   -1114.2576    143091.14   -49127.677    3758.2292   -52885.907   0.24138175 
  130800    270.53755    -1053.806    142845.74   -49151.854    3715.1817   -52867.036   0.27044696 
  131000    268.48559   -858.53353    142458.08   -49175.774    3687.0031   -52862.777   0.27606618 
  131200    271.78551   -887.35149    142524.24   -49151.004    3732.3195   -52883.324   0.27463737 
  131400    265.82803   -1090.0154    142891.28   -49147.066    3650.5078   -52797.574   0.27598922 
  131600    266.38029   -1124.7844    142987.59   -49138.658    3658.0919    -52796.75   0.25317204 
  131800    276.82648   -1005.2087    142739.38   -49116.913    3801.5451   -52918.458   0.26307227 
  132000    270.48803   -849.55914    142544.68   -49066.593    3714.5017   -52781.094   0.29049459 
  132200    276.15666   -962.29867    142728.25   -49072.309    3792.3467   -52864.656   0.26402769 
  132400    268.07589   -1110.7714    142964.05   -49070.733    3681.3768    -52752.11   0.25987094 
  132600     275.5952   -1087.4139    142860.04   -49049.219    3784.6364   -52833.855   0.27360647 
  132800    271.80054    -921.9364     142602.8   -49023.142    3732.5259   -52755.668   0.26862446 
  133000    271.54911   -946.37899     142605.5   -49017.692     3729.073   -52746.766   0.28664884 
  133200    271.77417   -1043.9853     142830.5   -48965.177    3732.1637   -52697.341   0.28392355 
  133400    271.59564    -1084.538     142927.4   -48949.235    3729.7121   -52678.947   0.27018232 
  133600    273.38113   -1027.2189    142753.12   -48962.385    3754.2315   -52716.616   0.27938714 
  133800     276.2678   -956.74877    142578.85   -48983.317    3793.8729    -52777.19   0.28979893 
  134000    276.07834   -948.67023    142672.05   -48934.697    3791.2712   -52725.968    0.2784894 
  134200    279.60662   -1040.6776    142910.02     -48944.9    3839.7236   -52784.624   0.26204101 
  134400    279.61411   -1048.5132    142948.19   -48941.979    3839.8265   -52781.805   0.27622724 
  134600    273.95712   -1005.2452    142779.58   -48960.187    3762.1413   -52722.328    0.2715937 
  134800      275.143   -921.92339    142686.03   -49002.008    3778.4266   -52780.435   0.27651303 
  135000    273.51323    -1021.823    142772.95   -49052.958    3756.0456   -52809.004   0.28605868 
  135200    271.24619   -1016.7162    142837.48   -49061.429    3724.9133   -52786.343    0.2594921 
  135400    269.53148   -1032.2757    142816.62   -49081.536    3701.3658   -52782.902   0.26607041 
  135600     271.6886   -957.13577     142734.7   -49048.656    3730.9887   -52779.645   0.28380049 
  135800    269.33685   -996.74436    142715.16    -49116.08     3698.693   -52814.773   0.27408366 
  136000    265.98593   -1016.4817    142704.96   -49146.607    3652.6763   -52799.284   0.27704061 
  136200    270.12088    -978.2478     142687.8   -49156.927    3709.4598   -52866.387   0.27654651 
  136400    271.29181   -983.82367    142700.05   -49112.567    3725.5397   -52838.106    0.2647991 
  136600    271.40257   -984.96697    142752.91   -49058.279    3727.0608   -52785.339   0.27421002 
  136800    270.53416   -1100.9917    142814.88   -49066.746    3715.1352   -52781.881   0.28472079 
  137000    270.13449   -1002.2132    142731.22   -49071.792    3709.6468   -52781.439   0.27087328 
  137200    271.09135   -942.76617    142611.45   -49103.335    3722.7869   -52826.122   0.27489893 
  137400    273.54082   -963.22131    142624.51   -49064.003    3756.4244   -52820.427   0.27974644 
  137600    271.04581   -1019.0402    142826.95   -49053.751    3722.1615   -52775.912   0.26511702 
  137800    268.67167   -1088.8636    142942.34    -49025.91    3689.5584   -52715.468   0.27480848 
  138000    271.88811    -1011.144    142751.04   -49026.617    3733.7284   -52760.346   0.28095841 
  138200    272.78159   -872.67961    142510.53    -49077.91    3745.9983   -52823.909   0.27139847 
  138400    272.53999   -924.95351    142642.33   -49063.336    3742.6805   -52806.017    0.2780234 
  138600    271.50947    -1158.414    143031.97   -49070.521    3728.5287    -52799.05   0.26945605 
  138800    272.00783    -1112.345    143015.81   -49022.301    3735.3725   -52757.673   0.25814222 
  139000    273.51292    -880.0684    142568.35   -49018.494    3756.0413   -52774.536   0.28530553 
  139200    276.43346   -811.46523    142427.77   -49022.381    3796.1479   -52818.529   0.29160634 
  139400    271.87005   -1077.2431    142862.65   -49041.039    3733.4805    -52774.52   0.26225022 
  139600    273.54355    -1190.444    143154.29   -49017.431     3756.462   -52773.893   0.25077491 
  139800    274.74335   -1005.2834    142794.42   -48985.376    3772.9383   -52758.314    0.2769367 
  140000    279.01927   -771.89846    142355.08   -48961.142    3831.6578   -52792.799   0.28434138 
  140200    274.13609   -936.18475    142605.63    -48998.05    3764.5991   -52762.649   0.27945356 
  140400    275.13324   -1216.5229    143168.04   -49013.583    3778.2926   -52791.876    0.2614083 
  140600    272.93001   -1210.8875     143153.1   -49012.737    3748.0364   -52760.773   0.25067885 
  140800    274.71392   -861.23528    142562.84   -49014.938    3772.5341   -52787.472   0.27695483 
  141000    272.96778   -730.63782    142316.54   -49053.709    3748.5551   -52802.264   0.28955594 
  141200     274.4709   -996.22173    142788.06   -49003.258    3769.1968   -52772.455   0.26208082 
  141400    273.08819   -1278.5015    143255.65   -48999.112    3750.2087    -52749.32   0.25928526 
  141600    270.63669    -1118.202    142967.51   -48987.232    3716.5432   -52703.775   0.27251683 
  141800    270.17565   -811.29643    142395.64   -49045.572     3710.212   -52755.784   0.28372268 
  142000    272.18295    -805.2785    142417.32   -49061.264    3737.7774   -52799.041   0.28173053 
  142200     272.9719   -1109.3515    142993.73   -49051.124    3748.6117   -52799.736    0.2645215 
  142400    272.70524   -1262.1308    143238.18   -49048.963    3744.9498   -52793.913   0.25788667 
  142600    274.78002   -980.13989    142778.54   -49048.169    3773.4419   -52821.611   0.27240399 
  142800    275.74923   -800.65935    142375.75   -49058.874    3786.7516   -52845.626   0.29052823 
  143000    267.91368   -918.62275    142657.43   -49113.496    3679.1492   -52792.645   0.26007641 
  143200    272.60187   -1199.9605    143103.48   -49076.568    3743.5302   -52820.098   0.26122343 
  143400    277.76855    -1103.051    142989.79   -49043.415    3814.4821   -52857.897    0.2622162 
  143600     273.9746   -851.88272    142522.25   -49040.277    3762.3814   -52802.658   0.26877728 
  143800    271.99134   -838.63459    142460.97   -49054.121    3735.1461   -52789.267   0.29560108 
  144000    273.58571   -1056.7123    142904.93   -49035.998     3757.041   -52793.039   0.26702999 
  144200    276.03832    -1197.347    143142.93   -49006.967    3790.7216   -52797.688   0.25697998 
  144400    272.99315   -1002.4713    142828.12   -49013.069    3748.9036   -52761.973   0.27692485 
  144600    273.64246   -841.34108     142508.4     -48994.6    3757.8202   -52752.421   0.28576519 
  144800    274.76869   -922.09456    142707.11   -48965.328    3773.2863   -52738.614   0.27167481 
  145000    273.91147   -1170.8217    143091.16   -49000.613    3761.5144   -52762.128   0.25785718 
  145200    269.98819   -1091.9324    143020.54   -49028.891    3707.6377   -52736.529   0.27115828 
  145400     274.8065   -928.66061    142639.16   -49040.263    3773.8055   -52814.069   0.27089955 
  145600     274.6284   -877.19539    142554.41   -49058.895    3771.3598   -52830.254   0.28296838 
  145800    272.14477   -1039.3414    142863.18   -49069.844     3737.253   -52807.097   0.27039163 
  146000    275.08363   -1075.7908    143041.84   -49055.494    3777.6113   -52833.105   0.24450821 
  146200    274.70795   -1044.5414     142880.2   -49087.839    3772.4521   -52860.291   0.27050825 
  146400    272.70138   -874.41939    142637.39   -49046.591    3744.8968   -52791.488   0.27610327 
  146600    275.96666   -919.07361    142714.76   -49012.611    3789.7375   -52802.349   0.26293885 
  146800    275.90699   -1078.1369    142977.39    -48967.81    3788.9181   -52756.728   0.27061991 
  147000    276.80978   -1088.1594    143037.13   -48978.411    3801.3158   -52779.726   0.25900615 
  147200    272.59949   -963.35928     142818.6   -48950.555    3743.4975   -52694.053   0.26829357 
  147400    278.34511   -896.71799    142672.74    -49016.28    3822.3999    -52838.68   0.27229394 
  147600    275.70489   -1019.0674    142815.92    -49026.85    3786.1428   -52812.993   0.27411807 
  147800    273.10059   -1095.5425    142963.05   -49062.989     3750.379   -52813.369   0.25866161 
  148000    270.50225   -1049.1583    142855.37   -49031.464     3714.697   -52746.161   0.27038092 
  148200    273.22654   -925.28626    142661.39   -49073.169    3752.1086   -52825.278   0.28252026 
  148400    274.20573   -926.05646    142672.29   -49119.989    3765.5554   -52885.544   0.25375354 
  148600    266.37385   -1028.9948    142852.11   -49088.243    3658.0034   -52746.247   0.27395809 
  148800    272.81555   -1078.8629    142891.46   -49090.644    3746.4646   -52837.109   0.26930955 
  149000    269.22654   -997.12874    142726.27   -49099.028    3697.1782   -52796.206   0.26576872 
  149200    269.04825   -919.62216    142616.68   -49106.612    3694.7298   -52801.342   0.28518208 
  149400     272.0845     -997.904    142684.82     -49126.8    3736.4254   -52863.225   0.26688375 
  149600    271.32109   -1028.4187    142803.11   -49124.367    3725.9418   -52850.308   0.25902355 
  149800    271.10144   -1002.0186     142815.5   -49110.816    3722.9255   -52833.741    0.2754342 
  150000    274.64128   -964.87277    142729.27   -49074.123    3771.5366    -52845.66   0.27166733 
  150200    276.50103   -924.81552    142725.72   -49023.602    3797.0759   -52820.678   0.26616512 
  150400    278.21649   -1046.4706     142871.3   -48995.063    3820.6335   -52815.696   0.26619567 
  150600    273.48622   -1054.6611    142939.45    -49040.75    3755.6746   -52796.425   0.26220015 
  150800    276.87868    -966.2153    142789.57   -49008.744     3802.262   -52811.006    0.2661334 
  151000    268.64553    -1029.231    142659.34   -49047.515    3689.1994   -52736.714   0.28976076 
  151200    272.84786   -932.61271    142684.17   -49034.702    3746.9083   -52781.611   0.27753112 
  151400    276.45481   -1019.4037     142821.9   -48951.386    3796.4411   -52747.827   0.25563281 
  151600    279.88632   -1105.4836     142914.6   -48936.206    3843.5647   -52779.771   0.27771056 
  151800     279.4397   -1026.9561    142793.56   -48948.646    3837.4313   -52786.077   0.27527442 
  152000    270.98981   -900.99237    142616.93   -48951.669    3721.3924   -52673.062   0.28104799 
  152200    279.17316   -967.76001    142699.11   -48970.025    3833.7711   -52803.796   0.28653472 
  152400    272.99706   -1085.9494    142952.41   -49010.945    3748.9572   -52759.902   0.25745885 
  152600    274.76851   -1091.8734     142958.6   -48980.903    3773.2838   -52754.187   0.26691892 
  152800    272.47165   -877.85981    142667.63   -48921.265    3741.7419   -52663.007   0.28595584 
  153000     274.6718   -851.26055     142568.5   -48988.624    3771.9558    -52760.58   0.27986366 
  153200    273.56895   -1068.4645    142894.71   -48929.024    3756.8108   -52685.834   0.26569145 
  153400    277.15594   -1216.1945     143177.7   -48974.937    3806.0694   -52781.006   0.26204134 
  153600    274.48862   -1037.5772    142870.01   -49004.344    3769.4402   -52773.785   0.26776084 
  153800    269.78929   -799.73258    142375.56   -49039.167    3704.9062   -52744.073   0.27879029 
  154000    271.89678   -863.25997    142530.51   -49052.242    3733.8475    -52786.09   0.29280556 
  154200    276.84968    -1182.199    143171.99   -48991.426    3801.8636   -52793.289   0.25900425 
  154400    271.32045   -1252.5979    143275.96   -48982.944     3725.933   -52708.877   0.24090268 
  154600    273.26307    -886.9277    142629.38   -49013.055    3752.6103   -52765.666   0.28487547 
  154800    272.34641   -686.82299    142261.54   -49033.877    3740.0221   -52773.899   0.28612301 
  155000    270.79549   -994.22954    142780.07   -49017.488    3718.7239   -52736.211   0.25926428 
[...]
  163200    271.34038   -989.40764    142707.89   -49079.127    3726.2067   -52805.333   0.27114392 
  163400    271.27216   -1088.7096    142925.42   -49107.722    3725.2699   -52832.992   0.26816955 
  163600    270.44882   -1094.0999    142864.67   -49060.924    3713.9633   -52774.887   0.26857792 
  163800     272.7675   -931.92494    142583.16   -49120.947    3745.8047   -52866.752   0.28517116 
  164000    270.53501   -910.28923    142520.05   -49137.318    3715.1469   -52852.465   0.27658357 
  164200    266.33122   -1011.4558    142805.83   -49130.537    3657.4179   -52787.955   0.27326161 
  164400    267.47131   -1126.3117    143020.37    -49072.71    3673.0743   -52745.784   0.28226199 
  164600     274.0805   -989.52134    142824.76   -49055.773    3763.8356   -52819.608   0.25412709 
  164800    271.27635   -882.37251    142486.67   -49097.127    3725.3275   -52822.454    0.2933858 
  165000    273.07693   -859.67237    142489.06   -49074.201     3750.054   -52824.255   0.29267495 
  165200    272.29321   -1081.2795    142865.27   -49066.137    3739.2916   -52805.429   0.25356693 
  165400    270.27066   -1177.8611     143048.6   -49088.201    3711.5167   -52799.717   0.27389835 
  165600    274.40824   -946.59139    142659.38    -49035.92    3768.3364   -52804.257   0.27906792 
  165800    266.85676   -794.27205    142294.48   -49063.673     3664.635   -52728.308    0.2911543 
  166000    271.41371   -936.91343    142594.62   -49022.613    3727.2137   -52749.827   0.29216083 
  166200    269.67713   -1226.3672    143179.19   -49041.745     3703.366   -52745.111   0.25480729 
  166400    269.61722   -1170.7062    143090.03   -49038.203    3702.5433   -52740.746   0.25826208 
  166600    270.87525   -811.14285    142425.79   -49043.726    3719.8193   -52763.546   0.28467696 
  166800    273.66603   -734.91021    142239.54   -49103.531    3758.1439   -52861.675   0.30511629 
  167000    271.18393   -1098.6658    142839.01   -49097.012    3724.0582    -52821.07   0.26897534 
  167200    268.36108   -1320.7155    143292.13     -49039.6    3685.2931   -52724.893    0.2567309 
  167400    272.10728   -1049.5653    142884.71    -49089.02    3736.7382   -52825.758   0.27232786 
  167600    271.19488   -765.17529    142314.48    -49079.72    3724.2086   -52803.928   0.27517593 
  167800    267.90105   -840.10731    142505.97   -49143.333    3678.9758   -52822.308    0.2810521 
  168000     267.4551   -1221.4727    143150.29   -49122.176    3672.8518   -52795.028   0.26240004 
  168200    266.48803   -1217.6318    143189.94   -49118.541    3659.5713   -52778.112   0.24933636 
  168400    271.51921   -880.88416    142550.67   -49088.574    3728.6624   -52817.236   0.29118165 
  168600    273.84233   -728.13879    142265.87   -49104.608     3760.565   -52865.173   0.28899917 
  168800    269.82876   -1016.2042    142798.68   -49136.171    3705.4482    -52841.62   0.27212899 
  169000    270.01168   -1282.1067    143247.51   -49114.649    3707.9603   -52822.609   0.24706474 
  169200    272.11813   -1078.1584    142893.94   -49091.268    3736.8873   -52828.155    0.2642353 
  169400    269.47405   -798.53821    142312.66   -49123.996    3700.5771   -52824.573   0.29713932 
  169600    270.29727   -857.33977    142375.82   -49133.579    3711.8821   -52845.461    0.2872688 
  169800    269.76946   -1127.3214     142934.5   -49130.278    3704.6339   -52834.912   0.27557843 
  170000    265.84244   -1171.9656    143094.23   -49162.725    3650.7058   -52813.431    0.2579527 
  170200    269.63958   -985.90222    142646.42   -49179.263    3702.8504   -52882.113   0.27371699 
  170400    271.04358   -803.38339    142336.57    -49156.08    3722.1309   -52878.211   0.29522575 
  170600    268.67879   -960.77861    142652.26   -49135.281    3689.6562   -52824.937   0.26469552 
  170800    264.03492   -1223.3213    143078.09    -49150.44    3625.8838   -52776.324   0.27167925 
  171000    271.33268   -1067.9114    142943.39   -49151.339     3726.101    -52877.44   0.26868046 
  171200    267.41362    -889.5164    142516.75   -49182.515    3672.2821   -52854.797   0.27356446 
  171400    270.86056    -836.3404    142467.45   -49179.448    3719.6176   -52899.066   0.28615792 
  171600    266.44644   -1043.5889    142841.17   -49141.668    3659.0003   -52800.668   0.25740259 
  171800    275.35386   -1135.9495     143061.1   -49118.181    3781.3221   -52899.503   0.26089457 
  172000    270.61231   -1005.7515    142843.94   -49126.783    3716.2084   -52842.992   0.25725801 
  172200    269.06199   -912.68185    142575.94   -49136.666    3694.9185   -52831.584   0.28751103 
  172400    269.91974   -933.50417    142635.97   -49108.205    3706.6977   -52814.903   0.28569858 
  172600    273.38965   -1080.8554    142907.14   -49089.814    3754.3484   -52844.162   0.25810395 
  172800    268.16243   -1156.4816    142958.38   -49096.119    3682.5652   -52778.684   0.28234562 
  173000    270.22123    -961.9192    142700.56   -49117.245    3710.8379   -52828.083   0.26380048 
  173200     265.5606   -896.30728     142540.5   -49154.009    3646.8353   -52800.844   0.28066567 
  173400    272.29928   -950.07639    142666.18   -49139.573    3739.3749   -52878.948   0.28337927 
  173600    266.82855   -1096.8948     142894.4   -49089.744    3664.2476   -52753.991   0.27281978 
  173800    274.32698   -1050.5881    142878.37   -49089.926    3767.2204   -52857.146   0.27626911 
  174000    271.30663   -944.32034    142661.26   -49058.893    3725.7432   -52784.636   0.27372191 
  174200    274.45402   -882.44263    142609.35   -49053.602    3768.9651   -52822.567   0.27864988 
  174400    273.80844   -1005.9077    142795.63   -49034.874    3760.0995   -52794.974   0.26600337 
  174600    277.49203   -1069.4067    142932.46   -49043.485    3810.6848    -52854.17   0.25972717 
  174800    270.43896   -1048.4399    142812.02   -49010.451    3713.8279   -52724.279   0.28352763 
  175000    275.50432   -923.79151    142618.27   -49058.236    3783.3883   -52841.624   0.27005062 
  175200    269.55871   -990.78296    142680.12   -49055.457    3701.7398   -52757.197   0.29148263 
  175400    272.32683   -1106.8744    142883.03   -49060.841    3739.7532   -52800.594   0.26783482 
  175600    269.75055    -1053.721    142848.34    -49070.42    3704.3743   -52774.794   0.27126185 
  175800    270.62777   -919.66695    142624.85   -49058.486    3716.4207   -52774.906   0.29169627 
  176000    272.10528   -944.93921    142599.33   -49047.046    3736.7107   -52783.757      0.27004 
  176200    275.12076   -1060.9463    142856.18   -48997.027    3778.1211   -52775.148   0.28427085 
  176400    270.84605    -1149.936    142995.35   -49030.806    3719.4183   -52750.224    0.2735964 
  176600    274.69687   -979.30489     142729.9   -49015.259       3772.3   -52787.559   0.28066209 
  176800    272.44666    -834.6327    142483.09    -49025.33    3741.3989   -52766.729   0.30026742 
  177000    274.67924   -955.42503    142636.41   -49038.649    3772.0579   -52810.706   0.27095293 
  177200    273.56215   -1060.4729    142939.18   -49045.222    3756.7174   -52801.939   0.26710441 
  177400    267.17311   -1118.9967    142882.79   -49128.505    3668.9793   -52797.484   0.27560408 
  177600    269.16122   -939.60165    142496.88   -49101.175    3696.2812   -52797.457   0.30170927 
  177800    269.39867   -852.22753    142409.36   -49082.646    3699.5419   -52782.188   0.29269275 
  178000    271.59967   -1056.3134    142824.58   -49037.606    3729.7674   -52767.373   0.26640928 
  178200    269.35623   -1214.5815    143089.32   -49066.198    3698.9592   -52765.158   0.27762242 
  178400    273.38735   -1006.8859    142766.44    -49048.13    3754.3168   -52802.447   0.26241927 
  178600    267.56508   -797.56808    142372.33   -49068.369    3674.3621   -52742.731   0.29765601 
  178800    270.52793   -914.05173    142559.53   -49037.378    3715.0496   -52752.428   0.29547556 
  179000    272.15295   -1135.0401     143032.7   -49006.223    3737.3654   -52743.588    0.2616077 
  179200    271.01295   -1144.8401    143033.46   -49027.242    3721.7103   -52748.952   0.27892376 
  179400    275.91153   -897.04214    142526.21   -49010.117    3788.9804   -52799.098   0.27938548 
  179600    276.81733   -775.36744    142330.59   -49019.313    3801.4195   -52820.732   0.29375137 
  179800    269.91197   -1052.5516    142781.95    -49040.01     3706.591   -52746.601   0.28152035 
  180000    275.24759   -1226.7835    143157.87   -49001.711    3779.8628   -52781.574    0.2603031 
  180200    279.18111   -1027.7798    142861.95   -48969.891    3833.8803   -52803.772    0.2806126 
  180400    276.27147   -763.53382    142414.18   -48935.256    3793.9233    -52729.18   0.28205925 
  180600    274.12209   -898.91836    142546.18   -49017.298    3764.4068   -52781.705   0.29106142 
  180800    276.75435   -1157.2391    143029.99   -48976.769    3800.5546   -52777.324   0.25769417 
  181000    270.20467   -1190.1272    143118.96   -49013.031    3710.6104   -52723.641   0.25746058 
  181200     276.8585     -965.879    142689.65   -49005.031    3801.9848   -52807.016   0.28921224 
  181400    275.22255   -806.82344    142421.85    -49045.61     3779.519   -52825.129   0.28128623 
  181600    271.90268   -965.23015    142735.88   -49063.108    3733.9285   -52797.037   0.28424323 
  181800    272.42967   -1203.0074    143127.11   -49029.287    3741.1655   -52770.452   0.25887219 
  182000    271.04472   -1051.3657    142942.55   -49038.996    3722.1466   -52761.143   0.26278232 
  182200    275.12569   -853.52182    142447.94   -49062.085    3778.1889   -52840.274   0.29869282 
  182400    269.47521   -828.03823    142398.12   -49063.337    3700.5931    -52763.93   0.29003397 
  182600     275.1768   -1058.2552    142862.39   -49022.728    3778.8907   -52801.619   0.27592249 
  182800    272.98852   -1175.1685    143143.45   -48983.944    3748.8399   -52732.784   0.25878445 
  183000     276.7914   -1030.0626    142849.79   -48989.445    3801.0633   -52790.508   0.28038293 
  183200    274.88672   -835.29296    142417.54   -48978.317    3774.9072   -52753.224   0.29556987 
  183400    272.41981   -928.37039    142523.99   -48984.951    3741.0301   -52725.981   0.27482454 
  183600    275.53162   -1145.7463    142949.44   -49005.148    3783.7633   -52788.911   0.28564393 
  183800    270.22543   -1137.3257    143000.05   -49033.535    3710.8956   -52744.431   0.25830751 
  184000    271.70558   -964.31312    142620.11   -49051.602    3731.2218   -52782.824   0.28862408 
  184200    276.02159   -815.83963    142413.73   -49094.298    3790.4918   -52884.789   0.30466793 
  184400    271.71847   -970.50435    142661.86   -49100.075    3731.3989   -52831.474   0.26271734 
  184600    269.41074   -1112.2503     142927.4   -49102.323    3699.7078   -52802.031   0.27528071 
  184800    274.46053   -1018.5779    142783.72   -49093.969    3769.0544   -52863.023   0.27157308 
  185000    275.06845   -888.71202    142511.72   -49090.146    3777.4028   -52867.549   0.28845654 
  185200    270.95564   -923.53653    142587.26   -49143.498    3720.9232   -52864.422   0.28558474 
  185400    269.77419   -1093.7699    142897.23   -49119.323    3704.6989   -52824.022   0.27226017 
  185600    269.34926   -1112.2689    142920.88   -49121.082    3698.8635   -52819.946    0.2810277 
  185800    274.21342   -937.80862    142571.31   -49074.906    3765.6609   -52840.567   0.27110003 
  186000    275.95906   -821.17633    142380.35   -49065.077    3789.6332    -52854.71   0.30579634 
  186200     272.3651   -1000.5373     142705.5   -49052.138    3740.2788   -52792.417   0.27713137 
  186400    270.96513   -1214.7352    143092.16   -48997.971    3721.0536   -52719.025   0.25731205 
  186600    271.73169   -1119.0162    142889.88   -49032.371    3731.5804   -52763.952   0.30069451 
  186800    272.61797   -791.39513    142301.59   -49065.658    3743.7514   -52809.409   0.29093564 
  187000    268.81062   -778.45636    142309.72   -49038.567    3691.4665   -52730.034   0.30753227 
  187200    275.23677   -1156.4633    143032.07   -49047.296    3779.7142   -52827.011   0.26669718 
  187400     270.8125    -1298.492    143335.21   -49027.093    3718.9575    -52746.05   0.24460529 
  187600    271.81012   -980.68544    142667.11   -49075.966    3732.6574   -52808.623   0.28755414 
  187800    271.08412   -602.10413    142022.88   -49073.152    3722.6876    -52795.84   0.30980908 
  188000    272.19232   -875.19936    142495.45   -49045.039     3737.906   -52782.945   0.30059167 
  188200    271.84693   -1345.0939     143392.7   -49021.297    3733.1629    -52754.46   0.24767998 
  188400    273.60423   -1249.8524    143240.44   -49011.287    3757.2952   -52768.582   0.26844309 
  188600    276.89269   -786.40595    142314.53   -49031.157    3802.4544   -52833.611   0.29854708 
  188800    274.41602   -679.27601    142120.16   -49047.611    3768.4433   -52816.054   0.28412945 
  189000     274.6116   -1028.8909    142919.79   -49031.231    3771.1291    -52802.36   0.28999592 
  189200    276.76685   -1344.3062    143454.42   -49024.514    3800.7262    -52825.24   0.23866444 
  189400    272.54734   -1102.8596    142928.48   -48997.469    3742.7814   -52740.251   0.26288658 
  189600    272.46327   -756.18875    142219.55   -49020.821    3741.6269   -52762.448   0.31975422 
  189800    270.53935   -794.11411    142352.57   -49056.559    3715.2065   -52771.765   0.27068802 
  190000    271.58053   -1145.4007    143005.71   -49077.193    3729.5046   -52806.697   0.26454752 
  190200    268.44786   -1207.1573    143154.58   -49049.309    3686.4849   -52735.794   0.26695841 
  190400    276.72883   -924.11114    142668.53   -49055.564     3800.204   -52855.768    0.2797217 
  190600    278.02851   -757.33961    142377.28   -49007.048     3818.052     -52825.1   0.28644309 
  190800    270.17408   -964.40491    142714.92       -49034    3710.1904    -52744.19   0.28253645 
  191000    272.93926   -1210.7053    143103.76   -49040.288    3748.1634   -52788.452   0.27736489 
  191200    271.57661   -1119.7096    142919.61   -49037.002    3729.4507   -52766.453   0.25204783 
  191400    272.97252   -860.80694    142465.89   -49065.638    3748.6202   -52814.259   0.30949799 
  191600     274.0937   -847.78286    142429.57    -49025.48    3764.0169   -52789.497    0.2994495 
  191800    268.39486   -1047.4727    142850.35   -49050.606    3685.7571   -52736.363   0.25911789 
  192000    269.92728   -1184.9396    143064.82   -49045.601    3706.8011   -52752.402   0.28780349 
  192200    273.39544   -1012.9568    142762.88   -49021.839     3754.428   -52776.267   0.26338606 
  192400    267.11864   -861.49297    142458.55   -49033.238    3668.2313    -52701.47   0.28351982 
  192600    270.68623   -955.62039    142636.06   -49060.836    3717.2235    -52778.06   0.28342274 
  192800    272.98318   -1111.0027    143029.36   -49033.155    3748.7666   -52781.922   0.25332268 
  193000    277.14838   -1110.5318    143025.15   -49023.859    3805.9656   -52829.824   0.25969866 
  193200    273.03802   -949.85988    142634.53   -48986.782    3749.5197   -52736.302   0.28728221 
  193400    272.90697   -868.16999    142489.37   -48991.826      3747.72   -52739.546   0.30050228 
  193600    272.11359   -1021.4415    142799.48   -48999.028    3736.8248   -52735.853   0.25911773 
  193800    273.89416   -1152.1303    143044.77   -49041.449    3761.2767   -52802.725   0.27044588 
  194000    275.20876   -1039.0259     142815.3   -49067.584    3779.3296   -52846.914   0.27651451 
  194200    275.84062   -812.98704    142476.07   -49059.836    3788.0067   -52847.843   0.26835222 
  194400    272.76074   -925.42997    142596.12   -49041.249     3745.712   -52786.961   0.31138521 
  194600    277.04574   -1102.9809    142981.88   -49059.295    3804.5561   -52863.851   0.26047873 
  194800    268.01627   -1145.7781    143031.35   -49044.018     3680.558   -52724.576   0.25899486 
  195000    276.11706   -951.83722    142683.95   -49032.596    3791.8028   -52824.399   0.28590403 
  195200    273.79048   -843.78839    142508.49   -49020.977    3759.8529    -52780.83   0.27779508 
  195400    273.29878   -1012.0661     142749.8   -49020.097    3753.1006   -52773.197   0.27799637 
  195600    268.25397   -1128.6773    142969.44   -49020.598    3683.8223   -52704.421    0.2775285 
  195800    273.52258   -1050.3725    142797.56   -49066.014     3756.174   -52822.188   0.27820582 
  196000    273.91137   -853.78119     142481.8   -49041.892    3761.5131   -52803.405   0.27717438 
  196200    274.98232   -931.50843    142591.79   -49029.094      3776.22   -52805.314   0.27964103 
  196400     270.9248   -1096.9239    142983.23   -49021.751    3720.4998   -52742.251    0.2790981 
  196600    265.49435   -1151.0337    143013.78   -49082.085    3645.9256   -52728.011   0.25857756 
  196800    272.20338   -922.04013    142602.61   -49081.199     3738.058   -52819.257   0.29686348 
  197000    271.17055   -828.48025    142389.71     -49093.9    3723.8745   -52817.775   0.29597123 
  197200    268.12969   -1024.1163    142723.78   -49143.777    3682.1156   -52825.893   0.26332059 
  197400     267.3406    -1201.387    143091.39   -49096.787    3671.2794   -52768.066   0.27315759 
  197600    269.30203    -1056.783    142878.82   -49017.738    3698.2149   -52715.952   0.26825332 
  197800    273.27081   -824.59901    142420.46   -49013.203    3752.7165   -52765.919   0.28793059 
  198000    275.72258   -839.89592    142463.69     -49040.3    3786.3857   -52826.685   0.29090011 
  198200    275.11579   -1177.1386    143023.92   -49055.791    3778.0529   -52833.844   0.27010665 
  198400    272.04328   -1292.1397    143201.55   -48982.674    3735.8593   -52718.533   0.26879242 
  198600    278.08527   -896.91806    142583.59   -48982.142    3818.8315   -52800.973   0.28652666 
  198800    276.65952   -645.59546    142117.04   -49019.481    3799.2523   -52818.733   0.31340918 
  199000    276.58062   -920.11153    142641.21   -49019.945    3798.1688   -52818.114   0.26287313 
  199200    273.74516   -1320.6808    143347.09   -49000.624    3759.2305   -52759.854   0.26482116 
  199400     271.4651   -1136.6903    143035.94   -49014.902    3727.9195   -52742.821   0.28083444 
  199600    275.95727     -708.282    142162.43    -49048.34    3789.6085   -52837.949   0.29353003 
  199800    273.87451    -716.6113    142110.18   -49030.144    3761.0068   -52791.151   0.33992337 
  200000    271.62643   -1129.3841    142947.87   -49036.581    3730.1349   -52766.716   0.27010376 
Loop time of 230.544 on 6 procs for 200000 steps with 4608 atoms

Performance: 374.766 ns/day, 0.064 hours/ns, 867.515 timesteps/s
99.0% CPU use with 6 MPI tasks x no OpenMP threads

MPI task timing breakdown:
Section |  min time  |  avg time  |  max time  |%varavg| %total
---------------------------------------------------------------
Pair    | 187.46     | 190.28     | 196.4      |  23.5 | 82.54
Neigh   | 12.768     | 13.101     | 13.632     |  10.1 |  5.68
Comm    | 10.454     | 17.013     | 20.182     |  84.0 |  7.38
Output  | 3.0226     | 3.0235     | 3.0269     |   0.1 |  1.31
Modify  | 5.6639     | 5.7887     | 5.9144     |   4.1 |  2.51
Other   |            | 1.333      |            |       |  0.58

Nlocal:        768.000 ave         780 max         746 min
Histogram: 1 0 0 0 0 1 0 2 1 1
Nghost:        1644.33 ave        1681 max        1627 min
Histogram: 1 2 1 1 0 0 0 0 0 1
Neighs:        0.00000 ave           0 max           0 min
Histogram: 6 0 0 0 0 0 0 0 0 0
FullNghs:      24079.3 ave       24429 max       23278 min
Histogram: 1 0 0 0 0 0 1 1 1 2

Total # of neighbors = 144476
Ave neighs/atom = 31.353299
Neighbor list builds = 13243
Dangerous builds = 0
write_data		data.${NAME}
write_data		data.ice_273K_-1000atm_mW
System init for write_data ...
Total wall time: 0:05:42
