LAMMPS data file via write_data, version 29 Oct 2020, timestep = 0

9216 atoms
1 atom types

-0.10376895443818768 104.51105700301515 xlo xhi
-0.22297257102168544 51.314570712243395 ylo yhi
-0.22297257102168544 51.314570712243395 zlo zhi

Masses

1 18.015

Atoms # atomic

29 1 4.593535380982099 1.452807355868385 1.4041406063445347 0 0 0
25 1 3.322396072010042 50.821581865976185 3.2068874551426565 0 -1 0
23 1 0.026488174151531013 50.66838827120469 6.403037150502126 0 -1 0
285 1 10.67309295859469 2.04437827176941 1.1607478903920394 0 0 0
281 1 9.48980304391547 0.023439384186366416 2.8316185526723117 0 0 0
1056 1 8.944729016409568 2.7159078031337347 25.29903133761837 0 0 0
541 1 17.185916732959797 1.6200562120623643 1.4081202783189928 0 0 0
30 1 1.3584216242723157 4.70262412165751 1.5514503802096065 0 0 0
607 1 12.56258329871274 12.721876413565745 0.2134752973756321 0 0 0
282 1 6.046547220593121 2.878611532485895 3.110494538289192 0 0 0
286 1 7.693601826114406 4.713113128236381 1.6299471598108481 0 0 0
542 1 14.115936832478596 4.653221281214163 1.6557530386721846 0 0 0
320 1 9.12779330719316 9.70784062711045 0.0977723497338307 0 0 0
61 1 4.423604363155467 7.771908759273052 1.941740542426278 0 0 0
167 1 -0.09682384763253508 32.12745906410785 18.76317570837197 0 0 0
317 1 10.81835964454633 8.477246755837944 1.972639845271876 0 0 0
569 1 15.704616892854787 5.941687618553442 3.2826906154702717 0 0 0
573 1 17.308083526733572 7.691374568084091 2.0287000509600905 0 0 0
62 1 1.5664919726506 11.682354236803315 1.8348649535192691 0 0 0
318 1 7.491902996118386 10.988668125966454 1.8343758009270172 0 0 0
135 1 -0.06255669369777225 25.970616410584572 19.333517118038483 0 0 0
574 1 14.52235745239891 11.36547866499096 1.3352669344415988 0 0 0
98 1 0.05745511288398755 22.824964530792723 22.427665782361032 0 0 0
479 1 5.986458326603158 38.19479139285431 0.27326788324992735 0 0 0
93 1 4.745210167304814 14.158729924418964 1.6540649299959447 0 0 0
349 1 11.100622224597819 14.384736514328965 1.9083235223307744 0 0 0
345 1 9.40296913892296 12.846952989246832 3.2056118857554106 0 0 0
605 1 17.579879962946 14.06593161193455 1.7083698555593507 0 0 0
601 1 15.805336614759302 12.550317363713315 3.4168875278606365 0 0 0
94 1 1.4943674484148182 17.80250780501491 1.66375133045891 0 0 0
47 1 -0.09083038092348587 6.230699578716876 12.41829960069809 0 0 0
1439 1 13.169386478080224 25.76553307717007 25.183171123261275 0 0 0
350 1 7.848173729641071 17.328984657204828 1.733959911356308 0 0 0
606 1 14.401241675498188 17.02818972383291 1.767991108377048 0 0 0
186 1 -0.020709844413637768 34.82129508202357 3.0498941030266553 0 0 0
125 1 5.028008652051185 20.70087042931731 1.6064810276554724 0 0 0
377 1 10.013236199642673 18.83825004503278 3.1426845804804224 0 0 0
381 1 11.207934125920968 20.69194189071772 1.653713268219168 0 0 0
637 1 17.382811708902565 20.707175075718325 2.0116995613406585 0 0 0
126 1 1.714773757163417 24.053381459177967 1.451698955199082 0 0 0
378 1 6.7602589086475495 22.24084516436501 3.349884078463524 0 0 0
382 1 8.025371047071408 23.85957437701284 1.5096123514935291 0 0 0
638 1 14.56257409540955 24.072944665300025 1.5831630507696852 0 0 0
634 1 13.17353052847811 22.235451504870987 2.9915053357662087 0 0 0
153 1 3.280880022774092 25.551771716209913 3.06299959951102 0 0 0
74 1 0.0630938583074481 15.904902210800925 16.300843631181333 0 0 0
409 1 9.525351657609255 25.621421071317513 2.967826795267049 0 0 0
413 1 11.586513293615406 27.1470057226455 1.6124018574749766 0 0 0
665 1 16.446238609478762 25.407517103858645 2.902831917256786 0 0 0
669 1 18.042064513002366 27.12835719472052 1.1652121435808334 0 0 0
157 1 4.55344559680253 27.155827516719768 1.3768072055376712 0 0 0
410 1 6.377578739097567 28.69069196611809 2.755785328949181 0 0 0
55 1 -0.0449754230543391 5.9160967566465485 6.466056944681315 0 0 0
666 1 13.464841981630721 28.82304558342613 3.227709912201114 0 0 0
158 1 1.6569111101421057 30.22548516104523 1.3479487365776042 0 0 0
185 1 2.9052429136014264 31.810022920715983 3.139383564801231 0 0 0
414 1 7.9460734127186985 30.393680191458994 1.1217842824248438 0 0 0
26 1 0.10274992218600931 2.740243959296148 3.1722673919331417 0 0 0
670 1 14.952366095106985 30.340878886714126 1.5750113950666444 0 0 0
697 1 16.399752124002678 32.23202550055514 3.394527445218269 0 0 0
189 1 4.56695260641193 33.73624804255171 1.195822156417228 0 0 0
1088 1 9.300889906320462 9.369466312352799 25.264154258328926 0 0 0
445 1 11.020796703028626 33.55166824696377 1.2529720371825055 0 0 0
701 1 17.557605051660936 33.94363448780875 1.1949971015345984 0 0 0
50 1 0.002324026482861258 9.30332117647132 9.566037003439618 0 0 0
190 1 1.5957062038176153 36.61023870803601 1.5846784640622833 0 0 0
64 1 2.904007276430805 9.619701626929954 0.1311848998428952 0 0 0
416 1 9.845268212703356 28.579939061015917 -0.04590397704429213 0 0 0
446 1 7.799048181327227 36.50737145420669 1.726766658252118 0 0 0
1535 1 12.319011408944261 45.04246378485405 25.19227869919914 0 0 0
702 1 14.63844553800323 36.54721770201536 1.5271644449289963 0 0 0
740 1 17.703501916286573 49.126345106778274 23.84793740057447 0 0 0
221 1 4.689764221989386 40.14990760594702 1.7007167469976399 0 0 0
119 1 0.0824937634185276 19.113667355633375 6.56966360054313 0 0 0
477 1 10.823181511252118 39.703021178837645 1.3401785836605722 0 0 0
730 1 12.773537782975788 40.99912785578999 2.995585381889483 0 0 0
7 1 -0.06271538197832366 50.88929767190342 18.884663110259893 0 -1 0
733 1 17.043658417329375 39.828369632108135 1.7766591750638447 0 0 0
130 1 0.06619452690934322 29.38913602363091 22.033225139248938 0 0 0
222 1 1.6353816641944887 43.060318628323245 1.8820162033977126 0 0 0
249 1 3.2437920867797034 44.555254908855346 3.243417188146359 0 0 0
478 1 7.6722103868271345 43.14576211687303 1.3904978183212233 0 0 0
170 1 -0.09885593573542195 35.24466615862684 15.839518401116065 0 0 0
250 1 -0.02067456091165247 47.62681534002721 2.8134396767148013 0 0 0
734 1 14.265173161508265 42.743051873392304 1.5544888930243155 0 0 0
761 1 15.784892609711624 44.65768110484608 3.3086734850055075 0 0 0
484 1 10.862344568145078 49.54163903598199 24.044929641252793 0 0 0
253 1 4.9453107121747095 45.966388055459646 1.459980575531256 0 0 0
87 1 0.27975677647768904 12.63277382281589 5.983268700417281 0 0 0
509 1 10.662937208750765 46.11212361991039 1.5662962220621084 0 0 0
762 1 12.271417297694565 47.54978352424838 3.098442812482457 0 0 0
42 1 0.18397494149963023 9.242004950690731 15.825468116043849 0 0 0
765 1 17.45984732067611 46.203959745731794 1.2863047857435033 0 0 0
254 1 1.8724696928187095 49.176664289163796 1.5014623728515553 0 0 0
506 1 6.33941975756001 47.693797049835766 3.117593685506861 0 0 0
510 1 7.611651349485429 49.44255885650777 1.5052008222215243 0 0 0
766 1 13.887347954622038 49.204573041053635 1.315782596676538 0 0 0
537 1 15.828645598586414 50.514521270227206 2.8163697897077964 0 -1 0
27 1 1.2720021659176677 0.9527275421262076 4.631642972571017 0 0 0
283 1 7.832712684060604 1.3499055865310121 4.710699077561586 0 0 0
539 1 14.596053061399925 1.2015991775859345 4.6106670819501385 0 0 0
536 1 16.114360625119488 2.865108629257931 6.199754375933599 0 0 0
576 1 15.909382754352297 9.37560808057553 0.1273927863495505 0 0 0
28 1 4.616163637460083 4.6762818241675 4.704519451667102 0 0 0
284 1 11.120416277208829 4.902270587472224 4.575580438659908 0 0 0
538 1 12.488961937862484 2.886769954169068 3.1429077036825195 0 0 0
540 1 17.62696057937008 4.708936873451798 4.945398307619408 0 0 0
57 1 2.8501611192433187 6.087965112549844 3.313492802431358 0 0 0
59 1 1.568237204080472 7.585821530138816 4.935053408565899 0 0 0
315 1 7.798576488908375 7.93444611901579 4.705617669336203 0 0 0
313 1 9.377521898378378 6.575753952053551 3.117695175663168 0 0 0
571 1 14.099465003090957 7.884231176180961 4.577630654370753 0 0 0
608 1 16.16871433881802 15.631024202378113 0.0630510980474274 0 0 0
56 1 3.037509691718542 9.603624918784263 6.508268448243902 0 0 0
60 1 4.797887102474142 11.067634815735106 5.015085711091937 0 0 0
314 1 6.109332672431625 9.445945273315836 3.344902285852392 0 0 0
316 1 11.291004963225049 11.131997816712083 4.739069417151839 0 0 0
312 1 9.624362374953044 9.35903863841252 6.324993280574144 0 0 0
570 1 13.03820368427157 9.871100582509412 2.973791915947567 0 0 0
572 1 17.259306824952265 10.835891358513823 4.9792041205382205 0 0 0
568 1 15.263205775169423 9.618133901119668 6.3738959686172745 0 0 0
91 1 1.5750762827875049 15.090400015974799 4.538442719155269 0 0 0
89 1 3.361437574730302 13.05110904990173 3.5498569287783854 0 0 0
347 1 8.063966355946183 14.715379944603075 4.894811263938731 0 0 0
603 1 14.398352058392861 14.123257682772813 5.265279944287544 0 0 0
92 1 4.878427898817357 17.349570767614495 4.957525782931498 0 0 0
346 1 6.40144805052346 15.82964460161106 3.061318452016942 0 0 0
348 1 11.087578227743908 17.713343315722888 5.362495639094066 0 0 0
602 1 12.779016637327393 15.733168398076987 3.644481070470469 0 0 0
600 1 16.028476175872253 15.962875604429062 6.641600746478236 0 0 0
604 1 17.557571483889564 17.32511210519565 4.940957123424679 0 0 0
122 1 0.40117941662237955 22.386393682570716 3.243685809745331 0 0 0
123 1 1.8533530635396427 20.744949516665187 4.997736680071513 0 0 0
121 1 3.2892966352793236 19.040878780728136 3.403670336834105 0 0 0
375 1 6.844483866172497 19.246735891060098 6.4852197420819655 0 0 0
379 1 8.46927670601818 20.756496586264316 5.1445531496076065 0 0 0
635 1 14.236850367858148 20.44053131538319 4.967932442758455 0 0 0
633 1 15.57254534347352 18.740413214228745 3.400950269601408 0 0 0
124 1 4.963646323370151 23.845199166776943 4.670292403844658 0 0 0
120 1 3.694703119059677 22.35096064668239 6.452998875723703 0 0 0
376 1 9.88242615398569 22.494083768310343 6.397709218522767 0 0 0
380 1 11.350218138513211 24.01510057391213 4.359091883058426 0 0 0
636 1 17.731475560819387 23.825465056270076 5.102612109704208 0 0 0
146 1 0.13540479311027817 28.935734225234295 9.381129391313083 0 0 0
155 1 1.5644103583700846 27.158367085514993 4.601209928701474 0 0 0
407 1 6.8204925704972394 25.715463099188092 6.281294460966547 0 0 0
663 1 12.971133444313397 25.81150390676652 5.91246892974521 0 0 0
152 1 3.07123840381823 29.23696280106149 5.772239988473222 0 0 0
411 1 8.119998871096838 27.368524060080034 4.490611164109516 0 0 0
408 1 9.644476524281673 29.000016680373708 5.8164304475456605 0 0 0
667 1 15.111228910739479 27.184063367899935 4.562391991488489 0 0 0
664 1 16.23468415411719 28.888736412713715 6.240457203351731 0 0 0
178 1 0.07948204332388542 35.30031889557495 9.217618209090004 0 0 0
156 1 5.02738879935057 30.585899456346315 3.9973902631735774 0 0 0
439 1 6.465625934139867 32.01570133915172 6.281581591773825 0 0 0
441 1 9.750552029204593 31.574317849923833 2.951730769783921 0 0 0
412 1 11.659789673695396 30.379073223839747 4.734015498370512 0 0 0
668 1 17.99992515442721 30.38763771665202 4.728184452131302 0 0 0
187 1 1.4563351557678106 33.481950019095336 4.86929480637467 0 0 0
442 1 6.2940369513476595 34.90852393370396 3.3766640989630594 0 0 0
443 1 8.179720099044884 33.421173222002906 4.678895205140938 0 0 0
698 1 12.844817155566853 34.8419707404001 3.0492253809966967 0 0 0
699 1 14.362271706268443 33.62260688394517 4.749249131732692 0 0 0
696 1 15.769019603828259 35.107922742746396 6.220605288098777 0 0 0
217 1 3.3021118647085883 38.10154382346539 2.944784404283687 0 0 0
188 1 4.731252495533697 36.423816319166846 4.5600476498864575 0 0 0
473 1 9.519164387641942 38.00307623565823 3.1618996202651988 0 0 0
444 1 11.463383788871518 36.59796109259594 4.799766718003405 0 0 0
729 1 16.036615296680022 38.00202685697941 3.2855496048363233 0 0 0
700 1 17.614345383509985 36.6552453065495 4.984608729243159 0 0 0
219 1 1.7455165216081696 39.742306655388205 4.591986402582585 0 0 0
474 1 6.559975859785779 41.56438988662656 3.420050904346558 0 0 0
475 1 8.025990813606038 39.764619922107144 4.770111105439471 0 0 0
731 1 14.459181745197803 39.50554326564877 4.619027089696019 0 0 0
728 1 15.634653051226119 41.39911124353809 6.548632198618291 0 0 0
220 1 4.6197355174549 42.71084627312793 4.950130895610547 0 0 0
505 1 9.22843095897654 44.688219630266374 3.2977638657381902 0 0 0
476 1 11.08972067011621 42.73509911009978 4.489285792700188 0 0 0
732 1 17.40373893670814 42.722714957445575 5.026062395528037 0 0 0
251 1 1.6201116251522343 46.270165196935636 4.94763218208359 0 0 0
507 1 7.726590612688082 46.223396813869215 4.8232287763446235 0 0 0
763 1 14.151584965795662 46.20119758052388 4.789262743310431 0 0 0
210 1 -0.10210469707286628 41.209168979807885 9.62034520238619 0 0 0
252 1 4.760047827713056 49.20476144817097 4.834541276668801 0 0 0
504 1 9.59731270514684 47.63112413943658 6.15232805537014 0 0 0
508 1 10.993305555140626 49.325461706702214 4.561965630419104 0 0 0
764 1 17.434309756492283 49.29574008795424 4.564327456010018 0 0 0
114 1 0.20510587837478905 22.344631406942206 9.679634734199453 0 0 0
21 1 4.5283709271260495 1.1534099940374345 8.013701918958912 0 0 0
279 1 6.318825257662477 50.80408223011396 6.161831415859917 0 -1 0
277 1 11.481911595909294 1.8264807622390231 7.806131783658486 0 0 0
533 1 17.717760269375372 1.342126137955506 7.962390581757422 0 0 0
529 1 15.956246391349403 0.038512993103854115 9.278252091412254 0 0 0
22 1 1.7196705735761812 4.503770237647944 7.95944206698517 0 0 0
24 1 3.014827652586794 2.777822267368239 6.386435657573183 0 0 0
280 1 9.665597441606868 3.2966377254325323 6.171447800247193 0 0 0
278 1 7.673763803095054 4.391686070145916 8.050066656868418 0 0 0
534 1 14.536548728495825 4.527708676280096 7.63316661255226 0 0 0
138 1 -0.08857496022775208 28.80484243020098 15.402680902795698 0 0 0
311 1 6.272413645460739 6.299723204755603 6.240317500107739 0 0 0
53 1 4.433973447226486 7.7311609741464995 7.959608749396782 0 0 0
305 1 9.304859787868981 5.834632200687742 9.53897684600411 0 0 0
309 1 11.051070970675783 7.6697884688833105 7.88848451419527 0 0 0
567 1 12.757717168827696 6.139189007138229 6.3124084279207695 0 0 0
565 1 17.02234829676417 8.248521395112236 8.193388134253917 0 0 0
561 1 15.580878561047928 6.384792581857817 9.768377057166353 0 0 0
1746 1 19.020091592879677 41.55766038748955 9.341949496734312 0 0 0
54 1 1.4367416578666667 11.155934355013093 8.085782816328395 0 0 0
306 1 5.973316257121331 9.2384934162601 9.677483486225707 0 0 0
310 1 7.658344575161167 10.780401121085614 8.24392364988171 0 0 0
562 1 12.612227869207585 9.307351480685831 9.906370265878293 0 0 0
566 1 14.457992635476227 10.84719488583251 8.513029997327347 0 0 0
231 1 0.008100892551073366 44.21552998369279 19.015679155525774 0 0 0
85 1 4.817881886423012 14.435624720107073 8.13279577006266 0 0 0
343 1 6.42736743990867 12.815175619935147 6.320153521926359 0 0 0
337 1 9.830424356365047 12.543392826604352 9.379530385691366 0 0 0
341 1 11.446872904138974 14.167507778005897 8.256597474993146 0 0 0
599 1 12.749708818102688 12.410842147362922 6.819478352959629 0 0 0
593 1 15.996040181516321 12.877326513856584 9.8922768510627 0 0 0
597 1 17.41967681542249 14.30893218556147 8.11253826065596 0 0 0
88 1 3.174223751033365 16.151584585239664 6.574623177965742 0 0 0
338 1 6.316298106670463 15.789928161925413 9.911682712350004 0 0 0
342 1 7.821798801617936 17.131086279052628 7.951009332423046 0 0 0
344 1 9.760172957131505 15.71192906294322 6.717240333959101 0 0 0
598 1 14.376871626520359 17.380906694097913 8.310305841168237 0 0 0
594 1 12.715665974988369 15.933281944057832 9.877400226529243 0 0 0
86 1 1.596521816134928 17.660627709986766 8.226298467408082 0 0 0
117 1 5.383891192685333 21.05935507372184 8.079789464683781 0 0 0
113 1 3.5483365993359817 19.362145091587962 9.358089025798598 0 0 0
631 1 12.935791792080861 19.388243769833103 7.080269654449555 0 0 0
373 1 10.81356677478605 20.912709826893792 8.365031447089558 0 0 0
369 1 9.283628935522328 18.920505667790607 9.723609184175452 0 0 0
629 1 17.763108891385343 20.885968208177843 8.236914150150662 0 0 0
625 1 16.145209097217933 19.197497046664814 9.767729955319384 0 0 0
118 1 2.0183528193309277 23.86094529538156 7.995503265316412 0 0 0
370 1 6.543018649644932 22.675480271378973 9.728057927526685 0 0 0
374 1 8.267301225291497 24.251609103206665 8.001056161339628 0 0 0
626 1 12.836556467862016 22.686168756384234 9.649417434676874 0 0 0
632 1 15.9211629477674 22.334478973416736 6.728279465417777 0 0 0
145 1 3.3176506359767237 25.86826321381394 9.285495195559417 0 0 0
401 1 9.845891957208746 26.10716357943162 9.572005948438488 0 0 0
630 1 14.295513671750918 24.311058340337492 7.905849465284105 0 0 0
657 1 16.482470676365644 25.430063223535615 9.503455882808947 0 0 0
661 1 17.726311440493046 27.553088608798014 7.984103473763907 0 0 0
228 1 4.568354786602916 49.44089089575756 23.686365276739114 0 0 0
149 1 5.007669176080685 27.141395228803507 7.2903235325439155 0 0 0
405 1 11.212868911853903 27.75575265647083 7.421347620379668 0 0 0
658 1 12.784285851377236 28.752776539541312 9.320014841228952 0 0 0
150 1 1.3437837629996736 30.367060196941537 7.417393421625524 0 0 0
406 1 8.168206528929998 30.4364505231686 7.919228688921999 0 0 0
695 1 12.651415009494215 32.32073226955633 6.343550661821358 0 0 0
662 1 14.37666774865699 30.444541533957977 7.579477987570731 0 0 0
689 1 15.626404194050053 31.730685175946814 9.298852602602866 0 0 0
184 1 3.3331065290367565 35.03645314769953 6.454797791866913 0 0 0
181 1 5.1645748021597075 33.557792758833685 7.882089843068813 0 0 0
440 1 9.563972600463337 35.08827838370644 6.37788753058427 0 0 0
437 1 11.075562870866097 33.54490355015011 8.130150999527476 0 0 0
693 1 17.093412670997203 33.60905500742639 8.018227828832693 0 0 0
182 1 1.7098803767757258 36.71082049268627 7.828192957517519 0 0 0
471 1 6.2985077121705 38.08348940215113 6.469704614486004 0 0 0
438 1 8.023638997521422 36.72343042332693 7.9947481630970465 0 0 0
727 1 12.926296299165656 38.274797292111444 6.640630877644982 0 0 0
694 1 14.164021199378753 36.48497874341187 8.018360422970671 0 0 0
216 1 2.991538993665701 41.13848159192246 6.635056012198331 0 0 0
213 1 4.794086524413626 39.904914987782135 7.991318800341858 0 0 0
472 1 9.514225270406028 41.347004343124425 6.324720789682622 0 0 0
469 1 10.92277182595655 39.44957436478566 7.805934634749012 0 0 0
725 1 17.478511906672882 39.77552913199595 7.9912579207352525 0 0 0
739 1 14.15872979935917 46.5170521716622 23.91172785970709 0 0 0
214 1 1.6557597624560036 42.98078948356974 7.978026688466983 0 0 0
503 1 6.284688000059352 44.564404507193686 6.155788523774041 0 0 0
470 1 7.567259972457291 42.70408613929334 7.7965214037382395 0 0 0
497 1 9.337083076743276 44.463513777674336 9.403825500391218 0 0 0
726 1 14.156476491497903 43.05109369722011 8.093248970088927 0 0 0
248 1 3.227489661984708 47.65381343771554 6.730672398372741 0 0 0
245 1 5.28893658500333 46.44606082160378 7.974894570601554 0 0 0
501 1 11.003642069355847 46.19030855130751 7.866491547285357 0 0 0
759 1 12.627805600419867 44.61880915171922 6.314142977255724 0 0 0
760 1 15.785700822452448 47.85404265905268 6.275271936488884 0 0 0
757 1 17.52621238753665 46.1819216711318 8.026179889175182 0 0 0
246 1 1.6107275460660049 49.31950552405438 7.934383588899298 0 0 0
498 1 6.721898479640419 48.08722133694033 9.554327177735102 0 0 0
502 1 8.155952340863692 49.608005394507074 7.864556848353514 0 0 0
535 1 12.670622801072232 -0.04011430751690712 6.163358676996681 0 0 0
758 1 14.366187079782721 49.781446221231704 7.843303479558671 0 0 0
19 1 1.3139249788091334 1.2238540131438118 11.071592703291705 0 0 0
17 1 3.192875839491094 50.50096731963616 10.113427483792869 0 -1 0
275 1 8.100126462837771 1.7136154103078567 11.078732611512642 0 0 0
530 1 12.790683350549724 3.506551072494615 9.611023672345862 0 0 0
531 1 14.480206177060532 1.347403929956173 10.936659400223295 0 0 0
274 1 5.95484442677238 2.7451573463257186 9.726106489725908 0 0 0
16 1 2.572478484402262 2.9181685483149686 12.662415325480891 0 0 0
20 1 4.8220911101170785 4.687980042260727 11.661200565690214 0 0 0
276 1 10.974983456093641 4.472408492832634 11.280568731256297 0 0 0
532 1 17.436188307243846 4.405330923300081 10.95579989530936 0 0 0
49 1 3.3216408454853665 6.168756077836633 9.51666106345727 0 0 0
51 1 1.9287038001752181 7.828890199978662 11.031979649768491 0 0 0
303 1 6.31713771256217 6.358800966304196 13.079641470722594 0 0 0
307 1 7.854399870385641 7.580924954120617 10.989744377344733 0 0 0
563 1 14.496195387332302 7.906831481908677 11.595774658188695 0 0 0
559 1 12.544709077794288 6.199850164146467 12.867383658025371 0 0 0
48 1 3.096347810489529 9.66553125979147 12.790068106907908 0 0 0
52 1 4.407058452477824 11.129206303266928 11.212164719833703 0 0 0
304 1 9.55304762927472 8.890686336134818 12.865725350428779 0 0 0
308 1 10.925468756413865 10.928478093756766 11.42858094285754 0 0 0
560 1 16.12131165559595 10.097036143595512 12.958212586063121 0 0 0
564 1 17.722199716862523 11.328965009280232 11.412368621782223 0 0 0
81 1 3.1171199422040177 12.625216826326007 9.634781349565687 0 0 0
83 1 1.2490912790562096 14.345954604559621 11.046394530789284 0 0 0
335 1 6.473211640237541 12.761041137062364 12.712242897249977 0 0 0
339 1 8.28248318063106 14.138908409660946 11.089219348883926 0 0 0
591 1 12.74518232589672 12.661201344076595 12.900385188437886 0 0 0
595 1 14.481674908456641 14.62940050531613 11.53402812984038 0 0 0
96 1 2.8246605308503865 16.137082193271077 0.0312747982752106 0 0 0
84 1 4.706642211279255 17.71384149351345 11.1747966295908 0 0 0
80 1 2.8630803913347243 15.890529474614617 12.642486534312257 0 0 0
340 1 10.86999056932103 17.459058302250302 11.267535696310318 0 0 0
336 1 9.601891550839436 15.64776725120067 13.093976897473329 0 0 0
592 1 16.083603335640817 16.21989650850418 13.187737358990566 0 0 0
596 1 17.665259462974138 17.5552826902721 11.343709239280907 0 0 0
115 1 2.077668369878989 20.720119099467006 10.845111289918746 0 0 0
367 1 6.245390834814085 19.522642216771974 12.74892423930712 0 0 0
371 1 8.109698757252893 20.82282087950815 11.455870957794664 0 0 0
623 1 12.593325713231565 19.156866016204322 12.824750560346857 0 0 0
627 1 14.436749817886058 20.66588610511599 11.507951181618525 0 0 0
112 1 3.1575847690883667 22.51684772838329 12.894888369963054 0 0 0
116 1 4.819424223679468 24.114560160658552 11.266384870248794 0 0 0
368 1 9.60119009767771 22.591229311452906 12.741921564167532 0 0 0
372 1 11.208597035856894 24.352424778682252 11.26885239002467 0 0 0
624 1 16.039666346055284 22.29868855154499 13.034904042712233 0 0 0
403 1 7.793039234372837 27.407890769495946 10.970436665611103 0 0 0
399 1 6.2697580477795976 25.950409040877034 12.522071691084804 0 0 0
655 1 13.118105540570863 25.630843645253638 12.772607290568555 0 0 0
628 1 17.84438157915953 24.00254227241068 11.288186540296858 0 0 0
147 1 1.1310205865256742 27.065950972640035 10.821693384693592 0 0 0
402 1 6.121211451589656 28.892741815021537 9.198778701769779 0 0 0
659 1 14.565759947110443 26.960260140839246 10.770729057069074 0 0 0
177 1 2.8981173969893774 31.975713210928564 9.000047903563997 0 0 0
148 1 4.608719849766674 30.39557668741227 10.978897088822738 0 0 0
433 1 9.556194071647894 31.90978058462807 9.677844017062094 0 0 0
404 1 11.236014353975948 30.4068652599911 11.194989440494888 0 0 0
660 1 17.368852102071322 30.44763988432786 10.904630169533801 0 0 0
179 1 1.3777540026753397 33.53816471057547 10.707652766247433 0 0 0
434 1 6.627370371538524 34.957596312243794 9.578167533405768 0 0 0
435 1 8.290895539650828 33.45395846363964 11.24166187395216 0 0 0
690 1 12.685070896624495 35.122964737859064 9.726802438139883 0 0 0
691 1 14.228590001514348 33.569792998774105 10.93468105106849 0 0 0
483 1 7.536327515597441 46.00330794897066 23.85882491145472 0 0 0
209 1 3.465583568283675 38.17808262326143 9.434715011715966 0 0 0
180 1 4.743784306354488 36.49254652166239 10.762006152890915 0 0 0
465 1 9.466136568426375 38.02042711212236 9.828450576222975 0 0 0
436 1 11.228865468108795 36.63940594705976 11.51714526371842 0 0 0
721 1 15.866002249919998 38.166043190615255 9.710744592602609 0 0 0
692 1 17.428930037505108 36.682050403140096 11.266171032728352 0 0 0
211 1 1.8712918904368232 39.99513431848608 11.138605001310106 0 0 0
466 1 6.206395361758415 41.27382955232903 9.86882977146798 0 0 0
467 1 7.757919464206601 39.595536182109285 11.451427465563482 0 0 0
722 1 12.580690439868354 40.9618740714335 9.442537755226066 0 0 0
723 1 14.442228918128825 40.165637373526025 11.22591808751237 0 0 0
241 1 3.310930585072524 44.72850280742419 9.48489261041213 0 0 0
212 1 4.599733156948803 43.09636927071922 11.519296139749267 0 0 0
468 1 10.761619956783564 42.72414733712712 11.055032281836517 0 0 0
753 1 15.510426603632581 44.733794931921494 9.613161548077473 0 0 0
724 1 17.49316554849962 43.25478727937305 10.951536964459159 0 0 0
243 1 1.593438598637534 46.15965690974839 11.181887377989968 0 0 0
499 1 8.395009711122416 46.36000207363739 11.458233096711814 0 0 0
496 1 9.768527315443423 47.657594579899026 13.212213102874237 0 0 0
754 1 12.367026277636816 48.139986693816724 9.343853180699952 0 0 0
755 1 14.00974936654205 46.54251604913128 11.256965726505538 0 0 0
752 1 16.25820127790063 47.75819076164052 12.674887041725029 0 0 0
58 1 0.2263859663596987 9.62416424251603 3.3319875664935137 0 0 0
244 1 5.236314976018771 49.176777587891166 11.578049316249324 0 0 0
273 1 9.935650676880085 0.20544839416172872 9.409935870210246 0 0 0
500 1 11.231077481617675 49.85842521627673 11.58080486572168 0 0 0
756 1 17.607506116266507 49.4645620189241 11.046352477321863 0 0 0
162 1 0.06690013126784178 35.097775091650675 22.198021357460487 0 0 0
247 1 -0.023516075575689438 44.501528622957636 6.360870925220307 0 0 0
9 1 3.3106943948907555 -0.009483363178034665 15.651620747768314 0 0 0
271 1 6.740649781220737 0.22418526664345534 12.868420510625258 0 0 0
13 1 4.685722388204516 1.645102274825171 13.928931433547906 0 0 0
272 1 9.462774805758691 2.9922884635048757 13.114146264104486 0 0 0
269 1 11.169185846085716 1.4050566151143131 14.46952819801923 0 0 0
521 1 16.332816303691576 -0.008514261163992454 15.650729303469301 0 0 0
525 1 17.651901556824825 1.729766316967516 14.049762704373556 0 0 0
14 1 1.4673575799212204 4.7767268073643905 14.1260930709334 0 0 0
266 1 5.940836082407337 3.239955955678223 15.80042183471531 0 0 0
270 1 7.692072062079313 4.937120091010767 14.855533455043261 0 0 0
526 1 14.088510966934704 4.589588835922417 14.3215709584161 0 0 0
528 1 15.809097792889245 3.008249688581016 12.634716106244158 0 0 0
45 1 4.71985746550935 8.098125693293671 14.20641735472024 0 0 0
297 1 9.692891324798113 6.492283346127802 16.17746571131484 0 0 0
301 1 11.23809467647035 7.879362837902 14.524697075550456 0 0 0
553 1 15.784612305675608 6.3832399880830435 15.81735147942482 0 0 0
557 1 17.46649476622385 7.904469847728154 14.251312804395065 0 0 0
106 1 0.23716458271880897 22.481426067975878 16.2647629757966 0 0 0
46 1 1.5441397834828892 11.357054762285255 14.288997470741826 0 0 0
298 1 5.988649274519395 9.746316911370458 15.888935003610555 0 0 0
302 1 7.837144972541709 10.725852533016335 14.211894217455777 0 0 0
554 1 12.90571173214528 9.477879474795108 16.163902558299146 0 0 0
558 1 14.44669056734602 11.466932960282687 14.779793000408382 0 0 0
77 1 4.906175681152467 14.485130833402904 14.272791604952536 0 0 0
329 1 9.661370403022273 12.457593675583931 15.671940913734417 0 0 0
333 1 11.334096519470549 14.334153729423806 14.628357143324418 0 0 0
585 1 16.109079855399038 13.527578164743115 15.983411222858454 0 0 0
589 1 17.986631308796266 14.632945963332908 14.117568090343248 0 0 0
78 1 1.5955203992677425 17.611496799125483 14.422303273821173 0 0 0
334 1 8.196521538483676 17.616049323654874 14.592182538241028 0 0 0
330 1 6.568449773182602 15.82659712697746 16.124471824834192 0 0 0
590 1 14.41542370069545 17.813575766312987 14.690750509556981 0 0 0
586 1 12.789325901956927 16.273592344928407 16.16162210049179 0 0 0
227 1 1.2769051528025528 46.14657418402824 24.053065237220046 0 0 0
105 1 3.283299041227636 19.288746015079184 16.103668744611937 0 0 0
109 1 4.5750704523641765 20.931821871959514 14.285680757473818 0 0 0
361 1 9.977169604542286 19.403491259280628 15.824323146779934 0 0 0
365 1 11.291254484311144 21.15226993292646 14.266308124987482 0 0 0
621 1 17.710976429660743 20.615503437844406 14.574844113319331 0 0 0
617 1 15.985531670022638 19.32766028043995 16.363295198644867 0 0 0
234 1 -0.02747224460260611 47.909332359095814 15.699089004519765 0 0 0
110 1 1.4232775782459341 24.09977005155691 14.245007351337184 0 0 0
362 1 6.3706335300485 22.547893205809334 15.74979841778468 0 0 0
366 1 7.9848164114896605 24.422588822869837 14.171708685585946 0 0 0
618 1 12.727425332077347 22.39039124903216 15.983678132733097 0 0 0
242 1 0.22663901371366096 47.74522547009711 9.544368087922358 0 0 0
137 1 2.784648057586771 25.51878154984807 15.948447941447636 0 0 0
393 1 9.402409211534776 25.615731163667338 15.950031999123137 0 0 0
397 1 10.946438187759291 27.295980904914256 14.113556176338736 0 0 0
622 1 14.698635643631258 24.064565338172592 14.679569256222427 0 0 0
649 1 16.09834575221363 25.793304507504615 16.222816314949597 0 0 0
144 1 2.913805575185991 28.5286075206622 12.262468371317214 0 0 0
141 1 4.75485420479018 27.305795687485972 14.200019069882538 0 0 0
394 1 6.169020168910718 28.765962548544504 16.00810521122406 0 0 0
400 1 9.339608632241308 28.91731375438325 12.674935657767431 0 0 0
650 1 12.528850575488942 28.911014359913448 16.09076413303465 0 0 0
656 1 15.581269890914182 28.86347499010721 12.703540466891507 0 0 0
653 1 17.378871073572416 27.383351321237814 14.306839499706559 0 0 0
142 1 1.8374106204213707 30.34238396476522 14.000770934456616 0 0 0
431 1 6.264431733191626 31.880269086342317 12.487061013634065 0 0 0
398 1 7.763232958357335 30.29889575932714 14.264688022269073 0 0 0
687 1 13.226247083381564 31.9694185421593 12.6375434461185 0 0 0
654 1 14.147292917072315 30.383407024342024 14.649986789272212 0 0 0
896 1 3.117974867675194 22.648848495361946 25.268217990534914 0 0 0