LAMMPS data file via write_data, version 29 Oct 2020, timestep = 200000

4608 atoms
1 atom types

-0.11169793240929593 53.51169793240585 xlo xhi
-0.31521164163315873 51.22233164163192 ylo yhi
-0.31521164163315873 51.22233164163192 zlo zhi

Masses

1 18.015

Atoms # atomic

629 1 3.2817575916730064 47.935093483810306 3.2088803320677357 -1 0 0
1577 1 2.2999296918616277 0.5231909168929724 3.012404945176988 0 0 0
4076 1 5.04455952260546 -0.2497185830161604 1.7601141234919888 0 0 1
1876 1 8.384453980220243 1.6713230981359235 0.7598579283754683 0 0 1
3283 1 1.8169286865442382 2.4762087962680077 22.05017720269453 2 2 0
4126 1 0.4015444526363625 30.50988711028968 8.288538253068847 0 1 0
1550 1 3.632355974959574 43.63283893929375 23.689225342013184 1 0 1
2703 1 6.337333148146626 49.08934069504154 -0.056707217661674636 1 0 1
784 1 10.509686279967987 3.3827709750109904 4.693294522859723 -1 0 1
250 1 7.020599072225678 49.401920811922906 23.924147489880955 0 -1 -1
2917 1 0.38519583261053153 4.5267975553733635 0.553846971935932 1 0 0
3052 1 1.9587867114244384 7.665362639681782 3.848693354605021 0 0 -1
705 1 4.329047488571399 10.74135441812803 5.037512316400537 0 1 0
1116 1 0.8086913478388092 6.886401712895437 10.725263194133637 0 0 0
4220 1 2.6925782591766185 24.58669525901713 23.839817416225685 1 0 0
1646 1 13.71782764867801 7.861107708303974 1.552906301191232 0 0 -1
4515 1 16.964180891442293 8.127751654501262 2.510836056542019 0 1 0
1225 1 5.403499947664782 15.374240380303307 1.8974039952267487 0 1 0
457 1 5.886254714214019 9.261903171757314 2.774479565720316 0 1 0
3604 1 2.3589121242806863 22.500352332182644 1.6802313881373916 1 0 -1
2371 1 11.230239989474578 7.736547846194242 2.930253122011396 1 1 1
1158 1 13.335996687684819 10.739007981951898 1.596980732861659 -1 0 0
2432 1 -0.09383203834232745 28.906715568716255 12.268815354427211 0 -1 0
1892 1 2.6179453835315583 26.052605540115863 5.798283284738495 0 -1 -1
2411 1 1.700316642387526 31.36974333015619 14.522936711944906 1 0 0
4389 1 11.190926881634532 12.942933899455365 2.8901484581879293 1 0 0
52 1 13.80180981910353 13.846067899768634 1.4519598298387661 1 0 1
287 1 3.0399337006330542 14.958854444007972 1.0020013435536435 0 2 0
3576 1 0.3199804925646234 13.127127750623034 17.36595682118055 1 -1 0
2980 1 8.221015051297075 16.250954383677747 0.9296669549646888 0 0 1
1949 1 17.414060288982082 30.80926982278081 19.97014200082052 0 -1 0
1288 1 -0.07895393779029972 0.1819446178371385 1.4543830698922233 0 0 1
3572 1 1.8275409394514524 47.13376504967778 13.137953445471513 1 0 0
2737 1 1.2467074533367013 29.316171329338985 0.01536778381216275 0 0 2
4324 1 2.1624483035355078 17.830170016734947 19.020031546417215 1 1 0
3018 1 7.405844832862014 20.280618001241965 1.2065761518340323 0 1 1
3591 1 11.217240351209782 1.1936215108688064 1.2290398398378597 1 -1 0
3400 1 11.685522893889377 41.327415190664325 24.63080072043172 1 0 -1
4037 1 1.0236600112461687 15.619493389740738 22.94386075469599 1 0 0
837 1 17.00144749913045 18.450308100377377 2.063939830772744 -1 0 0
2345 1 0.3848118205059404 22.665626099392107 23.76992318796367 1 0 1
2832 1 16.579514054795204 5.326964120719906 2.187392651386459 0 0 1
358 1 9.655575586420637 21.98204294521016 0.9312748583766806 0 -1 0
4326 1 12.281069858624567 24.959156864898933 2.8806295948077483 1 -1 0
797 1 17.72176723367695 47.9236263851967 6.277250422906328 0 0 0
4516 1 16.93750843997738 20.97700877420561 0.9502760055576196 0 -1 1
1395 1 3.4224004469847316 24.994748585688676 3.0240313631700158 -2 0 0
3462 1 10.248295736661422 26.826914752674814 1.9312096190744814 1 0 0
1465 1 8.826709639790721 9.692148043673269 -0.2616959630423561 0 0 0
1576 1 15.68009735480609 27.326119762388764 4.450769613000394 0 0 0
171 1 15.167198032573015 42.93775619440562 11.551045029199049 0 -1 0
3224 1 5.435010251244562 25.10706107011027 1.078485542518297 1 1 0
93 1 8.253235367621842 30.38357067780523 1.8122532758622567 0 1 1
3668 1 9.961251549268406 29.269085384809426 -0.12825586349373008 -1 -1 0
3390 1 14.574735284962914 31.525991793207115 3.0092359789962377 0 0 0
2470 1 2.0676457000713846 34.71166470551805 0.8862262013511351 0 -1 0
879 1 5.424556021025837 32.56449223183907 2.5472116409999797 0 -1 0
595 1 0.7128145033619531 4.84693699587208 3.4507354576764753 0 1 0
1285 1 14.662043898453627 36.082144978328756 3.2589923941334873 1 0 0
4535 1 15.374951691117326 25.93464973836043 25.00538611778381 1 0 0
2611 1 8.203116561290571 37.70836395619608 0.43147241433603734 1 -1 1
2844 1 3.4293614806489345 0.2260226745326016 24.409428399640163 1 1 1
997 1 4.48204791284752 36.02453749821791 0.2274415123612762 0 1 0
1867 1 6.7903942604996494 34.57504590757411 3.9284940362289404 0 0 0
663 1 17.623121777182458 12.477232908117427 3.2623197257981413 1 0 0
3915 1 12.646439266329871 35.78822959613795 5.9477065110852125 1 0 1
4022 1 11.635574171791982 37.03256094116395 3.732910705302695 0 0 0
3035 1 7.453995069802479 32.385145484869895 0.05867223587747844 0 0 1
1636 1 17.129905183647708 36.47137939970503 21.38261725280498 0 -1 -1
2217 1 0.08268340747740585 43.36165480370819 3.6090712299968817 0 0 2
4577 1 2.835895067398906 2.7541468824462867 -0.26869544316944904 2 -1 1
788 1 6.362225231893419 18.104125348216524 -0.2679639910218888 0 1 1
631 1 17.39527435410318 32.17971499756794 -0.25487456647060663 0 1 1
594 1 13.141053984654038 39.44160166336093 2.6513455574036344 0 -1 0
4251 1 0.8075762282954151 26.472021281179018 10.629455105922354 1 0 2
4227 1 15.034662354137524 43.67825236916566 1.991477227495901 2 0 0
3646 1 2.3768364216130307 14.614320778926638 3.5925241138502515 1 0 -1
3280 1 8.57804461827266 40.24824891019668 2.1467361801497558 1 0 -1
4505 1 0.5619704997082663 31.51597265260977 3.945620832796868 0 -1 1
2291 1 9.96547609169056 45.56071638347349 4.102239441161992 1 0 2
2468 1 2.4071924318332476 18.58528914485664 23.938526619899324 0 1 0
1896 1 17.047643671030244 22.553755828380925 18.500913384166616 0 0 0
2048 1 6.229230160968205 41.98406703013232 1.5899677503613667 1 0 1
3796 1 6.8070347783253915 11.285136781361086 1.024933139050854 0 0 0
61 1 10.771585990082967 38.80174155175189 25.099197713771144 1 0 1
3756 1 7.468577586087752 44.89473407204683 -0.20727423383289703 0 0 1
3143 1 4.8394535244796835 3.737532266135876 25.267322008510373 1 2 -1
566 1 15.192964913074611 48.950929967110085 0.48621521541985024 -1 -1 0
3897 1 6.3401336024688195 46.854424462466866 5.93732511299028 1 -1 2
1198 1 14.150589970417483 17.21867119035067 24.606275916215015 -1 -1 0
3223 1 11.246946134081364 45.692981169744414 1.4396963490778958 1 -1 0
4379 1 2.5686303385373686 43.20777172357516 9.917346674514484 2 -1 0
942 1 0.16828481709215343 27.642765734781868 16.86715953213811 0 -1 1
4114 1 14.079519616167886 12.920576255295686 25.108547893126428 0 1 2
1135 1 -0.08315158423945988 37.74830160959807 8.701647635159299 1 0 0
1488 1 6.325858269585261 48.026472242628984 3.253037714665236 1 0 1
1469 1 15.45279307472461 4.681316217267553 10.251488260717414 0 1 1
2958 1 14.459244772915838 0.1481831627234152 2.2335646605094075 1 1 1
116 1 7.948474991065742 50.66113072805349 2.44462036321525 0 1 1
2376 1 16.441639866679203 35.10459074852058 -0.016853497302063036 0 0 1
1806 1 1.1572965660376404 40.68875750134872 0.2767725805955725 0 0 1
4529 1 2.90214510906095 3.0884606975744826 2.6357090303899895 1 1 1
1334 1 10.300461931601056 0.0903927853816377 3.5871388115084413 0 1 1
1016 1 15.546106828867917 29.25224935653819 25.139392683386856 -1 0 0
1438 1 5.7663877749101955 45.01419262937681 22.944221367499075 1 -1 0
1456 1 1.8292520734483104 3.6249606717254785 5.998882196969494 0 0 0
2240 1 4.595393956892429 3.652715289010189 5.51636757301638 1 1 1
1179 1 4.605577108971157 6.01090292504201 3.8178180126535626 0 0 1
2417 1 6.448982761929487 50.693018784245965 7.527435668707819 0 -1 1
3343 1 13.56704817272093 2.6523910908457085 2.598936881145661 0 1 0
2130 1 12.175009731772201 8.333684746528158 5.377842495357566 0 0 -1
1970 1 3.1488852776415137 7.982377141448488 6.118402170280426 0 0 1
1170 1 9.3896144082976 5.647766988852346 3.3232047012131694 -1 1 1
1144 1 7.260852215862557 6.683959427302407 4.988332520247872 0 0 0
1023 1 10.8072902604784 6.997818250553918 7.505117638102221 -1 0 1
4567 1 15.548763763512545 10.360327638834017 3.177843136748741 1 0 1
37 1 11.9500342394507 2.239133373560246 25.078053434428522 0 0 -1
4585 1 15.496900750973378 3.575264222392475 4.025450413158321 2 1 1
1635 1 8.61659678679798 9.014415718569092 4.252361006423082 2 1 1
1534 1 8.40739260368201 12.963380417635028 6.714815727706635 0 -1 -1
3422 1 16.455284598156247 29.25802371247107 2.318282406468862 0 0 1
682 1 3.629434653075399 17.892988604871167 0.5992559414752406 0 -1 0
170 1 15.989333752077435 40.57230052424751 24.594393105446798 0 -1 -1
1074 1 8.37651964662784 13.462837729411286 1.9347889117271038 1 1 1
1831 1 4.675530742120472 17.70657641184938 3.275422572813518 0 -1 0
278 1 10.344157917174016 10.25551376346133 1.9984133629750462 0 1 -1
2169 1 12.104607204459597 12.534824127972923 5.723198071567456 -1 1 0
228 1 15.06631320539151 16.835448608266752 1.2788775431939172 0 0 -1
3860 1 4.403966659534234 20.884493836501335 1.4691599936782276 1 -1 1
2035 1 0.40348107007143696 25.714292363284642 2.470985341802967 1 0 1
3185 1 7.5453788070773244 17.976641790592897 3.2757617467919706 1 1 1
3837 1 12.791870996810314 18.473907549448064 2.3298150401559843 0 1 1
3873 1 15.503609469608142 14.569127237721084 3.3270050840550267 1 -1 1
33 1 0.437976871746649 21.86244267012517 3.888583413728301 0 0 1
1276 1 8.458887024755633 24.807827336125317 0.6053143154365641 0 0 1
2132 1 11.205213440258452 21.230115103573784 3.1765132490819754 -1 0 0
3602 1 15.988011244826371 18.527293324417887 4.85491173359761 0 1 0
131 1 5.540431659032105 23.298868260824296 4.527880021297602 0 -1 -1
1333 1 2.8978986724633375 22.431095768556297 7.293740259986881 0 0 0
468 1 7.8009085431928735 25.02205147385533 3.4701163570290183 -1 0 0
4430 1 9.865384224102476 20.18785567104154 7.436042226513555 1 1 1
3476 1 5.843491667641098 22.15178790647116 7.8567655895495 0 1 1
3415 1 14.816019176198568 22.272983566141583 4.13034783815944 0 -1 1
2777 1 13.5924066402259 20.277937564657332 4.893267678236363 1 1 1
3259 1 15.561075083672652 46.32698640917522 20.642670460149827 0 0 0
836 1 4.284289511408059 27.57222345899115 3.240564477953604 0 1 0
918 1 7.565836333343515 24.30494519657317 23.889051677494844 1 0 0
3868 1 12.958031226217972 26.265973509506896 5.069282932336229 0 0 1
2536 1 15.535552932102696 28.632322552758737 7.119422584596359 1 0 0
435 1 15.817028726247187 26.536258799571634 9.328876252302512 -1 0 0
2079 1 9.826126868750311 27.01143584379523 4.92839026599101 0 1 0
3544 1 2.649505462114283 29.80633884872371 2.7299471297468267 1 -1 -1
3624 1 9.184188298176393 32.9304347523323 10.461434393204943 0 -1 0
844 1 9.5495377379414 31.891969323012685 3.7834812505204756 -1 -1 1
737 1 16.800423391422402 32.89840125196733 3.8765662278383193 0 0 0
2375 1 16.296723687535764 4.6608551689210636 12.860640936630647 1 0 0
3087 1 2.1659086348685834 31.65256653479589 6.084584490051276 0 -1 1
685 1 4.829063934116482 31.172913342727814 5.115358832803695 -1 0 -1
2028 1 7.361265828427158 29.29933143133446 4.513008257813359 -1 -1 0
1426 1 10.592527588837855 29.467819961048583 6.910279859071294 0 1 1
3205 1 11.294940371775688 29.382955368925746 2.9372150174266265 2 0 1
4277 1 0.7392943663668646 34.319386068228226 3.3665943855598424 0 0 0
4174 1 2.780298341348723 34.27033167981817 6.145379390841208 1 0 0
913 1 8.28037185139395 31.052102849828852 6.397021726017522 1 1 0
4305 1 13.371173013243958 31.557832113646718 7.068731617148258 0 -1 2
3781 1 16.628746369799067 6.414468582029503 15.426667487300554 0 0 0
1473 1 2.3895859513840962 36.583010844519805 4.941337833649174 0 0 1
2542 1 4.510972757971337 36.644404759561965 3.078336289180449 0 -1 0
2114 1 10.945500349329523 39.330605814044475 5.231981835930172 0 0 1
1738 1 10.315771368199963 41.623819181737645 3.6962033111762285 -1 0 0
382 1 15.50455285023306 38.913720687423506 4.1143209281879916 0 0 0
178 1 5.329135638108073 20.410676768437607 23.53030311310706 0 0 -1
1245 1 2.604145835228953 41.22483268901624 5.866339742693146 0 -1 0
2118 1 4.461199469913805 39.54355308157514 1.7218107496227661 0 -3 0
1060 1 4.065987165674523 39.00526548982839 5.9821217381451826 0 0 -1
424 1 12.08204972558133 43.68182211983465 3.412548088363156 0 1 1
3261 1 6.934160528715016 44.583020785254675 7.02691044397408 1 1 1
2153 1 5.914678021394225 43.162926497906184 3.9523639286696852 1 0 1
3607 1 8.926502236034423 42.959243778538465 5.9909771696745695 1 0 -1
1379 1 10.874924956299974 45.57267676276638 6.98822665278786 0 0 1
4238 1 15.129291431099121 46.259818595753046 3.7218880702433204 2 0 1
3421 1 14.860414263198592 8.508277349334433 20.352131410428328 1 0 0
1421 1 3.139888537202816 43.48929836557207 3.8947205158842717 0 0 0
1645 1 5.318046632827865 48.20813302312335 8.242158560157856 1 -1 0
2008 1 12.636422287285594 49.97600910890269 3.6114141477800463 0 1 0
2609 1 7.697419512091065 45.359453582885635 2.478087009296889 0 -1 1
4500 1 13.260819885451689 47.592839820999714 2.0544036399403884 0 0 1
4240 1 16.253691674761797 43.81025876026732 7.819807928846432 0 -1 0
3622 1 3.565238257702587 46.03868927269811 5.781067406530248 1 0 0
1881 1 2.746785650381957 48.09041244051082 8.906964466617085 0 -1 1
1066 1 8.94586913078238 48.01894377435053 1.5065308239921638 1 -1 0
760 1 7.807777234626836 49.7950970908761 5.328363396786684 -1 -1 0
3022 1 8.41992796329319 1.4857540849278155 5.504935211938736 1 2 1
1459 1 16.271795522355653 0.9984384573797829 4.51479209136633 1 0 0
2344 1 17.408874643207586 3.401130161327503 24.330380910405463 0 1 1
1216 1 5.649561112639901 49.768979702615695 12.775994837610742 1 0 2
2510 1 6.203949794778651 2.2692932224227844 7.450155673201345 0 1 1
891 1 8.561263824725142 0.3711450214648996 12.20274518784028 -1 1 0
2551 1 16.33811316679263 48.977880352671164 22.246613730841272 0 -1 0
141 1 0.6227768636302801 4.306579075290426 13.778239906713964 0 0 0
1390 1 4.659194481034763 2.3792660031101676 10.088973442355034 0 1 0
2294 1 4.889748923103113 5.99034414568131 7.512359676243751 1 -1 0
1130 1 8.73319631438302 50.647687682315976 9.463865656742424 0 0 2
561 1 11.434181302445607 4.123541556735233 7.3658450890215885 -1 0 0
1987 1 0.8438533568725102 28.229271003142685 4.106786709619611 1 1 0
984 1 1.1285392955242917 4.283637929668628 8.60878140575769 -1 2 1
2951 1 8.150373822721015 6.371894075693437 7.684537275915345 -1 0 1
824 1 14.099201164015986 4.726913924264157 6.268134689088298 0 0 1
2421 1 14.915757023649801 8.648493470866246 11.305239219343294 0 2 1
1292 1 2.8093633242843863 10.533678584301999 1.1969233748642827 0 1 2
1387 1 4.531985347480022 13.601942546866956 5.155382224401066 -1 2 1
3369 1 10.011146337614468 10.431566591917765 6.323249144406446 1 0 -1
2887 1 13.980463863657613 10.532496490136916 5.52723616186325 0 0 0
3293 1 16.480334535325117 8.348389517014475 8.829077864311408 0 0 0
1798 1 0.863860436381975 18.724499430713 12.462208955203685 0 0 0
2261 1 2.1126545871936426 14.783869886986475 7.0313341370550155 1 1 0
1280 1 7.176885499355583 14.09515728054818 4.356166610610218 -1 0 1
416 1 10.307723460795037 14.429004848863027 7.598990186700279 0 0 0
2847 1 17.595397276814346 -0.10395342432751925 8.936865144495513 1 1 0
2602 1 17.302334170805366 12.70791913760927 7.187270173183344 -1 -1 0
320 1 8.336709233262376 16.511424537930345 5.348632112267888 0 1 -1
883 1 10.442408949226994 19.163420704906677 4.949081367807064 1 1 1
3418 1 11.130830731375676 15.525880306949329 1.003624154794393 2 0 -1
4498 1 10.963565189860713 16.53581420352198 3.7866578938035245 2 0 1
3737 1 14.767810949354033 16.54395001677124 6.7564743021568585 0 1 0
1396 1 2.1702191877732564 17.06962995512367 4.8044544862631495 1 0 1
1136 1 7.102147111826998 20.441551999204158 6.107912004577943 0 0 0
492 1 4.710536493181942 20.45961495310347 4.108313037982042 0 0 0
1889 1 16.933234876459302 39.394912281923496 21.28284763031574 0 -1 0
4051 1 1.4597034285866397 1.7390934679134267 9.734078765927379 1 1 0
1922 1 6.414537093134768 24.987134166910838 6.823469044054929 0 0 0
1927 1 8.880490775445923 26.15772811154287 7.458832757167307 0 0 1
2684 1 7.6710792684140605 22.351610771939765 9.921615000535681 0 0 1
809 1 15.117310450281837 24.38808382019434 6.133203095456331 0 0 1
4428 1 5.698084347870449 27.514410493581863 5.970828780476836 0 -2 -1
1725 1 10.296284857182593 23.92330748059221 4.248332611114318 0 -1 -1
3704 1 12.596560119875964 28.599304180517187 8.493805211624158 0 0 0
2436 1 13.98367865807783 23.083425668449813 1.6877801211360537 0 0 2
3785 1 0.942889246301224 27.893459611636217 6.859370442540453 1 0 1
4014 1 4.782753603839922 29.44189833181026 7.775198028730479 0 -1 0
4084 1 9.161450818867397 28.481391159625637 9.310561279196103 0 0 0
1999 1 11.139386909777956 24.283126305295664 6.905243584680221 1 -3 0
3382 1 9.798028729170579 24.061272628045852 9.883435872165057 0 0 0
3695 1 13.37994102893241 29.428898159318393 4.975652667695797 0 0 0
169 1 15.091224765554529 42.58198696094702 5.620744129558346 0 0 0
3895 1 7.006062340030317 30.28922616489336 9.35762742328176 1 1 0
1375 1 6.897142629295256 32.95882594935554 9.19873981136651 -1 2 0
2427 1 14.590005521843734 33.760528733617875 5.67276656658373 0 0 1
4058 1 4.323980499668927 12.548134236052562 0.22627762050514633 1 1 2
1677 1 5.800886317218299 33.51313981432824 6.5649312021350354 0 0 -1
793 1 10.930883604045075 31.80895957310177 8.529564647825731 0 0 2
1244 1 15.486422722691653 34.86619536841623 8.424483500562667 0 0 1
870 1 5.895126406136066 36.57581276173738 6.56725686283342 0 0 0
2555 1 2.7967050182761555 36.57752831014821 9.883404901925614 1 -1 1
2843 1 6.576315946243351 38.252337256399755 8.729964838288524 0 -1 1
4350 1 8.894466645375253 36.39575412892353 6.309998341145492 0 0 0
1316 1 12.252160417543836 41.548438016864864 6.286799378411389 0 -1 1
1770 1 14.261166388693626 37.38592114887038 7.899671792593054 0 -1 0
1284 1 14.830024400359124 39.89659723961857 6.854777438106172 1 -1 1
4157 1 17.55202585551407 -0.042706190292977286 11.619389618995013 0 -1 1
1742 1 3.5530440876650045 39.21446498145325 8.830323365047404 1 -2 -1
3380 1 6.433029922847791 38.61042977480102 3.8680139077472138 1 0 -1
1055 1 9.316730601720167 41.16386242777732 9.926124353189904 0 0 1
507 1 1.8243038632868671 10.689748572761793 3.5800876654525733 1 0 0
364 1 0.35663294948684754 5.2222500866120605 20.910501849476795 0 0 1
1419 1 4.964748131887603 45.89880018165448 11.168634942629405 0 0 1
3791 1 -0.07119555275148343 40.45327900455055 7.020002903295457 1 -1 0
1647 1 10.883527226387393 42.54475009168593 8.272734148732765 0 0 1
1556 1 13.417803835477057 44.87485321300103 5.497947437722319 0 0 0
2015 1 4.4286098905652365 43.09438401566068 7.205026598210286 1 1 -1
2946 1 1.7218584781605055 44.92382340072267 7.612976884199503 1 0 1
2898 1 8.689493172105843 46.90870663645114 8.487812396475306 1 -1 1
3059 1 9.550750924602987 48.53207324181352 12.222582949373408 0 0 0
2770 1 15.091547340401414 46.61985509893567 7.112814174743613 0 0 1
2447 1 14.125034354282217 31.55290363942592 -0.2260783069171316 0 0 0
473 1 3.5083334314903136 50.14703705218855 5.019023997437512 -1 -2 0
1942 1 10.533194216835957 48.26436401264867 5.225619649047917 1 0 0
2149 1 14.478982908243848 0.2935144349648702 8.531483809889902 0 0 1
421 1 14.696147121156738 50.74406565648991 5.897375613560207 0 1 -1
996 1 17.426086331475116 36.45043798639796 3.84975056143724 -1 0 1
1289 1 3.5939858372576583 47.10308075664105 0.4924876641973146 0 0 1
599 1 1.034077691314196 43.18629983241604 16.80740619410913 1 -1 0
1321 1 3.344216191003744 1.5011928230784097 14.283751283492139 -1 0 1
4205 1 9.279703657256096 2.827986073434042 13.364801057594036 1 0 0
1611 1 11.615660562866848 2.3013549099983246 9.888662115201452 -1 1 1
551 1 14.44769235661513 3.0515374458260074 8.531316179244975 -1 2 0
3823 1 17.181434189524 24.11174315314982 9.45955684151019 1 0 1
398 1 6.190094995154293 3.301241398065141 14.99870481536311 0 -1 -1
3923 1 7.75294517465571 4.227154032422051 9.425997625750494 1 1 0
393 1 9.363072659093026 1.99314902272123 8.576644686771582 0 1 0
850 1 14.613975158225745 7.4232925001421295 7.047522766794689 0 1 0
3134 1 2.7331420405071056 5.458468925267191 12.594846874685452 0 0 0
1129 1 3.7980055416690024 4.965867681396608 10.027222231246236 0 -1 2
2774 1 11.996692444296075 9.127860062571411 10.916497288005516 1 0 1
1599 1 6.947533854594873 9.029929561154502 10.711763196206105 0 0 1
2135 1 14.209114897075882 8.61987267092958 14.105061885679433 0 1 0
3506 1 2.453289291065058 11.549922238237626 10.036805648685405 1 0 0
3601 1 8.043381860838053 6.918942531038508 12.4869459259869 1 0 0
2693 1 4.598338115979563 8.21331328973298 9.822182809030156 0 0 1
782 1 8.777386667897273 10.37090524431018 13.16725727114641 0 0 0
1080 1 11.449751729377947 9.521577087866655 13.852179136340636 -1 0 1
763 1 2.486452096865492 16.537500266431454 10.823410458477335 1 0 0
1544 1 8.394130905000416 4.701697928847285 0.8947570194696697 1 0 0
264 1 4.118494877413679 10.280414698855036 8.022997128754552 -1 0 0
405 1 9.440500498364642 11.320268761235646 10.587785015371837 -1 1 0
3891 1 10.264308191808512 9.431270283193447 8.764250732860907 -1 -2 1
587 1 1.9958400609310787 50.76632427109031 7.566074776472958 1 -2 0
3078 1 4.433872366276911 13.231557062987278 7.852755776428442 1 0 0
1002 1 6.975049349959731 13.028677266465927 9.310142046883156 -1 1 1
1173 1 7.391909373880423 12.633952696697525 14.075616671464283 0 1 1
277 1 13.807641275583606 15.709816051414716 9.97848172378767 1 1 0
2855 1 12.133620796451728 16.47213432311575 6.2678672131679 0 1 0
184 1 9.253334535432902 14.965899753933236 10.251512301822878 1 0 0
3231 1 14.449295837724527 14.001390987072785 5.8842697346103 0 1 -1
304 1 0.6983182769042844 0.9252636164274888 5.326693845797009 -1 1 0
4345 1 2.423802366729923 20.044338843201135 5.480143636605477 0 0 1
3451 1 5.77705717699875 17.606516022598402 9.823908597037153 1 0 1
4384 1 10.669918650521137 17.792834748132787 8.13140274704619 1 0 0
1322 1 12.790823902315383 19.26288836686102 10.272549530814803 0 1 0
3515 1 7.43455150949176 18.047416700605048 7.52213840368391 0 1 0
1579 1 15.072406604756823 19.391694287762004 8.464753508635221 0 -1 1
3460 1 8.273422933258237 46.879303126859014 23.687695224914577 1 0 0
1086 1 3.4852572463592395 19.970918394938558 8.613206963124465 0 0 0
2739 1 12.435134597991906 21.823336789541525 7.173345240947086 0 -1 1
3251 1 5.98766504594302 19.895949505542227 11.550124442387185 0 1 -1
2797 1 13.316535158571547 25.489262256903416 8.65945476130234 0 0 1
3872 1 0.03616657007480917 15.714430529689015 12.804521556525351 1 1 1
1802 1 3.8022142507911667 24.8149434906357 8.44959298512556 0 1 0
3715 1 13.636227616400387 23.424355624665665 10.289729193365595 0 0 0
1693 1 1.7633001848426901 40.383699447709986 3.0641761783654777 1 0 2
2543 1 0.8480181183364487 8.216293520358942 20.433892835696824 0 0 0
3682 1 16.463959043298416 22.385717102573565 11.477842157377584 1 0 0
4371 1 2.875078236784573 27.738945850490435 8.744894792879759 1 1 0
3736 1 5.589548815031669 29.277494714463717 12.016767820540242 1 0 0
754 1 5.758767110371715 24.51281528959878 10.48124128133481 0 0 0
780 1 5.459932722407544 23.756322417775905 13.114673014746677 1 0 0
2086 1 13.58036913649721 28.131063732703332 11.959168132980146 -1 0 0
2216 1 15.24925132464683 4.012077363164755 0.34256263059662684 0 -1 -1
890 1 17.305480828034398 41.18052176766801 7.859281616452375 0 0 0
2282 1 2.858977089923516 28.287788691215926 11.809258928237398 0 0 0
432 1 8.687133175175283 32.14181836503248 15.16790213887464 0 0 0
4593 1 10.436163306045563 32.52520761566319 12.964382867100332 0 0 1
1451 1 12.533783530965446 30.61352913328523 10.58584574830352 0 -1 0
3746 1 10.954618718838844 26.764615727796162 11.015029834917945 0 0 1
2571 1 15.386750168970874 31.19211306250196 10.462960083958517 0 1 0
3729 1 16.658999461254957 29.211203672470887 -0.26571843652755217 -1 1 0
2632 1 1.9784583941306795 31.135467271116212 11.690873569550803 0 0 1
4336 1 4.445199810983838 32.3516269027609 12.30696236980906 0 0 0
3132 1 10.792181263547379 34.73667062337056 7.451723125339523 -1 0 0
3246 1 13.43660466938386 35.40941969227548 10.970989389649533 0 0 1
41 1 12.919314309599557 38.00122695641171 13.39004226231469 0 -1 -1
4141 1 15.948676437601147 33.70441050194168 11.068105792494118 0 2 0
4215 1 15.985276386729428 48.612820426113075 4.2934250655692425 1 -1 0
2502 1 15.142125807344835 48.05244723277204 24.93319534693694 0 0 1
4525 1 5.023737434758934 34.63261061253354 10.81433671958261 0 -1 0
2268 1 9.499830494885572 38.516330419112435 7.710689416377409 0 0 1
722 1 11.831957225026734 41.92843234188162 11.590191829287843 0 -1 -1
3769 1 15.672409958780685 37.6373328302647 10.55955216782035 0 0 -1
3496 1 15.014665539902484 19.96721626789913 25.07491975102794 0 0 0
4319 1 1.1834940597188628 40.87702846125076 9.23307349590684 0 -1 0
2644 1 6.474649143433727 40.81661710102473 5.628790285555858 2 0 1
2655 1 11.772063638082868 37.6186455161527 9.47607171327764 0 -1 0
3150 1 13.606227550266333 43.7912946660132 9.403017904648005 0 0 0
3633 1 2.87412737069072 44.00774364882136 14.695173149720839 0 0 1
2373 1 1.2625543705948932 41.47885647439891 13.953797840427908 0 -1 1
2986 1 5.139885484410687 42.450943780460065 10.211980504478907 1 0 1
1412 1 4.640825244525959 39.77038492021083 11.244684810998017 1 0 1
4264 1 6.81517822849027 41.01022477277564 8.451750780286881 2 0 0
1314 1 8.55610281816181 43.31843595379725 11.296335158577302 0 0 -1
4279 1 15.934868015165275 44.26220335091929 15.96552628450777 1 -1 0
1716 1 12.78358245255528 46.505119945480445 9.56962666644027 0 0 0
312 1 7.538597718261955 43.52546705102394 14.191737792286387 -1 0 -1
3887 1 6.88374420405254 44.7757421873649 9.962801151046744 1 -1 1
1185 1 9.62248783734836 45.50924466026541 14.189009525742483 0 -1 1
2316 1 12.6437010710448 48.56893746151539 7.008883100527952 -1 -1 -1
493 1 15.48713909381238 47.12959319003126 10.00581792026839 0 -1 -1
1759 1 0.2527515954318399 32.822671412553404 9.971703017239928 1 0 0
1072 1 3.4353958289941153 48.64971854908332 11.440433741440732 0 -1 1
4189 1 5.883447155949129 1.7301063492564537 12.452963049403714 1 1 0
4315 1 7.043475307035864 48.2397749203234 10.797125582097587 2 1 1
4276 1 10.912097824659515 48.78270435250337 9.264928780835632 1 -2 0
2950 1 12.024806766847423 2.6996774085852606 12.48967697775116 0 1 1
3267 1 1.1980608418544956 1.6960515290436686 12.699574180814333 2 1 0
1022 1 3.4318633480310767 3.8060976364217565 15.863479071444939 1 0 -1
2948 1 9.082636907734441 1.6698963887202152 15.898263054553095 1 0 1
2194 1 10.812983222595108 6.576532149239095 11.551833565112753 0 1 -1
1047 1 4.6537821115603 37.19886118584047 23.306188897822004 1 0 0
3748 1 9.430945724771512 1.9861046012813954 24.03883766994579 1 1 -1
4043 1 0.9359202221604432 5.8413411754409585 16.21097807144466 1 1 0
2270 1 7.393887342931514 4.132018729946586 11.982277888142802 -1 1 1
3051 1 8.122466363843495 8.04834500789683 14.967249130600765 1 1 0
1721 1 10.811999060193134 7.655962432059037 15.911598407837392 0 1 0
216 1 14.159626638850364 3.7570213697774957 14.33656601191137 0 0 0
3071 1 16.05628712104857 4.2217316116350805 21.81930410497603 1 1 1
1146 1 0.19066462900806536 12.758652119644916 22.90672449922124 0 0 0
2905 1 12.898038406854345 46.492114780601284 23.58070607229391 0 0 0
1290 1 17.610831589504986 23.251380230578125 6.341320478420738 1 0 0
3168 1 2.3746930155291373 9.209067848604773 11.655814873424053 0 0 -1
1877 1 4.020723322723106 11.83120108023935 13.621915330030577 0 1 0
427 1 12.360610397807408 6.092417641159056 13.90018773725196 0 1 0
2109 1 16.35706877932601 9.46587541107961 16.49099131904791 0 0 0
1383 1 6.1673129056257014 11.651892746416156 11.447384935222251 0 0 1
1186 1 0.31981085597727726 22.92114462654225 7.565603875159213 -1 1 0
519 1 14.3123516526452 11.416771099510347 13.03098744081879 -1 2 0
1935 1 13.985923938841797 44.238980026945214 21.86055721348588 0 -1 0
520 1 1.7872098701221804 13.460547690760114 12.823894127951284 0 -1 0
3107 1 2.4778295561264407 16.843616691587172 16.509052063926987 2 1 0
165 1 3.698822850379145 14.0252995633792 10.646276604215558 0 0 0
3200 1 3.4592047142215225 14.630081373906815 15.091922934120147 1 1 0
3084 1 11.424990533537178 13.213747252183623 11.195604818253704 1 1 0
2663 1 10.238910667372535 13.836568257487034 13.925194923524728 0 1 0
4509 1 15.681388952473904 13.609324888461876 11.023697819013925 1 0 1
1207 1 1.0130134704275908 51.08202331278062 22.757932793475277 0 0 0
3475 1 3.0505116042787748 19.065775073569807 15.26585076397487 1 1 0
4245 1 6.188232374370646 15.214970358837256 11.432842140033863 1 1 0
4116 1 5.709947274384558 16.05924048711069 14.1303839230596 1 0 1
4266 1 10.478626577219778 16.847566652772944 13.764299656410742 0 -1 1
3284 1 11.249776063870224 16.875959564811126 10.841060743481897 1 0 0
1563 1 16.12838601354558 17.980797425730366 13.244696933348074 0 1 0
4352 1 3.4726210961095507 42.67113758841758 1.049764125729429 2 -1 0
1368 1 1.7757010889877778 17.401804439777308 8.297484636125617 0 0 1
1796 1 1.5212879492855917 20.764330661756446 10.675466413913473 2 0 0
73 1 3.859112740847205 18.182007343137606 12.949916531589986 -1 -1 1
1773 1 3.659171813181429 21.92889850713381 15.4934296390369 0 0 0
2949 1 16.035359911617906 21.375991695117925 15.911170302298412 0 1 1
3355 1 15.770579547663559 46.752509392113495 17.389821022480916 1 -1 0
1076 1 17.37177120606725 22.12596356711792 3.29435995458542 0 0 0
4286 1 3.9504800757230427 21.465125657379268 12.249046529939472 1 1 0
985 1 8.768860872503247 21.015719325259195 12.082930262304277 0 -1 2
968 1 13.115769047178016 23.53207296439261 13.134135282367108 -1 1 1
4524 1 11.505447893571933 21.731407038523336 10.623758843639777 1 0 0
3818 1 15.859161250388135 19.889407411161518 11.152234876178698 0 0 -1