LAMMPS data file via write_data, version 29 Oct 2020, timestep = 100000

8532 atoms
1 atom types

-0.1895661045360555 104.59685415311432 xlo xhi
-0.2652397573053875 51.35683789852641 ylo yhi
-0.2652397573053875 51.35683789852641 zlo zhi

Masses

1 18.015

Atoms # atomic

1902 1 4.885784389664127 0.6000411327960955 2.4500999029701513 0 0 1
1810 1 3.1235146093344683 2.1838561167812007 1.0518384877001299 0 0 1
1812 1 9.331053553627807 2.04445017595486 1.0491006257325415 0 0 1
1904 1 10.769427718181062 0.03951207972083359 2.5321191008354687 0 0 1
1813 1 15.763081435824668 1.9720132889895274 1.5027350822855703 0 0 1
2590 1 21.96394490292192 1.8399160165147141 0.9990600247634323 0 0 1
2584 1 23.87143341503627 0.48239559980189606 2.8751762247771238 0 0 1
2511 1 28.624460400831907 1.7207575965484496 0.9062316665457806 0 0 1
2586 1 30.11550122001328 0.20912705345264443 2.61429027528128 0 0 1
1909 1 1.5414788601434564 3.903729367116063 2.7788970835233324 0 0 1
1910 1 7.826668208516066 3.7580785355768382 2.7658375534682906 0 0 1
1816 1 6.25493773243541 5.38113966361555 1.2356834037240125 0 0 1
1913 1 13.893100366380612 3.655031013618837 2.666755495986423 0 0 1
1819 1 12.572776950667125 5.27751324255857 0.9293057702222016 0 0 1
2157 1 18.8495080305197 5.170096659067716 0.94992199636042 0 0 1
1814 1 17.408663045794338 3.2556940750390493 -0.15175025256122457 0 0 1
2589 1 20.58260369294589 3.4705969243320753 2.6334505789429925 0 0 1
2591 1 27.147701272630428 3.2142167541248234 2.3603379823270063 0 0 1
2595 1 25.524221077182577 4.9940479152994826 0.7413626552540624 0 0 1
2597 1 31.921208124100417 4.726159981486757 0.6915212693213336 0 0 1
2592 1 33.64432194703348 3.2823252990099143 2.189617432666139 0 0 1
1916 1 4.908094077881928 7.0223915098568 2.8014911673814633 0 0 1
1923 1 3.281847404345463 8.35394794786623 0.7991402977214663 0 0 1
1918 1 11.064586435154466 6.572814168028716 2.5705338133505173 0 0 1
1821 1 9.607065406159057 8.344567402146803 1.166571568607832 0 0 1
1822 1 15.599599202869921 8.357852212037603 0.8674932863112197 0 0 1
1920 1 17.099153354876815 6.92327623171756 2.7741350336445882 0 0 1
2594 1 24.24892790663969 6.538371858692472 2.4316900542658404 0 0 1
2516 1 22.353342155156145 8.069044354780901 0.8085694367068279 0 0 1
2596 1 30.367163711617096 6.577675108905488 2.1816173701795925 0 0 1
2599 1 28.494782277019528 8.698098318825116 0.5749695261963207 0 0 1
1922 1 1.7092198361619377 9.91008762131423 2.682482754508813 0 0 1
1827 1 6.207513280246627 11.33973459998022 1.519986665270044 0 0 1
1924 1 8.007058324130652 9.787105057695978 2.8490409635022873 0 0 1
1931 1 12.542591838872521 11.577373453210221 1.034168518660412 0 0 1
1926 1 14.201929026757648 9.73435518534649 2.7627071156936625 0 0 1
1511 1 18.8749927718562 11.011858846681529 1.1733224495583907 0 0 1
2598 1 20.94826277707019 9.684767589537362 2.473957447301182 0 0 1
2523 1 25.388904399261644 11.54635467052702 0.6998801926125051 0 0 1
2603 1 26.95500339933327 10.044194487117876 2.5176355596043094 0 0 1
2600 1 33.701789216115 9.938457020939085 2.3750916692623814 0 0 1
2605 1 31.86630210058871 11.432386931523347 0.7024129496113743 0 0 1
1934 1 2.8607217335277406 14.598061428890238 1.0112439203418921 0 0 1
1928 1 4.6116465927051316 13.122809828306758 2.7054186599193355 0 0 1
1826 1 7.605048404406763 12.901091987624039 -0.135287154567443 0 0 1
1830 1 9.349826707282174 14.463599917641355 1.4144810432802257 0 0 1
1937 1 15.61185238515205 14.699343303796372 1.0489932013592602 0 0 1
1938 1 17.283300226117518 12.833591854177318 2.61549180817086 0 0 1
2525 1 22.064036631782873 14.567294447042434 0.8506977043799222 0 0 1
2602 1 23.942391322060665 13.056201750255006 2.5303245918040256 0 0 1
2604 1 30.169721875923038 13.048738025268193 2.4663976583587512 0 0 1
2608 1 28.793902357699665 14.887832953659814 0.8676931005409199 0 0 1
1933 1 1.4499037875513665 16.479940349759286 2.634517692200786 0 0 1
1836 1 10.645111071866717 16.03414017686385 -0.23970755843177988 0 0 1
1939 1 5.967569219833329 17.658443272451525 0.8978489900284008 0 0 1
1936 1 7.627761057760173 16.15910136747113 2.737328377596315 0 0 1
1941 1 14.287161802952552 16.42370596426323 2.636603138105377 0 0 1
1837 1 12.770015623416201 17.603686403063673 1.0400275667694716 0 0 1
2609 1 20.7049339165661 16.159640916517972 2.741306075479199 0 0 1
2182 1 19.232230558236243 17.757399417185532 1.1013290752779152 0 0 1
2528 1 25.060707003116246 17.67088366326658 1.4059938281676023 0 0 1
2607 1 27.170337284744374 16.260253641447612 2.8003646223580114 0 0 1
2612 1 33.47040742290486 16.04487145684363 2.4173781572477893 0 0 1
2611 1 31.992401515259175 17.76393577496862 0.979831571187205 0 0 1
1943 1 4.634664345892342 19.49051241842952 2.696634373325054 0 0 1
1840 1 3.182810979169152 20.855322455862872 0.9726148734048714 0 0 1
1944 1 11.520879162864606 19.61211240973345 2.7572260210132398 0 0 1
1842 1 9.4301947992563 20.784529649913733 1.0819655917189943 0 0 1
1947 1 17.745865151663637 19.52396467377557 2.648075944321386 0 0 1
1946 1 16.057349800072988 20.861615825619523 0.8770780866114518 0 0 1
2613 1 24.089320530245306 19.874144639985552 2.6268819485810786 0 0 1
2533 1 22.09568067421172 21.142984218898125 1.0399017499173506 0 0 1
2616 1 30.620269662669102 19.491472324644768 2.3579849743885863 0 0 1
2615 1 28.592217975907364 20.917554030915504 1.210812388166111 0 0 1
1948 1 1.3727796383503206 22.492624419721622 2.5800627488265984 0 0 1
1951 1 7.712408789387786 22.337826284061453 2.6482073889842193 0 0 1
1953 1 14.278313763349097 22.764121596347763 2.4498300655744845 0 0 1
2618 1 20.756160772475464 23.18446070565823 2.691286519738444 0 0 1
2621 1 27.06708405590194 22.842444029692825 2.6842352615787624 0 0 1
2623 1 33.562536376704486 23.00737059493753 2.6083418423539233 0 0 1
1115 1 33.506990380761756 45.52436393838921 25.50676809936087 0 -1 0
1950 1 5.768517169763721 24.290345698847133 1.260506918010333 0 0 1
1956 1 4.20938525883534 25.6433306323906 2.9834892580413546 0 0 1
1957 1 10.682090742714932 25.94357953742679 2.786990673967992 0 0 1
1952 1 12.411099104745558 24.360196202867318 1.123869087761669 0 0 1
1959 1 17.350824453326283 25.9537686849935 2.5077267756585635 0 0 1
2154 1 18.60595622418492 24.613278932862375 0.6636524033227883 0 0 1
2625 1 23.910605766473658 26.069386263147976 2.637206920402912 0 0 1
2620 1 25.128263336418318 24.43687045624658 1.0073680950040484 0 0 1
2626 1 30.16287807355867 26.007631116634876 2.970740543035281 0 0 1
2546 1 28.63492322671409 27.163722870047497 0.8307491363447361 0 0 1
2541 1 31.841922357159206 24.53120627077857 1.2326666446053742 0 0 1
1960 1 1.169663960734902 29.212514301191717 2.574246995866064 0 0 1
1955 1 2.8972368133709976 27.359714848299827 1.2823517571878935 0 0 1
1854 1 9.0370959377575 27.476574167677597 1.2065537121322372 0 0 1
1965 1 13.9969266261508 29.217138469673134 2.4804183603778958 0 0 1
1958 1 15.593723143957646 27.49700433220348 1.1013612685174485 0 0 1
2627 1 20.649375637934206 29.196579718618178 2.538259624293355 0 0 1
2624 1 22.188325283572627 27.72698437331385 0.807751050289633 0 0 1
2629 1 27.319960404377948 29.17066272665784 2.1314073561474776 0 0 1
2631 1 33.5622719617648 29.260911998853867 2.681060689312264 0 0 1
1966 1 4.4668149682578955 32.28656421513154 3.055835811209051 0 0 1
1962 1 6.103911594669009 30.670951885562243 1.3469834983963764 0 0 1
1964 1 12.008553365990394 30.904256799841338 1.1397642398494012 0 0 1
1970 1 17.096143679165305 32.29174600906718 2.7656699306861596 0 0 1
1543 1 18.836438534588257 30.96910222810079 1.3446652652563786 0 0 1
2633 1 23.528585106872566 32.157230824965744 2.5476280401905624 0 0 1
2628 1 25.259073895956202 30.7515296220727 0.8683437264960763 0 0 1
2630 1 31.92361436439991 30.643807749628234 1.1664068558370286 0 0 1
1971 1 1.7807619990453147 35.445980867049634 2.42486236423471 0 0 1
1866 1 3.0624567926445745 33.726533788335004 0.8991042606233255 0 0 1
1967 1 9.27028790701162 34.07351224697921 1.1720456429270036 0 0 1
1973 1 7.737294374224259 35.972332189628425 2.716206339109055 0 0 1
1974 1 14.208161870776712 35.47459235568946 2.926897371619833 0 0 1
1969 1 15.588583155153305 33.942444969557314 1.0607596226910314 0 0 1
2637 1 20.55429090270365 35.71899146481935 2.551744890888464 0 0 1
2632 1 22.005421332467293 34.176018637633426 1.0096547162187444 0 0 1
2639 1 27.193605193467544 35.52837831474808 2.886192021247671 0 0 1
2554 1 28.88998210654186 33.99570611995903 1.581442337246805 0 0 1
2642 1 33.333078679197364 35.701127126105966 2.4115007388272276 0 0 1
1122 1 28.815434310680892 50.63576189646557 24.339857227763193 0 -1 0
1976 1 4.641920042179679 38.719075759824925 2.658408790047759 0 0 1
1972 1 6.319557395562602 37.59829315774405 0.9551024149483267 0 0 1
1977 1 11.100207981868811 38.85979875811392 2.7491807686165806 0 0 1
1874 1 12.454274918226549 37.09697679501561 0.9062954297327415 0 0 1
1881 1 14.219074853316837 38.72432103238347 -0.058471148815893714 0 0 1
1979 1 17.315969438379607 38.48627962027933 2.8099110725240832 0 0 1
2201 1 19.142715974598215 37.28432552299067 1.0702058805364427 0 0 1
2644 1 24.229935155588123 38.9728222709459 2.687386831352009 0 0 1
2638 1 25.531217593930208 36.961449246314594 1.095911702175468 0 0 1
2645 1 30.08118742777257 38.62553531262453 2.783937956913007 0 0 1
2640 1 31.40678751731626 37.07950386097631 0.8370494695425312 0 0 1
1884 1 1.7841095233958877 42.44064120507833 3.00553691728023 0 -1 1
1885 1 3.004120365562749 40.16947440968038 1.119572064800964 0 -1 1
1878 1 9.57138270495054 41.03379723219141 1.2186938648269627 0 -1 1
1882 1 15.64669897337228 41.088165295383945 1.700079502667326 0 -1 1
2567 1 20.557666140574618 42.30707770975513 2.9127976685407333 0 -1 1
2562 1 22.46087143673472 41.114068328574206 1.1081073330516449 0 -1 1
2569 1 27.149773301654633 42.331059933742914 2.6110766730713473 0 -1 1
2492 1 28.926287899419552 40.28850364076843 0.9963577164831317 0 -1 1
2565 1 34.504671253904625 40.28826382153446 1.289884760488167 0 -1 1
1479 1 0.23156446119726098 44.00832051422131 1.1266674514385788 0 -1 1
1889 1 6.281490826794125 44.05473791741624 0.7710891233975172 0 -1 1
1886 1 7.589225026891944 42.568256312053485 2.2763580853096377 0 -1 1
1797 1 12.611455975631177 43.966595583947246 1.2551844927148694 0 -1 1
1888 1 13.957071461975657 42.641133841559714 3.0460560465353272 0 -1 1
2189 1 19.070932707074437 44.01348856520772 1.2646560686226838 0 -1 1
2496 1 25.63258889932862 44.07043934490826 1.2262031897418801 0 -1 1
2572 1 33.02757717223868 42.51655285595448 3.0157308940992613 0 -1 1
2571 1 31.87000407579731 44.299032770176254 1.1653359441046247 0 -1 1
1798 1 2.836882779030219 47.26405133118522 1.3683438969612838 0 -1 1
1890 1 4.949290484371599 45.78300357773637 2.426793925265723 0 -1 1
1892 1 10.873118257534292 45.85790162654879 2.695638531995415 0 -1 1
1801 1 9.46465048754347 47.0969716328257 0.7285468876321919 0 -1 1
1899 1 15.501973252858392 47.065843291851806 1.1901497795291387 0 -1 1
1894 1 17.452169107343373 45.59366455931737 2.8387030881826227 0 -1 1
2573 1 23.816023289001194 45.55142979143305 2.689068396242143 0 -1 1
2578 1 22.186593094216633 47.033951262363736 0.8901896403423111 0 -1 1
2575 1 29.96072588904577 45.573320081102764 2.9099996127647754 0 -1 1
2580 1 28.54626699732846 47.25096926820209 1.0267872457290388 0 -1 1
1895 1 1.3680616653592028 48.95461774944211 2.676852853860079 0 -1 1
1036 1 27.27222492920175 48.849937639876 22.605023995369162 0 -1 0
1805 1 6.101825680136055 50.13613557141103 1.184400516136919 0 -1 1
1896 1 8.082034592236884 48.672740305375996 2.2533004278687234 0 -1 1
1905 1 12.500079330805 50.14867507661703 0.9631761594566934 0 -1 1
1898 1 14.401600251342503 48.93706910589213 2.7019011542774773 0 -1 1
1503 1 18.81590640023045 50.268920945439 1.3792679821898335 0 -1 1
2577 1 20.843274928625522 48.73999906973572 2.7804607538382746 0 -1 1
2579 1 27.08473223188445 48.827101111874164 2.7550217777569785 0 -1 1
2585 1 25.500386146210367 50.65727319120002 1.2747421175193345 0 -1 1
2587 1 31.34080551107444 50.29556161176511 0.7986626564081409 0 -1 1
2581 1 33.26493168580058 48.67904927606998 2.438830916848549 0 -1 1
1996 1 1.5051963902097087 0.5444431140055633 5.719115450453772 0 0 1
2499 1 24.2342402466253 48.685300913541155 -0.1766207715573458 0 -1 1
1911 1 6.592832182368838 2.0672411313789802 4.380257559913505 0 0 1
1998 1 7.930231343495608 0.5068595188076597 6.061563436678657 0 0 1
1912 1 12.210376396166387 1.8761067368561442 4.280249196882115 0 0 1
2000 1 13.967966717743822 0.44739152533398063 5.9698314383918705 0 0 1
1907 1 17.442105354330867 0.4371714389725363 3.17309069144496 0 0 1
2213 1 19.27016281922132 2.0362884596591 4.631626063106867 0 0 1
2661 1 20.650311657740964 -0.008405271978764728 6.038526545391019 0 0 1
2668 1 25.49795316198308 1.8707954501312987 4.507539702475235 0 0 1
2663 1 27.008790259992477 0.27244873230909317 5.898143491720693 0 0 1
2670 1 31.945395118137988 1.8383078309182883 3.8683535551316997 0 0 1
2665 1 33.8329133086506 0.46495157876338533 5.529794177598923 0 0 1
1917 1 3.616543247123583 5.3857135068550575 4.395111536336521 0 0 1
2001 1 4.486108872400143 3.5460942561825743 6.0716756776430225 0 0 1
1919 1 9.494437077109147 5.149136544320889 4.5385703772700365 0 0 1
2003 1 10.931114626760385 3.2295797100111554 6.166407581058229 0 0 1
1921 1 15.532532434192111 5.0144474790118645 4.241546452775479 0 0 1
2005 1 17.32776645314387 3.361712011737393 5.754876502050017 0 0 1
2674 1 22.556397041457647 4.794177130865386 4.075062918214695 0 0 1
2667 1 23.80608949500107 3.3253944649854392 6.0021880493520285 0 0 1
2676 1 28.660244189905185 5.1500518048231365 3.9027493545720473 0 0 1
2669 1 30.44810405906749 3.5059294929445213 5.499720445987657 0 0 1
2007 1 1.7903156619285576 6.8202030263020115 5.866793290896026 0 0 1
2008 1 7.888343252183919 6.489532583820841 6.098202347423744 0 0 1
1925 1 6.758325482146578 8.305126048993097 4.635592695754618 0 0 1
1927 1 12.562014919103616 7.870452632560324 4.5260703093939165 0 0 1
2010 1 14.298220773911602 6.487335938675103 6.190276122658589 0 0 1
2260 1 19.184239397373226 8.280678201607662 4.061970716643952 0 0 1
2673 1 20.732402769255874 6.70239896661866 5.725493265462157 0 0 1
2681 1 25.490718517466416 8.451711791836132 4.184719219711633 0 0 1
2675 1 26.865277642852053 6.68714437011723 5.838685592702833 0 0 1
2683 1 31.876663249942943 8.334506300156445 3.6271098580331937 0 0 1
2677 1 33.29051452780662 6.813313227470026 5.422172020716486 0 0 1
2018 1 3.4184674748397246 11.222170926404047 4.394611706413611 0 0 1
2013 1 4.740821543971086 9.576117170411154 6.031914499230755 0 0 1
1929 1 9.777600141015634 11.161795096442175 4.513248146886865 0 0 1
1932 1 15.773715256798832 11.314974268163164 4.438384613002735 0 0 1
2017 1 17.58258140699345 9.859057135899247 5.938939487475201 0 0 1
2685 1 22.33244380920321 11.530328774885284 4.0736151072805376 0 0 1
2680 1 23.761806479793645 9.809100471917818 6.0108072212229064 0 0 1
2687 1 28.855141987005005 11.37922198777958 4.200435311834585 0 0 1
2682 1 30.018653338128075 9.441674346424643 5.688779905562907 0 0 1
2022 1 1.4320798814324525 12.953924374114019 5.613957250807233 0 0 1
1817 1 8.02376471558639 6.971322165414708 -0.17364639477454175 0 0 1
1935 1 6.087598053225784 14.67834515638847 4.23143122957441 0 0 1
2019 1 7.735055306221868 12.661065617968996 5.992872076518499 0 0 1
1930 1 11.124540326113888 13.055550348705683 3.069198812342554 0 0 1
2025 1 12.830475460811135 14.761583290484992 4.428694948059048 0 0 1
2021 1 14.46816945401468 13.282304643168796 5.608883885961025 0 0 1
2317 1 19.090102543127735 14.241853084467907 4.222181760080796 0 0 1
2684 1 20.85338950347169 13.23796395687797 5.93266181661407 0 0 1
2606 1 25.507166490239257 14.71533292516062 4.344303811240239 0 0 1
2686 1 27.130218006713324 13.073471765248051 5.734868906394288 0 0 1
2691 1 31.876596793968417 14.724144976170319 4.152875647055889 0 0 1
2688 1 33.15592474895897 12.81629059554321 6.087225660674736 0 0 1
2028 1 2.8669136188500404 18.107313394392026 4.344566310933712 0 0 1
2024 1 4.5750414966044035 16.378546453513636 5.751304511283928 0 0 1
1940 1 9.687572593508856 17.57181914706763 4.177013220973456 0 0 1
2030 1 11.21160445107874 15.983441215145245 5.996627319972929 0 0 1
2032 1 17.671740752128393 16.576739298081954 5.401675969304785 0 0 1
2031 1 15.896254768717899 18.165644647077126 4.071823381392939 0 0 1
2694 1 24.03438210582892 16.465701090776285 6.016263112241308 0 0 1
2693 1 22.42629904029023 17.979724040412034 4.162718011496286 0 0 1
2695 1 30.215328898508826 16.41650568851274 5.694164899479989 0 0 1
2610 1 28.639175846649167 17.97947602871511 4.155473187950022 0 0 1
2033 1 0.9191468512978551 19.367087571933396 6.014030241757471 0 0 1
1876 1 17.461487195215184 35.46461672377442 -0.2238550167793087 0 0 1
2036 1 8.10287251319434 19.37275839259097 5.836695114386027 0 0 1
2035 1 6.393702730646888 20.998001497901257 4.566827293829309 0 0 1
2037 1 14.42879356604371 19.716710487821043 5.642162585439599 0 0 1
2697 1 20.65323528028903 19.611365031732834 5.975311970204082 0 0 1
2170 1 18.94114733862366 21.100674585071317 4.456015891881936 0 0 1
2699 1 27.2242592797703 19.66770389626287 5.97685805999077 0 0 1
2614 1 25.581904389001622 21.179532016268354 4.467634715515001 0 0 1
2701 1 33.48413775224022 19.76291841290795 5.851446079323089 0 0 1
1949 1 2.5925544506770897 24.194210912099003 4.304245230482713 0 0 1
2039 1 4.2911023585866195 22.374069187911577 5.795475271472566 0 0 1
2041 1 11.307430995176077 22.844377487471938 6.106473441404672 0 0 1
2040 1 9.342387160029109 24.123750889656 4.3609959490717065 0 0 1
1945 1 12.760954153392268 21.47350208382174 4.28584520799346 0 0 1
2042 1 17.245409180305465 22.698360275644806 5.91439888175573 0 0 1
2703 1 23.75954013891328 23.112749594851216 5.799140563776244 0 0 1
2705 1 30.23487770333051 22.74568806606534 5.863724961828184 0 0 1
2700 1 31.941024098214996 21.220089333278686 4.119758978914793 0 0 1
2043 1 1.262993371898586 26.192132298200402 6.1511255731331635 0 0 1
2044 1 5.896931408828122 27.200062308481208 4.308983519252026 0 0 1
2045 1 7.481920880483865 25.535272913043407 5.870957489311517 0 0 1
2047 1 14.362219298628517 26.13819835832494 5.698453777676817 0 0 1
1954 1 15.687268516299776 24.49753394431558 4.18141137948863 0 0 1
2708 1 20.63685331359193 26.230263415963407 5.929575415952707 0 0 1
2619 1 22.26056287462765 24.735951995187214 4.336296068251776 0 0 1
2710 1 26.990380306677228 25.932024457604218 5.888329657168732 0 0 1
2622 1 28.60037853162424 24.3279479786376 4.3237326237165705 0 0 1
2712 1 33.47337557080123 26.289143471435835 6.076289079777945 0 0 1
2048 1 4.33750347867295 29.15314579121497 5.401920105534351 0 0 1
1963 1 7.5422172359811075 28.971630782672452 3.1146498042048685 0 0 1
2046 1 12.421438988882187 27.69975603373215 4.014231529152291 0 0 1
2050 1 10.808109827906097 28.701173541953427 5.823960902511964 0 0 1
2155 1 18.745482176955534 27.629848365663847 4.095781163038071 0 0 1
2052 1 17.5665050697731 29.64391129008662 5.613159399673176 0 0 1
2714 1 23.751659965155294 29.43017403204621 6.079335511729333 0 0 1
2709 1 25.392731676414424 27.813052373877568 4.2059605042413635 0 0 1
2716 1 30.287173180241172 29.20976347451476 6.196525375674202 0 0 1
2711 1 31.80382765883776 27.7386539608735 4.191715414909822 0 0 1
1961 1 2.5561828207708133 30.82353696747897 4.290490540528279 0 0 1
2054 1 1.4627924692780796 32.79115850463773 5.819632415526766 0 0 1
2049 1 9.230454003988926 30.544572502296745 4.693113951557528 0 0 1
2057 1 7.404844358129171 32.30110966033046 5.948414284750413 0 0 1
1968 1 10.735452560830911 32.41450344676723 3.086776594856054 0 0 1
2051 1 15.432108547727513 30.762717931509545 4.169051490289627 0 0 1
2060 1 14.004817827068033 32.259616501552806 6.0245882456555675 0 0 1
2718 1 20.61935464696291 32.73700678637723 5.934934974639495 0 0 1
2713 1 22.133376584926843 30.796652573967624 4.391917770958172 0 0 1
2719 1 27.19883961899865 32.393946994250825 5.734653793934185 0 0 1
2635 1 30.348291433925006 32.10923378815593 3.0567063627974167 0 0 1
2715 1 28.606510865069488 30.352031543128163 4.123815467159554 0 0 1
2722 1 33.35658905935465 32.49150520706595 5.7116564194215735 0 0 1
1485 1 -0.1593501929381868 34.19691009181424 3.9097583827713116 0 0 1
2063 1 4.701034501035911 35.482744089537185 6.0502686144948115 0 0 1
2056 1 6.206803218806971 34.12801611282506 4.146927436811324 0 0 1
2059 1 12.43717526591244 34.01039129867584 4.3779210074760595 0 0 1
2065 1 10.870778939675816 35.49395195767432 5.96233755515965 0 0 1
2069 1 17.310365898333544 35.42864586905211 5.898210749031528 0 0 1
2781 1 19.170641601236937 33.99876988562111 4.013895823260466 0 0 1
2724 1 24.26884298573907 35.87248377259975 5.42299649597512 0 0 1
2634 1 25.255576584184045 33.88227967878064 4.152047199032314 0 0 1
2636 1 31.74523037787772 34.425784013145496 4.184649654369247 0 0 1
2070 1 1.454748728604359 38.73240227557467 5.969225041579458 0 0 1
1975 1 3.0768130241615967 36.949375816926825 4.418481568735092 0 0 1
2064 1 9.335096979902247 37.38662629381433 4.231317390668732 0 0 1
2071 1 7.916255290627095 39.29807027461458 5.615490895356017 0 0 1
2073 1 14.203092035174128 38.36822165928756 5.837615447978662 0 0 1
2068 1 15.957551611854324 36.96447581080888 4.3023473895538435 0 0 1
2728 1 20.579792001057612 38.419005404089766 5.712402660756888 0 0 1
2723 1 22.225741322650528 37.22510572271742 4.068524055919329 0 0 1
2729 1 27.427204274294827 39.180764801497034 6.053504679107835 0 0 1
2641 1 28.68250707933263 37.19962951840318 4.832862381235967 0 0 1
2731 1 33.032862901416756 39.03383221428737 5.672644384350188 0 0 1
1462 1 0.008565426401071025 40.25900768194413 4.2053743969123225 0 -1 1
1887 1 6.00165860909351 41.16167557994515 4.0957402632170785 0 -1 1
1978 1 12.617378900903493 40.12213680669901 4.449168313788575 0 -1 1
2159 1 18.682867955617912 40.115220886586435 4.294080805111314 0 -1 1
1982 1 17.03328718129042 42.431345827490354 5.922513407609082 0 -1 1
2648 1 23.974111589715854 42.40678540115312 6.084499085676202 0 -1 1
2568 1 25.800815983607272 41.033553041057324 4.459449242377843 0 -1 1
2570 1 31.129889451396224 40.95818826440396 4.498089900157795 0 -1 1
1984 1 3.3889411714340403 44.49127943230157 4.074773862291333 0 -1 1
1980 1 4.563170235206984 42.58311463186354 5.643459602215274 0 -1 1
1891 1 9.412574070319714 43.942278128022465 4.073716822664895 0 -1 1
1981 1 11.455412773633977 42.88011070654638 5.816613315588683 0 -1 1
1893 1 15.575603529700834 44.376784128050666 4.663911149792976 0 -1 1
2646 1 22.28509243481587 44.15558093895202 4.557353610033282 0 -1 1
2653 1 27.02959583315522 45.4143569822169 6.172955574576018 0 -1 1
2574 1 28.420261251436393 43.835625098231795 4.474381845946292 0 -1 1
691 1 -0.14099953125929116 30.4543108081481 14.43672770972395 0 0 0
1983 1 1.612873949676782 45.979981225974434 5.75607609306225 0 -1 1
1985 1 7.975923646322292 45.56339361573584 5.940476764220056 0 -1 1
1897 1 6.642245564976289 47.20946260920361 4.090578749026516 0 -1 1
1990 1 12.454090422476076 47.48731041370237 4.473041677266531 0 -1 1
1987 1 14.146492473938268 46.06104153939175 6.1685109545949315 0 -1 1
2651 1 20.597525958264136 45.53877837715084 6.1374371922522934 0 -1 1
2330 1 19.187634268930836 47.141757136530295 4.32803381098524 0 -1 1
2656 1 23.620034702975925 48.49084762476302 5.927801336764353 0 -1 1
2657 1 25.586270927987435 47.24312034307419 4.318774415993113 0 -1 1
2582 1 32.051123380384176 47.06533124860422 4.164727709531035 0 -1 1
2655 1 33.546876249513915 45.59538377231757 6.115287166277165 0 -1 1
1901 1 3.3730548004721896 50.49130216005214 4.197487050089768 0 -1 1
1989 1 5.024968470516117 48.92555465443201 5.679285271685031 0 -1 1
1903 1 9.165265890112826 50.05161608723878 4.380684517975164 0 -1 1
1991 1 10.843110892922688 48.83815543539099 6.151769779379511 0 -1 1
1906 1 15.732639602072217 50.33220468554941 4.729675127392292 0 -1 1
1994 1 17.37683145582993 48.687397993246144 5.909734681459206 0 -1 1
2662 1 22.353488748198163 50.25721303211777 4.27543330878473 0 -1 1
2664 1 28.8273999259282 50.15521855479023 4.305506384878582 0 -1 1
2658 1 30.3406349039508 48.69223145549904 6.224125753739508 0 -1 1
2002 1 2.4173124074874455 2.098928756631482 7.694584824025345 0 0 1
2092 1 4.115727453575513 0.546567273770776 9.10853057318122 0 0 1
2099 1 9.301413257216959 1.971866496659905 7.8929920757752985 0 0 1
2093 1 10.874560766137998 0.20285094395040476 9.17539268912699 0 0 1
2004 1 15.687673163419849 1.9076010116455513 7.550543041705001 0 0 1
2095 1 17.25962220263861 0.15001141863947376 9.25386133140964 0 0 1
2666 1 21.933180238615673 1.9506202583840433 7.720361681389032 0 0 1
2746 1 23.693041607622305 0.188452709923784 9.179168636613733 0 0 1
2755 1 28.714343707523895 1.9746960538761535 7.32120264801305 0 0 1
2748 1 30.482716235307734 0.41837234638875964 8.764198347974867 0 0 1
2096 1 1.3478208704996004 3.916955981295242 9.128209254321517 0 0 1
1038 1 31.83811279681869 47.14183069725161 23.955690589544712 0 -1 0
2009 1 6.096050465401267 5.1267132201590675 7.67985806249571 0 0 1
2106 1 12.753446248704396 5.014650459910975 7.654058955982041 0 0 1
2101 1 14.27387691843296 3.48641756178898 9.31679992940915 0 0 1
2153 1 18.947992807157746 5.057793804913283 7.317740384080342 0 0 1
2752 1 20.67164409664813 3.812462622972114 9.245016396415247 0 0 1
2758 1 25.293084478688815 4.887690904276728 7.412066611914791 0 0 1
2753 1 26.971948444765083 3.4491924989098175 9.002338515809473 0 0 1
2678 1 31.945320690599843 5.107169737636759 7.049639344418591 0 0 1
2756 1 33.5142536840483 3.595355355564474 8.634065510805126 0 0 1
2012 1 2.966613453063024 8.154732697781522 7.6024714620151315 0 0 1
2103 1 4.5546925529387785 6.702411158080416 9.272283852404026 0 0 1
2015 1 9.418199708784917 8.295509095346146 7.546522391786215 0 0 1
2105 1 11.206702407238893 6.727397593913549 9.216461401999142 0 0 1
2016 1 15.869020441880483 8.313519691166714 7.698035558014032 0 0 1
2107 1 17.661310947198583 6.537754034731214 9.156405953457144 0 0 1
2762 1 22.007571703174204 8.243661615059729 7.48100196483779 0 0 1
2757 1 23.69067233526003 6.748195651536298 9.08303723949136 0 0 1
2764 1 28.254627786495035 8.236073865727422 7.647857599293091 0 0 1
2759 1 30.026280217549896 6.562427107427218 8.88883967961837 0 0 1
2108 1 1.1966252404639561 9.690393095669918 9.21996521200193 0 0 1
761 1 18.70248923661989 47.15995332609354 23.887790092718742 0 -1 0
2117 1 6.240540638069166 11.29299796161252 7.663986565834486 0 0 1
2110 1 7.972745217950816 9.830219486415332 9.410956749112216 0 0 1
2014 1 11.429774640175825 9.699964680697592 6.324180504826429 0 0 1
2020 1 13.340133732002156 11.314078481907137 7.515068923664574 0 0 1
1518 1 18.937956546902893 11.816580407751857 7.24698611236242 0 0 1
2761 1 20.325383689869046 10.269276311032733 8.92682483437982 0 0 1
2660 1 25.361078996586734 11.668682019201771 7.368067107165842 0 0 1
2763 1 26.818523125499716 10.148341784993391 9.288574256304214 0 0 1
2650 1 31.444831846073026 11.210995174003385 7.556199858379981 0 0 1
2765 1 33.17300172568066 9.6229804296166 9.069009521052354 0 0 1
2023 1 2.852103658871207 14.936545007451944 7.403898351748284 0 0 1
4412 1 0.4359539784423818 26.34343830867484 3.158906182345777 1 1 2
2122 1 4.605403401501405 13.22345998541238 8.714418472126278 0 0 1
2026 1 9.44924133097538 14.281517958356709 7.805644401390962 0 0 1
2118 1 11.412510215525117 12.822914414012928 9.20120644171206 0 0 1
2124 1 17.34824958744936 13.252499429371856 9.062574065957426 0 0 1
2671 1 23.93044681172581 13.422836317633054 8.76343974301617 0 0 1
2588 1 22.360628578628376 15.007679413448193 7.273237494729073 0 0 1
2690 1 28.630090265827967 14.902743337923624 7.536512207451573 0 0 1
2707 1 30.412812518194844 13.411946637655499 9.05682684562859 0 0 1
2127 1 1.2222202393478148 16.322530105347024 8.837062094334371 0 0 1
2029 1 6.279644847040678 17.58705448118322 7.416593871167942 0 0 1
2128 1 8.074982944114382 16.320273345537455 9.05416788535601 0 0 1
2129 1 12.71517890471944 17.909561803080223 7.2312692738914555 0 0 1
2130 1 14.005810573068661 16.574042948892487 9.048283432111159 0 0 1
2027 1 15.708392923798346 15.131997187627572 7.347369524706626 0 0 1
2749 1 20.68046571491078 16.337899662788356 8.9330923036625 0 0 1
2274 1 19.05822770343716 17.984477633759806 7.443231980113798 0 0 1
2733 1 27.10417975644394 16.746037359746786 9.008466747982343 0 0 1
2744 1 33.20407865087127 16.574462173272885 8.439107339394461 0 0 1
2034 1 2.6086405074179457 20.948224676034137 7.400001335821058 0 0 1
2133 1 4.618834678888839 19.477828654886697 8.585714225971214 0 0 1
2134 1 9.814031213489022 20.96800734819561 7.402836999573153 0 0 1
2135 1 11.402891960848523 19.660602758611315 9.304450825108516 0 0 1
2038 1 16.116497857264 20.80360827868941 7.854012979649033 0 0 1
2672 1 23.787404761995937 19.64154842200917 9.001264142531609 0 0 1
2692 1 25.51260138791158 18.317114030978257 7.340856704770729 0 0 1
2754 1 31.28282761919888 18.20391815008744 7.207749984740939 0 0 1
2679 1 29.8401742331859 19.729546947639392 9.162497950628754 0 0 1
2138 1 1.3670147056851774 22.993676604631915 9.031563036316559 0 0 1
2140 1 5.86809361356246 23.897121245938898 7.7033331123792586 0 0 1
2131 1 7.7344795040085135 22.291496360344453 8.974136886206995 0 0 1
2115 1 14.332365182784576 22.85573004349276 9.019160746176622 0 0 1
2766 1 20.640704815746616 22.983295134694384 9.067742007063737 0 0 1
2698 1 22.332649710358197 21.498587869280225 7.455791400585474 0 0 1
2760 1 26.595693260677535 23.023683645231884 9.242362333695937 0 0 1
2740 1 28.47196159430552 21.74426993362689 7.687026823629457 0 0 1
2739 1 33.45389832493977 23.07444833439015 9.17264235947402 0 0 1
2125 1 4.380122118061824 25.905071692672795 9.132495564778127 0 0 1
2123 1 9.084888751500182 27.059520332502416 7.563121339517551 0 0 1
2136 1 11.102697623045668 25.834025781747386 9.026244286207953 0 0 1
2120 1 13.032572786573587 24.6190885328883 7.2884716117943595 0 0 1
2086 1 17.727761370004814 26.083269908402137 8.720945540561814 0 0 1