
# Define the lattice
#
variable	    lattice_constant equal 6.36339
lattice		    diamond ${lattice_constant} orient x 0 0 1 orient y 0 1 0 orient z -1 0 0
lattice		    diamond 6.36339 orient x 0 0 1 orient y 0 1 0 orient z -1 0 0
Lattice spacing in x,y,z = 6.3633900 6.3633900 6.3633900

# Define region
# multiples of lattice spacing
#
region 		    simbox block 0 9 0 8 0 8

# Create Atoms
#
create_box          1 simbox
Created orthogonal box = (0.0000000 0.0000000 0.0000000) to (57.270510 50.907120 50.907120)
  3 by 1 by 2 MPI processor grid
create_atoms        1 box
Created 4608 atoms
  create_atoms CPU = 0.001 seconds
mass                1 18.015

# Define potential
#
pair_style          sw
pair_coeff          * * /data/emrosky-sim/Freezing_Simulations/Melting/MLmW_fancy/ML_mW.sw mW
Reading sw potential file /data/emrosky-sim/Freezing_Simulations/Melting/MLmW_fancy/ML_mW.sw with DATE: 2019-02-27

# Add velocity/set timestep
#
velocity            all create ${TEMP} 120598 rot yes dist gaussian
velocity            all create 298 120598 rot yes dist gaussian
timestep            5.0

# Define output
#
compute	            1 all msd
thermo              100
thermo_style        custom step temp press vol etotal ke pe c_1[4]

# Neighbor lists
#
neigh_modify        delay 0 every 1 check yes

# Set fixes
#
fix                 1 all momentum 10 linear 1 1 1 rescale
fix                 2 all nve
fix                 3 all temp/csvr ${TEMP} ${TEMP} 500.0 928347
fix                 3 all temp/csvr 298 ${TEMP} 500.0 928347
fix                 3 all temp/csvr 298 298 500.0 928347
fix                 4 all press/berendsen iso ${PRES} ${PRES} 1000.0 modulus 20000
fix                 4 all press/berendsen iso -1000 ${PRES} 1000.0 modulus 20000
fix                 4 all press/berendsen iso -1000 -1000 1000.0 modulus 20000

# Run 0.5 ns equilibration
#
dump		    1 all custom 1000 eq.${NAME}.dump id type x y z vx vy vz
dump		    1 all custom 1000 eq.ice_298K_-1000atm_ML.dump id type x y z vx vy vz
run                 100000
Neighbor list info ...
  update every 1 steps, delay 0 steps, check yes
  max neighbors/atom: 2000, page size: 100000
  master list distance cutoff = 6.0032907
  ghost atom cutoff = 6.0032907
  binsize = 3.0016454, bins = 20 17 17
  1 neighbor lists, perpetual/occasional/extra = 1 0 0
  (1) pair sw, perpetual
      attributes: full, newton on
      pair build: full/bin/atomonly
      stencil: full/bin/3d
      bin: standard
Per MPI rank memory allocation (min/avg/max) = 4.779 | 4.779 | 4.779 Mbytes
Step Temp Press Volume TotEng KinEng PotEng c_1[4] 
       0          298   -601.87744    148418.52   -51804.872    4092.3124   -55897.184            0 
     100    204.36346   -831.88739    148960.62   -50122.651    2806.4399   -52929.091     0.105767 
     200    233.15524   -915.48047    149310.84   -49125.623    3201.8257   -52327.448   0.12016859 
     300     251.2297   -976.19435    149502.14   -48491.696     3450.035   -51941.731   0.15428052 
     400    272.49767   -970.57819    149641.64   -48072.836    3742.0993   -51814.936   0.15580453 
     500    288.46616   -934.06003    149769.64    -47770.95    3961.3881   -51732.338   0.14534873 
     600    292.07758   -956.68569    149866.52   -47490.973    4010.9822   -51501.955   0.16675607 
     700     294.4708   -988.88258    149924.87   -47435.033    4043.8473    -51478.88   0.15536994 
     800    294.56993    -991.2417    149926.14   -47335.092    4045.2086   -51380.301   0.16450153 
     900    297.08219   -1002.8789     149930.1   -47311.881    4079.7085   -51391.589   0.17974232 
    1000    297.17771   -1024.0247    149908.09   -47363.206    4081.0203   -51444.226   0.15838283 
    1100    297.79666   -978.68314     149924.5   -47306.265      4089.52   -51395.785    0.1637921 
    1200     301.8979   -956.73555    149925.79   -47300.595    4145.8406   -51446.436   0.16527079 
    1300    297.85957   -1056.4231    149992.91   -47226.497     4090.384   -51316.881   0.17507939 
    1400    299.44008     -1015.33       149962   -47323.767    4112.0884   -51435.856   0.16880464 
    1500    292.54193    -1023.613    149961.12   -47359.931    4017.3589    -51377.29   0.16091553 
    1600    299.17848   -1018.1725    149922.82   -47283.975     4108.496   -51392.471    0.1747753 
    1700    294.49695   -1028.1181    149941.78   -47310.593    4044.2064   -51354.799   0.16654773 
    1800    291.89819   -1018.1041    149938.13    -47304.23    4008.5188   -51312.749   0.18082343 
    1900    300.58648   -1029.6948    149972.91   -47217.279    4127.8315   -51345.111   0.16939642 
    2000    307.04394   -976.75564    149994.18   -47165.544    4216.5092   -51382.053   0.16178201 
    2100    301.12466   -1025.9288    149969.41   -47341.621    4135.2221   -51476.843   0.17165192 
    2200    302.47963    -1004.645    149957.97   -47261.024    4153.8293   -51414.854   0.15814579 
    2300     301.5699   -988.44966    149961.07   -47194.817    4141.3364   -51336.154   0.18195941 
    2400    298.64492   -1004.3753    149964.17   -47224.882    4101.1688   -51326.051   0.17631009 
    2500    302.57134   -967.73118    149979.41   -47278.238    4155.0887   -51433.327   0.15488944 
    2600    296.32739   -1002.8605    149971.13    -47311.94    4069.3432   -51381.283   0.17704927 
    2700    301.19303   -988.81152     149942.6   -47276.395     4136.161   -51412.556   0.15479454 
    2800    299.63004   -983.56148    149947.73   -47176.077     4114.697   -51290.775   0.18415926 
    2900    299.27899   -1002.4775    149953.49   -47201.262    4109.8763   -51311.138   0.17144014 
    3000    294.38035   -1020.2198    149930.56   -47259.295    4042.6052     -51301.9    0.1802646 
    3100    301.73069   -984.44491    149935.59   -47228.077    4143.5444   -51371.622   0.16765429 
    3200    297.02134   -969.36402     149938.2    -47339.47    4078.8729   -51418.343   0.16037958 
    3300    294.05904   -989.92776    149881.51   -47397.707    4038.1928     -51435.9   0.16594133 
    3400    297.74376   -995.61378     149897.5   -47334.122    4088.7936   -51422.916   0.16355768 
    3500    296.63551   -1008.0234    149899.49   -47295.916    4073.5744   -51369.491   0.18096054 
    3600    294.18763   -1020.0573    149934.28   -47305.273    4039.9587   -51345.231   0.16922957 
    3700    299.18703   -943.38616    149941.16   -47264.969    4108.6133   -51373.583   0.16245643 
    3800    300.80932   -982.66878     149956.2   -47258.137    4130.8916   -51389.028   0.17711227 
    3900    298.22551   -977.18012    149957.04    -47257.05    4095.4092   -51352.459   0.16758709 
    4000    296.56316   -1007.6535     149957.6    -47308.12    4072.5808   -51380.701   0.16707624 
    4100    294.42243   -995.39225     149957.6   -47320.197    4043.1831    -51363.38   0.17717028 
    4200    296.17124   -1031.1874    149987.55   -47280.797    4067.1987   -51347.996   0.15814541 
    4300    290.91241    -1046.645    149934.91    -47415.42    3994.9814   -51410.401   0.17851162 
    4400    299.30674   -1012.3313    149956.29   -47304.644    4110.2573   -51414.902   0.15607425 
    4500    296.43413   -1027.1203    149948.17   -47364.889     4070.809   -51435.698   0.17379569 
    4600    299.92359   -994.01834    149945.67   -47400.308    4118.7283   -51519.036   0.15537654 
    4700    299.62742   -1020.0649    149955.61   -47298.929    4114.6611    -51413.59   0.16462124 
    4800     302.5436   -944.97927    149970.27   -47190.922    4154.7078    -51345.63   0.17434082 
    4900    304.49085   -951.53977    150001.36   -47162.947    4181.4486   -51344.396   0.16773872 
    5000    298.09449    -981.3149    149997.42    -47296.71      4093.61    -51390.32   0.17519882 
    5100    301.95092    -994.8028    149977.76   -47224.376    4146.5687   -51370.944   0.16471127 
    5200    296.56636   -1005.8581    149947.79    -47294.08    4072.6248   -51366.705   0.17627917 
    5300    295.94653   -986.47699    149945.25   -47402.189    4064.1129   -51466.302   0.16210858 
    5400    291.92443   -990.75449    149935.47   -47364.546    4008.8791   -51373.426   0.16106728 
    5500    296.76587    -1016.285    149946.11    -47330.91    4075.3646   -51406.274     0.178056 
    5600    298.54778   -999.99873     149957.2   -47370.235    4099.8348    -51470.07   0.15940237 
    5700    301.08299    -995.4659    149978.33   -47361.149    4134.6498   -51495.799   0.15734027 
    5800    302.50872   -985.28408     149971.7    -47303.61    4154.2288   -51457.839   0.16727946 
    5900    299.47074   -995.34261    149963.49   -47386.574    4112.5094   -51499.083   0.15185304 
    6000     291.1865   -1041.7302    149930.48   -47356.836    3998.7454   -51355.581   0.17538058 
    6100    288.05463   -1000.2458    149925.52   -47436.531    3955.7367   -51392.267   0.16174291 
    6200    288.80607   -1008.2646    149902.28   -47414.424    3966.0559    -51380.48   0.17838899 
    6300    302.60664   -1016.1041    149933.68   -47287.493    4155.5735   -51443.067   0.17021731 
    6400    296.09413   -1003.3324    149936.93    -47342.77    4066.1398    -51408.91   0.16281222 
    6500    298.95994   -992.00932    149916.25   -47356.625    4105.4948   -51462.119   0.16734158 
    6600    295.20127   -989.76205    149898.79   -47362.878    4053.8786   -51416.756   0.16539113 
    6700    290.44354   -1032.5061    149897.84   -47423.492    3988.5426   -51412.035   0.17107191 
    6800    296.28446   -988.68467    149897.69   -47372.815    4068.7536   -51441.569   0.16302401 
    6900    307.82893   -969.75769    149943.78   -47294.376     4227.289   -51521.665   0.15673405 
    7000    294.82058   -990.99363    149947.02   -47292.099    4048.6508    -51340.75   0.17039754 
    7100    300.06825   -990.92027    149963.05   -47301.439    4120.7148   -51422.154   0.15126822 
    7200    292.75582   -1011.2676    149940.57   -47417.185    4020.2962   -51437.482   0.17365367 
    7300     293.4138   -998.87601    149923.38    -47471.73     4029.332   -51501.062   0.15692439 
    7400    292.75575   -972.12845    149932.27   -47354.306    4020.2952   -51374.601   0.16434314 
    7500     295.3966   -997.95806    149938.68   -47282.876     4056.561   -51339.437   0.17605539 
    7600    291.30532   -1007.4848     149957.3   -47261.233    4000.3771    -51261.61   0.16609277 
    7700    291.39778   -1021.4186    149923.92   -47355.894    4001.6468   -51357.541   0.18012416 
    7800    297.79973   -1011.1396    149911.88   -47425.299    4089.5622   -51514.862   0.15834672 
    7900     293.4566   -990.74152    149900.94   -47355.075    4029.9197   -51384.994   0.16648091 
    8000    296.97087   -973.52586    149943.03    -47254.76    4078.1798    -51332.94   0.16394229 
    8100    297.75141   -1012.6614    149949.03   -47214.948    4088.8986   -51303.847   0.17373701 
    8200    296.30149   -1010.4436    149939.09   -47241.388    4068.9875   -51310.375   0.17123013 
    8300    295.34174   -1045.8241    149936.43   -47201.899    4055.8076   -51257.707   0.17335887 
    8400    307.73458   -1001.2843    149968.33   -47175.528    4225.9935   -51401.521   0.16938264 
    8500    299.35358   -1002.5147    149961.11   -47267.005    4110.9005   -51377.905   0.16982159 
    8600    297.61783   -992.05321    149939.31   -47271.381    4087.0642   -51358.445   0.15972449 
    8700    295.24781   -1018.7274    149944.82   -47250.494    4054.5177   -51305.012   0.18309659 
    8800    299.92185    -1004.659     149924.1    -47289.75    4118.7043   -51408.454   0.15867133 
    8900    302.31276   -1003.9481    149930.41   -47361.477    4151.5378   -51513.015   0.16752997 
    9000    298.82495   -1020.7081    149919.27   -47281.878    4103.6411   -51385.519    0.1647732 
    9100    295.77919   -1011.1301    149925.93   -47337.888    4061.8149   -51399.703   0.16157628 
    9200    301.80612   -981.76751    149946.52    -47225.18    4144.5803    -51369.76   0.17885314 
    9300    295.91685   -994.60074    149969.57   -47382.295    4063.7053   -51446.001   0.15205179 
    9400    293.94042   -992.47074    149924.41    -47339.97    4036.5638   -51376.533   0.17605047 
    9500    293.17386   -1000.1741    149940.31   -47390.469     4026.037   -51416.506   0.16102535 
    9600    294.95474   -1011.6578    149945.32   -47382.602    4050.4931   -51433.095   0.16667431 
    9700    297.29586   -1012.3004     149969.8   -47253.487    4082.6427    -51336.13   0.16983809 
    9800    297.77937   -1031.3719    150001.84   -47207.896    4089.2825   -51297.179   0.17215895 
    9900    297.67136   -1008.0723    149950.39    -47235.07    4087.7993    -51322.87   0.17307714 
   10000    294.78737   -1008.9388    149971.91   -47295.164    4048.1947   -51343.359   0.16331368 
   10100    304.37972   -959.73035       149985     -47242.6    4179.9225   -51422.523   0.16779592 
   10200    304.05605    -964.5638    149976.97   -47212.015    4175.4777   -51387.493   0.16921634 
   10300    303.46727   -1008.2842     150013.7   -47213.845    4167.3922   -51381.237   0.16140419 
   10400    299.00005    -1009.685    149987.45   -47215.265    4106.0457    -51321.31   0.17797773 
   10500    295.20374   -1023.7586    149981.65   -47266.343    4053.9125   -51320.255   0.16471489 
   10600    299.94588   -983.79739    149952.09   -47290.348    4119.0344   -51409.383   0.16972074 
   10700    298.29114   -1044.4627    149955.89   -47314.582    4096.3105   -51410.892   0.16745856 
   10800    294.45582    -1022.998    149939.56    -47450.17    4043.6416   -51493.811    0.1590903 
   10900    289.24741    -1020.306    149932.07   -47437.905    3972.1166   -51410.022   0.17090103 
   11000    292.13888   -1021.9434     149934.5   -47453.483     4011.824   -51465.307   0.15796784 
   11100    297.43517   -984.06682    149931.68     -47353.3    4084.5558   -51437.855   0.16419756 
   11200    291.64907   -975.01169    149926.22   -47465.471    4005.0976   -51470.569   0.16131674 
   11300     298.3499   -1004.9901    149913.19   -47376.335    4097.1175   -51473.452   0.16033685 
   11400    295.93369   -1012.2437    149910.37   -47357.037    4063.9367   -51420.974   0.17018433 
   11500    300.29898   -1000.1377    149953.86   -47249.099    4123.8834   -51372.983   0.16552538 
   11600    296.42151   -1030.0188    149972.67   -47252.165    4070.6356   -51322.801   0.17468908 
   11700    299.40376   -1003.9328    149998.87   -47112.595    4111.5897   -51224.184   0.16725258 
   11800    301.67638   -1014.9177    150001.42   -47194.149    4142.7985   -51336.947   0.16748767 
   11900    300.80212   -1005.3568    149974.13   -47240.267    4130.7928   -51371.059   0.17473793 
   12000    301.94884   -1045.8613    149983.36   -47197.812    4146.5402   -51344.352   0.16493435 
   12100    297.43946   -968.33209    149953.24   -47256.558    4084.6148   -51341.172   0.17788489 
   12200    303.52665   -995.50805    149987.69   -47265.303    4168.2076    -51433.51   0.15445897 
   12300    295.24226   -1034.3394    149954.27   -47320.248    4054.4415   -51374.689   0.17266069 
   12400    299.84508   -972.88695    149965.07   -47304.613    4117.6502   -51422.263   0.16351611 
   12500    300.63176   -983.87041    149963.65   -47238.586    4128.4533   -51367.039   0.16663057 
   12600    300.93999   -980.82789    149973.58   -47192.591    4132.6861   -51325.277   0.16765283 
   12700     300.0793   -983.87826    149977.07   -47278.973    4120.8665    -51399.84   0.16297616 
   12800    299.62831   -1000.8942    149959.75   -47261.354    4114.6733   -51376.027   0.16367758 
   12900    294.01939   -1000.3128    149958.96   -47332.178    4037.6483   -51369.827   0.16537422 
   13000    295.62626   -1017.3429    149962.47   -47298.966    4059.7148   -51358.681   0.16799165 
   13100     293.7471   -1045.4307    149969.97    -47378.87     4033.909   -51412.779   0.16571795 
   13200    292.61903   -1034.5142    149954.55   -47412.215    4018.4177   -51430.632   0.16265242 
   13300    293.89405   -1004.7466    149942.73   -47492.105    4035.9271   -51528.032   0.16011947 
   13400    295.98675    -978.3154    149938.09   -47478.278    4064.6652   -51542.943   0.15837568 
   13500    298.82321   -1005.3387    149962.28   -47386.605    4103.6172   -51490.222   0.15398333 
   13600    297.22057   -1016.0616    149970.42   -47329.332    4081.6087   -51410.941   0.16851223 
   13700    297.22193   -1008.6109    149975.23   -47357.814    4081.6275   -51439.441   0.14816131 
   13800    296.62635   -1017.5987    149982.51   -47309.756    4073.4486   -51383.205   0.17444984 
   13900    302.75037   -975.01939    149998.57    -47297.83    4157.5473   -51455.377   0.15017323 
   14000    300.54138   -978.10803    150007.77   -47177.175    4127.2122   -51304.387   0.16802307 
   14100    296.50245   -1026.6447    149987.17   -47274.935    4071.7472   -51346.683   0.16929457 
   14200    299.36723   -1026.7971    149966.62   -47288.119     4111.088   -51399.207   0.15936479 
   14300    298.71284   -998.40503    149954.71   -47318.391    4102.1015   -51420.492   0.16588568 
   14400    299.12256    -991.8021    149955.19   -47379.425     4107.728   -51487.153   0.15760607 
   14500    297.92282   -1002.5678    149929.08   -47396.445    4091.2525   -51487.698   0.16027276 
   14600    298.19042   -970.49308    149942.59   -47347.938    4094.9274   -51442.866   0.15760497 
   14700    298.53464   -983.33944    149942.25   -47297.235    4099.6544   -51396.889   0.16547061 
   14800    298.16294   -1031.7477    149973.65   -47272.551      4094.55   -51367.101   0.16505347 
   14900    295.89357    -1010.576    149983.29   -47284.714    4063.3856     -51348.1   0.15768626 
   15000    297.94685   -995.70673    149944.94   -47348.257    4091.5826   -51439.839   0.16613914 
   15100    291.06685   -1026.7393    149916.85   -47361.644    3997.1023   -51358.746   0.16125743 
   15200    290.31703   -1004.9786    149942.24   -47286.732    3986.8053   -51273.537   0.16989773 
   15300    295.79693   -987.16208    149952.02   -47378.071    4062.0586    -51440.13   0.16362005 
   15400    296.55046   -978.71185     149951.5   -47366.711    4072.4065   -51439.118   0.15511234 
   15500    297.38598    -997.7244    149950.35   -47303.001    4083.8803   -51386.882   0.16959972 
   15600    302.16371   -1000.8511    150000.08   -47176.678    4149.4909   -51326.169   0.16786922 
   15700    303.51275   -982.98752    150014.32   -47191.221    4168.0168   -51359.238   0.16081207 
   15800    302.54566   -1002.5927    150004.92   -47198.842    4154.7361   -51353.578   0.17026048 
   15900    303.73585   -1025.9882    150036.72   -47224.197    4171.0804   -51395.277   0.15923922 
   16000    298.86808   -994.31615    150038.81   -47271.329    4104.2334   -51375.562   0.16425311 
   16100    302.64872   -956.92742    150007.36   -47306.037    4156.1514   -51462.188   0.15993296 
   16200    296.61116   -981.64072     149997.8   -47315.958    4073.2401   -51389.198   0.15941014 
   16300     293.4081   -1007.9826     149977.6   -47334.473    4029.2537   -51363.727   0.16854243 
   16400    294.11921   -1036.5936    149991.82   -47344.945    4039.0191   -51383.964   0.15657964 
   16500    298.30982   -1008.7249    149974.22   -47262.835    4096.5671   -51359.402   0.17697446 
   16600    303.40369    -970.1349    150004.86    -47180.89    4166.5191   -51347.409   0.15547587 
   16700    298.72237    -1011.663    150014.59   -47229.128    4102.2324    -51331.36   0.17743753 
   16800     297.7462   -961.81736    150012.95   -47281.724    4088.8271   -51370.551   0.15720821 
   16900    298.23157   -1004.7347     150021.6   -47315.387    4095.4925   -51410.879   0.16185461 
   17000    296.16685   -1031.3291    149984.23    -47364.14    4067.1385   -51431.278   0.16989273 
   17100    296.95252   -1001.3276    150001.57   -47311.072    4077.9278       -51389   0.15477953 
   17200    290.03875   -1032.0717    150000.98   -47375.897    3982.9838   -51358.881   0.16792509 
   17300    294.84101   -1028.5076    149973.66   -47475.541    4048.9313   -51524.473   0.15714165 
   17400    291.50954   -993.19088    149946.55   -47460.305    4003.1815   -51463.487   0.16005589 
   17500    298.19416   -978.48795    149976.64   -47357.407    4094.9788   -51452.386   0.16136422 
   17600    295.68027   -1014.1452     149946.3   -47364.164    4060.4565   -51424.621    0.1661419 
   17700    296.24426   -1004.6841    149916.28   -47423.384    4068.2015   -51491.585   0.15707758 
   17800    294.65764   -972.58627    149919.28   -47369.383    4046.4131   -51415.796   0.16934981 
   17900    295.75993   -1009.9048     149946.1   -47314.823    4061.5504   -51376.373   0.16172743 
   18000    297.23044   -1007.2253    149946.81   -47221.806    4081.7444    -51303.55   0.17078718 
   18100    298.08012   -1015.5115    149992.13   -47229.754    4093.4126   -51323.167   0.16278691 
   18200    299.67398   -1000.9211    149941.21   -47268.378    4115.3004   -51383.679   0.16371982 
   18300    295.26223   -1003.5854    149963.16   -47266.975    4054.7157    -51321.69   0.16292837 
   18400    296.83467   -1003.0397    149962.65   -47372.455    4076.3094   -51448.764   0.16755696 
   18500    291.41507   -1007.0363    149934.23   -47301.887    4001.8843   -51303.772   0.17089453 
   18600    301.50323   -1005.9697    149956.14   -47261.376    4140.4208   -51401.797   0.15653384 
   18700     299.9036   -979.27736    149947.39   -47278.578    4118.4538   -51397.031   0.17412263 
   18800    295.03746   -1038.8356    149955.01   -47293.068     4051.629   -51344.697    0.1620033 
   18900    296.35357   -1002.6084    149947.31   -47254.734    4069.7027   -51324.437   0.16894345 
   19000    297.69548   -1033.2051    149971.05   -47289.522    4088.1305   -51377.652   0.17100048 
   19100    296.87494   -1037.0909    149994.41   -47196.736    4076.8624   -51273.598   0.15994992 
   19200    297.59585   -1012.9928    149984.97   -47224.207    4086.7623    -51310.97   0.17133989 
   19300    307.84606   -959.86247    150004.93   -47115.565    4227.5243    -51343.09   0.16102491 
   19400    300.32392   -964.06225    149994.53   -47185.461    4124.2258   -51309.687   0.16625372 
   19500    299.78567   -1023.0978    149998.04   -47186.857    4116.8342   -51303.691   0.16619914 
   19600    303.12595   -1016.6176    150002.53   -47175.797    4162.7049   -51338.502   0.16389057 
   19700     297.7406   -998.86447    149982.58   -47223.619    4088.7502   -51312.369   0.16348081 
   19800    298.94829   -986.51153    149990.66    -47181.89    4105.3348   -51287.225   0.16856594 
   19900    302.15173   -1025.0026    149966.29   -47263.641    4149.3264   -51412.967    0.1678747 
   20000    299.52773   -1035.0969    149948.73   -47296.788    4113.2921    -51410.08   0.16021242 
   20100     295.7492   -1000.2033    149925.98   -47336.638     4061.403   -51398.041   0.16534855 
   20200    300.80456   -967.22923    149955.92   -47314.343    4130.8262   -51445.169   0.15902101 
   20300    297.96747   -992.24599    149975.11     -47274.2    4091.8656   -51366.065    0.1605472 
   20400    296.65009   -1036.0316    149981.14   -47340.171    4073.7746   -51413.946   0.16203917 
   20500    294.70946   -1025.4701     149969.8   -47386.014    4047.1248   -51433.139    0.1631375 
   20600    289.18027   -1008.4313    149967.62   -47402.417    3971.1946   -51373.611   0.15576657 
   20700    290.00711   -1009.3909     149965.6   -47345.895    3982.5493   -51328.444   0.17046186 
   20800    299.78977   -944.39292    149992.85   -47198.837    4116.8905   -51315.727   0.15179961 
   20900    300.33505   -993.91158    149981.19   -47314.849    4124.3786   -51439.228   0.16676581 
   21000    296.50372   -968.00216    149986.96   -47325.237    4071.7646   -51397.001    0.1591907 
   21100    300.58654    -980.5359    150008.99   -47203.239    4127.8322   -51331.071   0.16126512 
   21200    303.12456   -983.79035     150010.2   -47219.933    4162.6859   -51382.618   0.16644278 
   21300    299.59837   -1011.5276    150031.35   -47217.983    4114.2621   -51332.245    0.1573753 
   21400    301.82894    -988.3571    149979.16   -47254.093    4144.8936   -51398.987   0.16506191 
   21500    298.14799   -985.60098    150007.94   -47155.792    4094.3447   -51250.137   0.16348774 
   21600    296.62746   -1007.2761    150004.12    -47159.06    4073.4639   -51232.524   0.17690222 
   21700    297.67046   -1030.2648    149987.87   -47295.847     4087.787   -51383.634   0.15727492 
   21800    295.72297   -1022.7029    149948.36   -47325.021    4061.0429   -51386.064    0.1669815 
   21900    303.58601   -1005.9043    149972.22   -47302.129    4169.0228   -51471.152   0.16143531 
   22000     297.3144   -1019.1745    149953.51   -47337.337    4082.8973   -51420.234   0.15968149 
   22100    296.30771   -998.80404     149929.6   -47382.315    4069.0729   -51451.388   0.16185754 
   22200    295.04487   -993.81997     149901.4   -47468.778    4051.7308   -51520.509   0.15111915 
   22300    294.80213   -990.12886     149932.1    -47352.16    4048.3973   -51400.558   0.16102596 
   22400    299.43561   -1011.0308    149968.94   -47298.591     4112.027   -51410.618   0.16445531 
   22500     296.9154   -1022.0125    149971.88   -47250.541     4077.418   -51327.959   0.16449343 
   22600    298.20451   -1011.3734    149967.32   -47290.857    4095.1209   -51385.978   0.16672958 
   22700    297.25763   -1029.1811    149948.12   -47353.738    4082.1178   -51435.855   0.16239268 
   22800      298.974    -1022.448    149968.34   -47275.885     4105.688   -51381.573    0.1609185 
   22900    298.39337   -1023.4707    149942.63   -47312.682    4097.7143   -51410.396   0.16642242 
   23000    295.24278   -1047.3044    149935.71   -47387.617    4054.4487   -51442.066   0.16275209 
   23100    294.44023   -1008.3747    149922.67   -47322.047    4043.4275   -51365.475   0.17030755 
   23200    298.58951   -1006.9357    149944.36   -47265.554    4100.4079   -51365.961   0.16132742 
   23300    301.85751   -1000.7576    149955.88   -47263.045     4145.286   -51408.331   0.16432375 
   23400    300.42409   -1013.0355    149942.46   -47316.328    4125.6015   -51441.929   0.15886943 
   23500    305.64601   -968.77928     149972.7   -47198.242     4197.312   -51395.554   0.15385934 
   23600    295.11315   -1006.7855    149955.38   -47211.206    4052.6685   -51263.875   0.17656777 
   23700     301.8662   -961.14417    149963.23   -47203.078    4145.4054   -51348.483   0.15628184 
   23800    297.86547   -1017.3976    149967.48   -47218.361     4090.465   -51308.826   0.17316391 
   23900    296.91107   -1011.9091    149959.04   -47305.081    4077.3586    -51382.44   0.16219138 
   24000    295.85827   -1016.6032    149949.08   -47248.964    4062.9009   -51311.865   0.16307237 
   24100    302.67678   -998.91532    149958.63   -47176.932    4156.5368   -51333.468   0.17551886 
   24200    296.71547   -1014.7766    149981.51   -47315.511    4074.6724   -51390.183   0.15619828 
   24300    304.21295   -970.28453    149979.33   -47356.394    4177.6323   -51534.026   0.16082767 
   24400    297.28745   -1001.2327    149962.09   -47386.438    4082.5272   -51468.965   0.15456666 
   24500    296.34865   -982.79087    149956.06   -47333.633     4069.635   -51403.268   0.16220223 
   24600    294.28797   -1030.0591    149950.34   -47385.898    4041.3365   -51427.235   0.16060396 
   24700    297.34893   -1042.4009    149951.35   -47395.929    4083.3715     -51479.3   0.16131293 
   24800    296.64194   -959.91347    149941.14   -47325.112    4073.6628   -51398.774   0.16407423 
   24900    298.95521   -1021.1209    149930.67   -47390.814    4105.4299   -51496.244   0.15530461 
   25000    297.87086    -977.3186     149936.5   -47370.931    4090.5389    -51461.47    0.1620615 
   25100    289.16148   -1007.9215     149911.7   -47422.705    3970.9366   -51393.641   0.16734763 
   25200     293.8932   -998.72363       149904   -47560.714    4035.9153   -51596.629   0.14954053 
   25300    292.70647   -999.59523    149923.68   -47392.734    4019.6185   -51412.353   0.16661915 
   25400    292.44728   -1001.9528    149941.09   -47436.262    4016.0591   -51452.321   0.15622247 
   25500     295.9184   -1002.1515    149953.12   -47314.192    4063.7267   -51377.919   0.15885517 
   25600    295.25085    -994.8609    149969.86   -47228.205    4054.5594   -51282.764      0.17921 
   25700    297.14162    -1016.003    150001.63   -47329.821    4080.5246   -51410.345   0.15189507 
   25800    303.04863    -998.2601    150014.21    -47185.99    4161.6432   -51347.633   0.17389571 
   25900    303.00741   -1015.7702    150059.21   -47217.054    4161.0771   -51378.131   0.16205237 
   26000    297.65997   -994.42623    149998.21   -47258.459    4087.6429   -51346.102   0.16004008 
   26100    300.51806   -978.71508     149993.1   -47236.754    4126.8919   -51363.646   0.16754515 
   26200    297.49008   -999.90652    149990.13   -47352.673    4085.3098   -51437.982   0.15789349 
   26300    296.11408   -1012.4099    149984.04   -47309.564    4066.4138   -51375.978   0.16887055 
   26400    294.58369   -1020.0677    149975.24   -47364.511    4045.3976   -51409.909   0.15979597 
   26500    298.66047   -961.00639    150002.77   -47265.506    4101.3824   -51366.889   0.16475684 
   26600    300.61204    -978.7317    149984.85   -47207.481    4128.1824   -51335.663    0.1622175 
   26700    302.30154   -1020.3071    150013.16   -47209.131    4151.3837   -51360.515   0.16554647 
   26800    298.63446   -1019.2935    149962.23   -47252.033    4101.0252   -51353.058    0.1691736 
   26900    303.29456   -996.01108    149997.28   -47194.329    4165.0204   -51359.349   0.16731939 
   27000     302.2669   -1046.7459    149995.05   -47228.821    4150.9079   -51379.729   0.17188916 
   27100    302.18345   -1000.4507    150013.91   -47167.874     4149.762   -51317.636   0.16749329 
   27200    297.42287   -1036.2837     150046.7   -47232.701     4084.387   -51317.088   0.16480756 
   27300    309.39525   -965.85221     150054.1   -47063.544    4248.7987   -51312.343   0.17111863 
   27400    299.60818    -1016.195     150033.9   -47193.728    4114.3969   -51308.125   0.16235801 
   27500    294.08799   -986.88098    150014.91   -47306.003    4038.5903   -51344.594   0.16099076 
   27600     293.0578   -1017.9207    149994.01    -47364.68    4024.4432   -51389.123   0.16520082 
   27700    296.22012   -1002.0499    150011.95   -47259.043    4067.8701   -51326.913    0.1594906 
   27800    299.71932   -974.25744    150019.37   -47240.569    4115.9231   -51356.492   0.16737802 
   27900    299.56608   -1022.0191    149986.07   -47307.543    4113.8188   -51421.361   0.16065622 
   28000    298.12137   -1010.1096    149945.91   -47385.653    4093.9791   -51479.632   0.15682467 
   28100     297.0794   -1008.6738    149921.97    -47355.21    4079.6702    -51434.88   0.16057694 
   28200    294.23242   -1010.0255    149950.74   -47323.286    4040.5737   -51363.859   0.16535899 
   28300    295.00289   -1033.2328    149948.46    -47347.38    4051.1543   -51398.534   0.16724955 
   28400    302.24876   -987.17026    149983.93   -47284.275    4150.6588   -51434.934   0.15956921 
   28500    299.83854   -969.38688    149967.47   -47312.365    4117.5603   -51429.926   0.16410971 
   28600    297.48853   -968.23648    149971.83   -47318.747    4085.2886   -51404.036   0.15145837 
   28700    296.64462   -945.16115    149955.15   -47314.884    4073.6995   -51388.583   0.16595103 
   28800    293.78597   -1009.0188    149945.81   -47362.281    4034.4429   -51396.724   0.15887387 
   28900    297.13576   -998.71541     149970.3   -47332.276    4080.4441    -51412.72   0.16019317 
   29000    298.79641   -1011.3457    149946.68   -47269.122    4103.2492   -51372.371   0.16600574 
   29100    298.55124   -1019.7196    149960.26   -47267.879    4099.8823   -51367.761   0.15757448 
   29200    302.35511   -976.65855    149971.77   -47198.764    4152.1193   -51350.883   0.16450896 
   29300    303.01351   -974.34996    150000.47   -47206.904    4161.1608   -51368.065   0.16214702 
   29400    298.68554   -963.34557    150002.38    -47218.53    4101.7267   -51320.257   0.16451806 
   29500    297.15596   -983.45703    150000.48   -47267.213    4080.7216   -51347.935   0.16233136 
   29600    301.42977    -1012.038     150004.2   -47239.133    4139.4121   -51378.545   0.15969381 
   29700    296.13835   -1021.0499     149986.7   -47318.078    4066.7471   -51384.825   0.16134127 
   29800    294.27429   -1023.2608    149933.89   -47411.182    4041.1488    -51452.33   0.16026338 
   29900    296.99869   -1023.8978    149938.25   -47390.755    4078.5618   -51469.317   0.15992636 
   30000    290.05346    -1024.271    149941.97     -47354.4    3983.1858   -51337.586   0.16763691 
   30100    296.99889    -1000.547    149952.51   -47322.953    4078.5645   -51401.518   0.15754229 
   30200    295.69626   -1012.1681    149951.35   -47329.632    4060.6761   -51390.308   0.17094089 
   30300    298.42623   -950.78224    149952.88   -47313.661    4098.1656   -51411.826   0.15528207 
   30400     298.8647   -996.56377    149966.37   -47354.441     4104.187   -51458.628   0.16030873 
   30500    289.81113   -1028.9558    149955.61   -47460.416    3979.8579   -51440.274    0.1647848 
   30600    294.21305   -987.56869    149980.13   -47332.891    4040.3078   -51373.199   0.15317495 
   30700    295.39529   -965.61736     149953.6   -47361.586     4056.543   -51418.129   0.16518583 
   30800    298.67468   -984.61732    149947.11   -47285.957    4101.5775   -51387.535   0.15805591 
   30900    297.08111   -1014.0377    149977.85    -47267.34    4079.6936   -51347.033   0.16934584 
   31000    297.32975   -1003.1559    149965.95    -47304.19    4083.1081   -51387.298   0.16204886 
   31100     299.1789   -984.50232    149975.21   -47317.909    4108.5018    -51426.41   0.15625626 
   31200    301.24312   -993.66101    149982.21   -47259.376    4136.8489   -51396.225   0.16481282 
   31300    303.18577   -984.48975    150006.06   -47196.347    4163.5265   -51359.874   0.15931933 
   31400    294.11044   -1041.7934     149993.4   -47316.211    4038.8987   -51355.109   0.16673291 
   31500    297.79014   -979.85784    150012.61   -47264.791    4089.4305   -51354.222     0.162608 
   31600    299.51624   -1007.8347    149989.61   -47286.256    4113.1343    -51399.39    0.1614627 
   31700    301.45397   -1015.4322    149993.74   -47253.743    4139.7443   -51393.487   0.16279447 
   31800    299.08972   -987.46865    149977.33    -47319.94    4107.2771   -51427.217   0.15459072 
   31900    299.68444   -1001.2944    149953.16   -47312.272    4115.4441   -51427.716   0.16382865 
   32000     297.1031   -999.38888    149951.39   -47263.468    4079.9956   -51343.464   0.16319526 
   32100    298.33622   -983.43786    149957.41   -47297.925    4096.9295   -51394.855   0.15362114 
   32200    287.20638   -991.62364    149937.17   -47419.594     3944.088   -51363.682   0.16631887 
   32300    299.63178   -1028.6306    149928.63   -47363.881    4114.7209   -51478.602    0.1542112 
   32400    295.24188   -998.44217    149910.05   -47458.768    4054.4363   -51513.205   0.15887833 
   32500    296.43933   -1012.8632    149918.59   -47312.498    4070.8803   -51383.379   0.16616055 
   32600    300.20244   -998.95068    149957.21   -47268.901    4122.5576   -51391.458   0.15693333 
   32700    292.22255   -1055.4025    149925.15   -47362.009     4012.973   -51374.982   0.17226786 
   32800    300.66259   -959.03966    149967.26   -47227.606    4128.8767   -51356.483    0.1573264 
   32900    298.71615   -976.23554    149955.98   -47299.601     4102.147   -51401.748   0.16119262 
   33000    295.39038   -996.46063    149970.25   -47289.254    4056.4755    -51345.73   0.16178645 
   33100    299.17101   -1025.8246    149973.34   -47320.267    4108.3935    -51428.66   0.16106644 
   33200    302.45714   -994.78795    149957.69   -47295.336    4153.5204   -51448.856   0.15891819 
   33300     298.8379   -977.93774    149972.01   -47301.446    4103.8189   -51405.265   0.16403442 
   33400    296.71597   -1011.7671    149964.02   -47317.208    4074.6793   -51391.887   0.16113555 
   33500     297.7803   -969.54848    149952.13   -47342.194    4089.2954   -51431.489   0.15542777 
   33600    295.11429   -957.08521    149960.72   -47356.671     4052.684   -51409.355    0.1637381 
   33700    300.33066   -946.00907    149966.67   -47249.637    4124.3183   -51373.955    0.1533138 
   33800    303.13527   -969.14843    150005.35   -47143.601    4162.8329   -51306.434    0.1640475 
   33900    301.28122   -982.75692    150002.69    -47167.75    4137.3721   -51305.122   0.16179979 
   34000     298.8807   -991.80002    149958.34   -47322.267    4104.4067   -51426.674   0.16169085 
   34100    300.50409   -988.11407    149964.31   -47339.076    4126.7001   -51465.776    0.1620821 
   34200    298.41648    -995.7503    149960.43   -47336.409    4098.0317   -51434.441   0.16239598 
   34300    301.97465    -972.5067    149980.39   -47371.002    4146.8947   -51517.897    0.1521081 
   34400    296.21819   -980.52516    149978.95   -47290.643    4067.8435   -51358.487   0.16188011 
   34500    302.28413   -1016.9681    150027.15   -47215.722    4151.1446   -51366.866    0.1610624 
   34600    300.07388   -1038.3812     150020.1   -47212.319    4120.7922   -51333.111   0.15914608 
   34700    301.09784   -988.51323    150000.46   -47330.956    4134.8538   -51465.809   0.16223641 
   34800    293.30487   -974.20783    149993.62   -47327.133    4027.8361   -51354.969   0.15833986 
   34900    292.57591   -988.14752    150003.95   -47306.073    4017.8256   -51323.899   0.15892882 
   35000    299.78362   -986.75073    150024.26   -47283.314    4116.8062   -51400.121   0.15789437 
   35100    296.14363   -1032.0577    150010.59   -47302.981    4066.8196   -51369.801   0.16490925 
   35200    301.11603   -982.61682     149982.5   -47237.603    4135.1035   -51372.706   0.15301286 
   35300    295.37526   -1019.2354     149994.9   -47321.956    4056.2679   -51378.223   0.16939189 
   35400    297.06399   -984.14445    150000.09   -47320.379    4079.4585   -51399.837   0.15424209 
   35500    301.45075   -1008.6283    149985.98   -47299.677    4139.7002   -51439.377   0.15990503 
   35600    300.96587   -991.54692    150021.09   -47268.299    4133.0414    -51401.34   0.16948731 
   35700    300.20873   -993.51191    150017.16   -47281.492     4122.644   -51404.136   0.15419929 
   35800    301.05207   -1007.4126    150025.48   -47110.252    4134.2253   -51244.477   0.17496446 
   35900    297.03208   -1003.9693    150007.51   -47236.693    4079.0204   -51315.713   0.15953529 
   36000    297.55375    -1000.328    149977.07   -47296.442    4086.1842   -51382.626   0.15744882 
   36100    295.36891   -998.11887    149935.39   -47338.211    4056.1807   -51394.392   0.16159539 
   36200    296.62916   -1005.9886    149949.52   -47377.475    4073.4871   -51450.962   0.15452118 
   36300    296.12456   -994.32594    149954.47   -47307.534    4066.5577   -51374.092   0.16392886 
   36400    296.28404   -1014.5608    149948.91   -47368.892    4068.7479    -51437.64   0.15811433 
   36500    297.43575   -1033.6212    149932.81   -47342.242    4084.5638   -51426.806   0.16065895 
   36600    292.05052   -1017.4397    149911.39   -47338.772    4010.6106   -51349.382   0.16119324 
   36700    294.83176   -1029.6736    149923.51   -47380.549    4048.8043   -51429.353   0.15968723 
   36800    293.95339   -999.89078     149892.3   -47452.279    4036.7419    -51489.02   0.16019654 
   36900    298.25514   -1016.9636    149910.42   -47366.175    4095.8161   -51461.991   0.16095431 
   37000    295.09367    -1014.006    149943.63   -47354.006    4052.4009   -51406.407   0.15723089 
   37100    294.46264   -997.14476    149943.33   -47399.048    4043.7352   -51442.784   0.16049082 
   37200    295.46975   -967.82156    149948.43   -47403.017    4057.5655   -51460.583   0.14988148 
   37300    294.52903   -986.08658    149948.57    -47398.25     4044.647   -51442.897   0.16569651 
   37400    297.05333   -979.59686    149957.89   -47410.504    4079.3122   -51489.817   0.14986491 
   37500    298.54202    -961.6066    149941.19   -47379.601    4099.7558   -51479.356   0.14989877 
   37600    294.62805   -1018.1539     149931.7   -47434.838    4046.0068   -51480.845   0.16183751 
   37700    289.48513    -1026.729    149919.72   -47518.155    3975.3811   -51493.536   0.14791635 
   37800    289.59483   -1031.1237    149884.17   -47532.409    3976.8876   -51509.296   0.16080232 
   37900    295.99001   -967.13149    149914.98   -47435.835      4064.71   -51500.545   0.15242811 
   38000    296.10071   -992.87078    149912.78    -47366.39    4066.2303    -51432.62   0.16085076 
   38100    301.52359   -964.33321     149935.5     -47294.3    4140.7005   -51435.001   0.15734055 
   38200    301.36854   -1040.4177    149963.38   -47260.533    4138.5712   -51399.104   0.16173988 
   38300    299.23896   -990.77393    149959.72   -47319.086    4109.3265   -51428.413   0.16141327 
   38400    301.04034   -1013.4866    149970.29   -47249.045    4134.0641   -51383.109   0.16099955 
   38500    302.02852   -976.78429    149949.86    -47301.44    4147.6344   -51449.075   0.16094407 
   38600    305.00034   -957.37636    149936.26   -47258.777    4188.4453   -51447.222   0.15474339 
   38700    303.88678    -1002.978    149939.06   -47231.749    4173.1531   -51404.902   0.15974562 
   38800    297.72916   -1019.3773    149914.12   -47269.863     4088.593   -51358.456   0.16239909 
   38900    295.96235   -1010.5428     149975.3   -47214.106    4064.3302   -51278.436   0.16058614 
   39000    293.88271   -1065.1239    149970.58   -47275.764    4035.7713   -51311.535   0.16419183 
   39100    295.72029   -1041.5012    149938.16   -47298.292    4061.0061   -51359.299   0.16722432 
   39200    293.38141   -1025.3392    149928.13   -47429.622    4028.8872   -51458.509     0.150251 
   39300    292.04443   -999.67929    149904.44   -47439.016    4010.5269   -51449.543   0.16044826 
   39400      298.234   -1020.3611    149944.95   -47314.382    4095.5259   -51409.908   0.16046796 
   39500    299.49736   -983.66672    149944.69   -47295.113     4112.875   -51407.988   0.15739731 
   39600    296.72711   -994.79693    149957.66   -47297.367    4074.8323   -51372.199   0.16751873 
   39700    299.51663   -1002.8038    149981.74   -47278.762    4113.1397   -51391.901   0.15515034 
   39800    300.35723   -1010.1739    149974.13    -47301.75    4124.6833   -51426.433   0.16181695 
   39900    302.39183   -977.33121    149997.46   -47264.707    4152.6236   -51417.331   0.15859391 
   40000    300.00531   -1014.3557    149978.42   -47335.028    4119.8505   -51454.879    0.1579995 
   40100    301.42381   -969.36411    149991.61    -47349.53    4139.3302   -51488.861   0.15806545 
   40200    298.32537    -977.0263    149979.15   -47323.536    4096.7806   -51420.316   0.15934476 
   40300    297.92607   -1025.4009    149973.57   -47334.103    4091.2972     -51425.4   0.15550027 
   40400    294.29984     -995.183    149952.62   -47420.989    4041.4996   -51462.489   0.15628179 
   40500    298.31237   -950.45253    149983.26   -47273.362     4096.602   -51369.964   0.16246165 
   40600    298.86003    -1024.849    149989.39     -47353.7    4104.1229   -51457.823   0.15560696 
   40700    297.95448   -987.04148    149968.87   -47358.323    4091.6873    -51450.01    0.1585126 
   40800    297.22215   -1005.7554     149964.7   -47332.426    4081.6305   -51414.056    0.1560745 
   40900    298.07613   -993.04001     149971.7   -47320.207    4093.3578   -51413.564   0.15778301 
   41000    295.21572   -986.74363    149986.78   -47389.191    4054.0771   -51443.268   0.15830548 
   41100    297.86169   -1016.1239       149976   -47351.877     4090.413    -51442.29   0.16032813 
   41200     303.3569   -1032.8792    150000.44   -47236.991    4165.8765   -51402.868   0.16175814 
   41300    299.77338   -1017.4321    149995.54   -47324.932    4116.6655   -51441.597   0.16178438 
   41400    299.96162   -1005.9194    149980.05    -47268.37    4119.2505   -51387.621   0.16088029 
   41500    294.80111   -1012.0001    149973.29   -47278.901    4048.3834   -51327.285   0.15822117 
   41600    290.02415   -1006.9551    149967.52   -47286.668    3982.7833   -51269.451    0.1659652 
   41700    298.33702    -1030.519    149948.08    -47401.92    4096.9405   -51498.861   0.15170484 
   41800    301.23164     -998.141    149980.37   -47311.868    4136.6912   -51448.559   0.15536681 
   41900     294.9733   -997.52384    149963.31   -47392.862    4050.7479    -51443.61   0.15804247 
   42000    297.71454   -997.18965    149981.38   -47371.634    4088.3923   -51460.026   0.15544888 
   42100    297.33133   -964.28122    149953.84   -47442.715    4083.1298   -51525.844   0.15214257 
   42200     291.7132   -1016.5447    149988.31   -47403.811    4005.9783    -51409.79   0.16123179 
   42300    294.66167   -1018.0347    149985.22   -47363.908    4046.4684   -51410.376   0.15407043 
   42400    297.51406   -988.83721    149968.35   -47389.553    4085.6391   -51475.193   0.15601602 
   42500    296.98646   -1015.3971    149956.69   -47348.983    4078.3938   -51427.377    0.1563671 
   42600    295.91416    -1018.142    149972.25   -47393.282    4063.6684   -51456.951   0.15369785 
   42700    295.08111    -985.2214    149945.59   -47455.633    4052.2285   -51507.862   0.15813152 
   42800    299.94718   -979.89324    149979.95   -47368.024    4119.0523   -51487.076   0.15258517 
   42900    298.73407    -985.8173    149938.99   -47384.311    4102.3931   -51486.704   0.15860014 
   43000    294.23081    -984.0922    149951.85    -47401.95    4040.5516   -51442.501   0.15209822 
   43100    295.55149   -994.45767    149967.08   -47323.469    4058.6879   -51382.157   0.15745624 
   43200    298.60783   -988.41328    149963.44   -47338.214    4100.6595   -51438.873   0.15667385 
   43300     298.1669   -1007.2421    149961.68   -47332.972    4094.6044   -51427.576   0.15703206 
   43400    294.97489   -1020.0835    149986.32   -47264.245    4050.7698   -51315.015   0.16069326 
   43500    293.95808   -1017.1661    149988.56   -47316.169    4036.8064   -51352.975   0.15818492 
   43600    298.11653   -991.67527    149957.78   -47359.867    4093.9126    -51453.78   0.15732015 
   43700    294.20239   -1028.8986    149924.36   -47404.944    4040.1613   -51445.105   0.15879514 
   43800    291.86243   -972.84334    149946.24   -47445.866    4008.0276   -51453.894   0.14929521 
   43900     300.5868   -990.53154    149975.44   -47360.543    4127.8358   -51488.379   0.15464205 
   44000    293.58867   -969.60321     149952.1   -47443.681    4031.7334   -51475.414   0.14865802 
   44100    291.98541   -997.15698    149946.09   -47400.776    4009.7164   -51410.493   0.15646999 
   44200    294.88387   -1034.9527    149954.64   -47359.315    4049.5198   -51408.835   0.16320028 
   44300    296.76261   -1001.6943    149960.21   -47363.162    4075.3198   -51438.482    0.1520958 
   44400    297.98181   -1002.2336    149946.15   -47375.231    4092.0626   -51467.294   0.15765098 
   44500    295.55613   -1017.8398    149964.57   -47378.349    4058.7518   -51437.101   0.15421039 
   44600    294.89086   -994.66117    149955.02   -47380.786    4049.6158   -51430.402    0.1541076 
   44700    293.98265   -964.01782    149938.24   -47365.926    4037.1438   -51403.069   0.16035226 
   44800    296.21571   -970.46019    149944.13   -47326.367    4067.8094   -51394.176   0.15104723 
   44900     295.6466   -995.91758    149961.98   -47308.861    4059.9941   -51368.855   0.16139067 
   45000    292.11663   -961.57414    149966.68   -47348.823    4011.5185   -51360.341   0.15789517 
   45100    299.59263   -1001.3359     149978.7   -47234.574    4114.1833   -51348.758   0.16228638 
   45200    295.56072   -997.34318    149968.57   -47268.443    4058.8147   -51327.257    0.1635562 
   45300    301.67347   -979.10914    149981.59   -47299.881    4142.7586    -51442.64   0.15364722 
   45400    295.34135    -1002.234    149935.05   -47360.869    4055.8022   -51416.671   0.16297417 
   45500    302.00918   -1024.2746    149969.79   -47300.708    4147.3688   -51448.077   0.15442639 
   45600    294.33958   -1020.3978    149933.79    -47285.48    4042.0454   -51327.525   0.16587653 
   45700    301.39714   -984.33347    149968.55   -47241.988    4138.9639   -51380.952   0.16640218 
   45800    298.63918   -1010.7606    149952.19   -47321.001      4101.09   -51422.091   0.15817534 
   45900    304.06162   -981.81285    149975.04   -47183.689    4175.5542   -51359.243   0.16503421 
   46000    298.58038   -1013.4979    149976.25   -47248.719    4100.2826   -51349.001   0.16289183 
   46100    302.91962   -1026.0193    149998.65    -47153.81    4159.8715   -51313.681   0.16313876 
   46200    304.49416   -1005.7735    149995.59     -47212.5     4181.494   -51393.994   0.16699073 
   46300    302.38393   -1011.2219    149994.14   -47201.763    4152.5151   -51354.278   0.15924336 
   46400    301.84324   -1013.3176    149999.14   -47256.209      4145.09   -51401.299   0.15871419 
   46500    300.61592   -1001.7865    150017.56   -47218.819    4128.2358   -51347.055   0.16073598 
   46600    298.93877    -985.0873    149993.38   -47275.972    4105.2042   -51381.176   0.15463423 
   46700    301.83441   -1031.8966    150014.91   -47211.488    4144.9687   -51356.457   0.16653201 
   46800    300.11965   -1027.8026    150001.34   -47220.283    4121.4207   -51341.703   0.16087068 
   46900      302.037   -997.27101    149985.08   -47280.856    4147.7508   -51428.607    0.1576259 
   47000    301.38433   -973.87857    149988.42   -47317.435     4138.788   -51456.223   0.15884077 
   47100    300.84361   -992.98722     149974.7    -47323.67    4131.3626   -51455.033   0.15563501 
   47200    292.18155   -950.75703    149983.24    -47290.69      4012.41     -51303.1   0.15956655 
   47300    293.13979   -1015.4217    149950.77   -47417.239    4025.5691   -51442.808    0.1599369 
   47400    296.60837   -986.99905    149939.79   -47348.262    4073.2017   -51421.464   0.15568022 
   47500    299.44047    -1001.364    149975.39   -47360.721    4112.0938   -51472.815   0.15772231 
   47600    297.20972   -966.85919    149963.83   -47353.564    4081.4598   -51435.024    0.1588079 
   47700     299.3152   -1011.7042    149966.88   -47277.964    4110.3735   -51388.338   0.15942242 
   47800    304.28711     -1027.15    149938.31   -47338.162    4178.6507   -51516.813   0.15744871 
   47900    296.09987   -1020.3705    149919.78   -47385.174    4066.2187   -51451.393   0.15863023 
   48000    298.14273   -979.72739     149931.2   -47343.401    4094.2724   -51437.673   0.15500374 
   48100    296.54177   -981.02937     149923.2   -47378.868    4072.2871   -51451.155    0.1571867 
   48200    296.05617     -978.616    149941.46   -47372.825    4065.6186   -51438.444   0.16329275 
   48300    298.25294   -952.87232    149940.11   -47321.074    4095.7859   -51416.859   0.15477668 
   48400    296.50242   -1039.6495    149962.68   -47365.817    4071.7467   -51437.564   0.16220313 
   48500    293.51536   -1002.7216    149923.09   -47451.402    4030.7267   -51482.129   0.15905476 
   48600    292.71757   -1003.0791    149923.54   -47443.852    4019.7709   -51463.623   0.15178498 
   48700    293.85922   -995.29446    149952.85   -47335.336    4035.4487   -51370.785   0.16419411 
   48800    293.93984   -985.18157    149954.16   -47319.522    4036.5559   -51356.078   0.15809518 
   48900    298.92375    -973.5795    149959.51   -47347.753    4104.9978   -51452.751   0.15184196 
   49000    299.24876   -1003.1765    149949.32   -47381.582    4109.4611   -51491.043    0.1583445 
   49100    301.04155   -982.67058    149967.19   -47292.993    4134.0807   -51427.073   0.15340424 
   49200    297.58008   -982.48583    149971.33   -47327.693    4086.5457   -51414.239   0.15533956 
   49300    293.85077   -1014.6479     149944.1   -47401.064    4035.3326   -51436.397    0.1607668 
   49400    298.52555   -980.82264    149947.08   -47419.683    4099.5296   -51519.212   0.15042482 
   49500    298.53727   -990.12271    149964.71   -47356.582    4099.6905   -51456.272   0.16182907 
   49600    297.09455   -997.75493    149965.92    -47351.42    4079.8782   -51431.298    0.1565255 
   49700    296.67343   -1065.6973    149969.47   -47361.586    4074.0952   -51435.681   0.15574629 
   49800    293.79682   -1027.8294    149950.64   -47366.566    4034.5918   -51401.158   0.16105889 
   49900    294.82456     -964.737    149947.51   -47343.732    4048.7054   -51392.438   0.15459463 
   50000    299.30766   -1032.6164    149961.52   -47358.624      4110.27   -51468.894   0.15806881 
   50100    302.17581    -962.4733    149983.76   -47205.673    4149.6571    -51355.33   0.16211997 
   50200    298.20311    -997.2658    149986.79   -47281.247    4095.1017   -51376.349   0.15856419 
   50300    299.24744   -982.02337    149997.36   -47297.776    4109.4429   -51407.219   0.15762361 
   50400    298.93615    -989.9818    149990.71   -47316.251    4105.1681    -51421.42   0.15728851 
   50500    302.98069   -982.93529    149971.02   -47220.491    4160.7101   -51381.201   0.15992356 
   50600    302.61901    -1034.283     150023.5   -47152.642    4155.7433   -51308.385   0.16845792 
   50700     295.1186    -1012.823    149984.36   -47400.082    4052.7433   -51452.825    0.1576616 
   50800    291.92254   -1013.5515    149953.59   -47377.336    4008.8531   -51386.189   0.16330616 
   50900    294.48767   -1023.7133    149969.97    -47408.83     4044.079   -51452.909   0.15469285 
   51000    294.08173   -1013.8091    149976.73   -47362.145    4038.5044   -51400.649    0.1610657 
   51100    297.37328   -1005.2075    149978.94   -47375.344    4083.7059    -51459.05   0.15660878 
   51200    291.80793   -992.73139    149965.93   -47434.603    4007.2792   -51441.882   0.15087443 
   51300    293.08991    -1006.636    149947.26   -47444.395    4024.8841   -51469.279   0.15604588 
   51400     295.8497   -969.92532    149984.31   -47383.041    4062.7831   -51445.825   0.14927132 
   51500    294.80612   -989.93638    149954.99   -47432.167    4048.4521   -51480.619   0.15614239 
   51600    294.99924   -1042.0342    149966.94   -47352.034    4051.1042   -51403.138   0.16090777 
   51700    300.48509   -994.76732    149992.89   -47246.597    4126.4391   -51373.036   0.15656467 
   51800    300.30677   -963.80096    149969.21   -47293.148    4123.9903   -51417.138   0.16021203 
   51900    295.93583   -1018.3655    149977.94    -47364.69     4063.966   -51428.656   0.15916107 
   52000    295.08832   -1002.2146    149953.15   -47344.167    4052.3275   -51396.495   0.16084774 
   52100    289.61808   -1017.7418    149951.03   -47422.546    3977.2069   -51399.753   0.16014874 
   52200    294.40985   -1029.0996    149922.34   -47479.608    4043.0103   -51522.618    0.1580146 
   52300    291.49006   -1003.3517    149932.84   -47453.958     4002.914   -51456.872   0.15506009 
   52400    289.90808   -1013.7188    149913.79   -47546.667    3981.1893   -51527.856   0.15395999 
   52500    295.09223   -980.98735     149933.7   -47387.374    4052.3812   -51439.756   0.15787359 
   52600    294.69241   -988.76614    149942.05   -47353.709    4046.8906   -51400.599   0.16213479 
   52700    297.85181    -984.3648    149950.92   -47287.238    4090.2774   -51377.515   0.15769977 
   52800    301.44241   -985.37607     149984.4   -47259.111    4139.5856   -51398.696   0.16430074 
   52900    298.20388   -1000.2289    149972.87   -47283.527    4095.1122   -51378.639    0.1562481 
   53000    302.29183   -1007.8393    149971.49   -47228.813    4151.2503   -51380.064   0.16084809 
   53100    297.46685   -1015.0248    149943.75   -47373.717    4084.9909   -51458.708   0.16351829 
   53200     296.8126   -981.30104    149927.83   -47420.083    4076.0063   -51496.089   0.15283665 
   53300    291.75828   -987.92429    149959.63   -47385.749    4006.5974   -51392.346   0.16114669 
   53400    294.92399   -967.32887    149963.74     -47308.1    4050.0708   -51358.171   0.15552455 
   53500    292.94608   -1017.0815    149986.29   -47304.811     4022.909    -51327.72   0.16141672 
   53600    294.18137   -1038.7804    149963.44   -47377.773    4039.8727   -51417.645   0.16045175 
   53700    297.28115   -995.96683    149986.37   -47355.587    4082.4407   -51438.028    0.1563901 
   53800    294.27631   -979.24245    149966.35   -47380.513    4041.1764    -51421.69   0.15643812 
   53900    295.34683   -1010.2411    149940.35   -47385.209    4055.8775   -51441.087   0.16038867 
   54000    295.81294   -1017.3303     149933.6   -47396.769    4062.2784   -51459.047   0.15752812 
   54100    292.94212   -1038.5186    149948.06   -47369.184    4022.8546   -51392.038   0.16035911 
   54200    295.45538   -970.79863    149950.17   -47313.545    4057.3681   -51370.913   0.16107188 
   54300    302.27853   -1035.8472    149987.32   -47239.927    4151.0677   -51390.994   0.15628442 
   54400    301.38687   -983.40815    149996.63   -47153.516    4138.8228   -51292.339   0.16291753 
   54500    301.79979   -988.16352     150006.8   -47232.218    4144.4933   -51376.712   0.15886087 
   54600    298.42582   -1034.9314    149987.78   -47245.641    4098.1601   -51343.801   0.16415224 
   54700    296.52751   -1027.5457    149971.23    -47307.92    4072.0912   -51380.012   0.16033384 
   54800     300.1753   -979.73469    149987.58   -47240.568    4122.1849   -51362.753   0.15899684 
   54900     297.5331   -969.70616    149981.08   -47250.885    4085.9006   -51336.786    0.1611418 
   55000    297.91553   -973.93271    150005.34    -47286.18    4091.1524   -51377.332   0.15472976 
   55100    295.91006   -1033.4093    149985.63   -47307.738    4063.6121    -51371.35   0.16325581 
   55200    291.22086    -1005.477    149960.89   -47418.628    3999.2173   -51417.846   0.15474604 
   55300    294.79062   -1036.2432    149947.86   -47470.474    4048.2393   -51518.714   0.15885902 
   55400    297.04351   -1023.4465    149924.23   -47427.328    4079.1773   -51506.505   0.16034033 
   55500    299.03015   -1001.4036    149946.28   -47386.088    4106.4591   -51492.547   0.15217309 
   55600    297.08022    -1027.211    149969.29   -47279.657    4079.6814   -51359.338   0.16016116 
   55700    302.92364   -1002.4794    149998.31   -47237.339    4159.9267   -51397.265   0.15965696 
   55800    296.04474   -1007.1193    150028.77    -47224.62    4065.4616   -51290.082   0.15833813 
   55900    298.97821   -1018.5321    150016.11    -47242.21    4105.7458   -51347.956   0.16428766 
   56000    298.48033   -997.41988    150032.05   -47258.397    4098.9085   -51357.305   0.15934958 
   56100    308.66703    -973.9914       150018   -47241.073    4238.7983   -51479.871   0.15388647 
   56200     294.7899   -994.88755    149985.02   -47272.958    4048.2295   -51321.188   0.16466928 
   56300    297.72111   -995.09334     150008.4   -47352.207    4088.4825   -51440.689   0.14841371 
   56400     294.8571   -971.37336    149956.35   -47401.421    4049.1522   -51450.573   0.16216186 
   56500    289.61273   -1045.7078     149927.1   -47448.375    3977.1334   -51425.509   0.15989876 
   56600    288.70431   -1042.2654    149929.32    -47507.92    3964.6584   -51472.578   0.15598875 
   56700    292.51161   -997.62679    149941.05    -47484.43    4016.9426   -51501.372   0.15795343 
   56800    293.03393   -988.66928    149971.27   -47367.472    4024.1153   -51391.587   0.15362613 
   56900    291.86283   -961.78331    149959.68    -47460.82    4008.0331   -51468.853   0.15242452 
   57000    296.18392   -953.35757    149961.91   -47452.829    4067.3728   -51520.202   0.14650004 
   57100    296.69462   -976.12522     149983.8   -47364.762    4074.3862   -51439.148   0.15528928 
   57200    296.76582   -1016.2317    149991.81   -47314.327    4075.3638   -51389.691   0.15931745 
   57300    293.12866   -1013.3293    149964.96   -47459.336    4025.4163   -51484.752   0.15432946 
   57400    300.66915   -1022.5477    149972.95   -47335.597    4128.9667   -51464.564   0.15928332 
   57500     302.1809   -964.60505    149999.64   -47305.948    4149.7269   -51455.675   0.15261716 
   57600    296.78449   -973.41347    149952.51   -47418.551    4075.6203   -51494.172   0.15280549 
   57700    299.14521   -1008.4924    149969.53   -47328.672    4108.0391   -51436.712   0.15953756 
   57800     297.5423    -1007.042    149981.52   -47275.818    4086.0269   -51361.845   0.15867202 
   57900    300.06598   -1038.4302     149983.2   -47313.435    4120.6836   -51434.118   0.16074229 
   58000     298.7062    -999.7066    149999.12   -47273.797    4102.0104   -51375.807    0.1550618 
   58100    294.77282   -1003.6935    149989.82   -47322.491    4047.9949   -51370.486   0.15375514 
   58200    300.64682    -983.8873    150061.43   -47221.211    4128.6601   -51349.871   0.16090822 
   58300    298.93105   -1012.9779    150023.87   -47276.588    4105.0981   -51381.686   0.15180493 
   58400    300.95917   -1029.7867    149994.13   -47324.229    4132.9494   -51457.179   0.15984052 
   58500    298.70559   -980.78257    149977.47   -47333.654     4102.002   -51435.656    0.1542252 
   58600    292.36785   -995.09718    149947.55   -47366.588    4014.9683   -51381.556   0.15777731 
   58700    299.02795   -1004.1752     149957.4    -47318.66    4106.4287   -51425.089   0.15919804 
   58800     296.9313   -1011.8773    149956.98   -47364.203    4077.6363   -51441.839   0.15303321 
   58900    297.63087   -995.37542    149975.95   -47278.712    4087.2433   -51365.955   0.16078393 
   59000     303.9078   -1004.7728    149984.21   -47246.791    4173.4418   -51420.233   0.15682475 
   59100     304.3107   -987.02534    149973.88   -47200.979    4178.9747   -51379.953   0.15927633 
   59200    295.21585   -1016.3211    149957.77   -47327.443    4054.0788   -51381.522   0.16008785 
   59300    295.25158   -966.10399    149994.56   -47307.859    4054.5694   -51362.429   0.15561012 
   59400    295.63288   -1016.3719    149992.03   -47290.309    4059.8057   -51350.115   0.15770391 
   59500    292.68395   -986.71085    149955.97   -47403.183    4019.3093   -51422.492    0.1548975 
   59600    289.04015   -985.02574    149978.87   -47378.257    3969.2704   -51347.527    0.1558539 
   59700    300.72165    -978.6731     149994.2   -47310.146    4129.6877   -51439.833   0.16085641 
   59800    292.76953   -976.01261    149956.99   -47422.039    4020.4845   -51442.523   0.15171065 
   59900    289.32529   -1006.9012     149963.7   -47417.263    3973.1861   -51390.449   0.15726222 
   60000    296.17541   -990.42255    150006.78   -47384.403    4067.2561   -51451.659   0.15778547 
   60100    293.26259   -986.41587    150014.46   -47339.042    4027.2555   -51366.298   0.15293055 
   60200     298.5215   -989.56502       150017   -47302.511    4099.4739   -51401.985   0.15836827 
   60300    299.20431   -1019.3915    150017.41   -47260.757    4108.8507   -51369.608   0.15819417 
   60400    298.09926   -992.18636    150045.28   -47205.035    4093.6755    -51298.71   0.16055569 
   60500    294.90569   -1002.8382    150047.57   -47238.461    4049.8195   -51288.281   0.16260979 
   60600    302.08901   -1002.3655    150020.94   -47302.023    4148.4651   -51450.488   0.15590094 
   60700    301.55883   -982.95457    150042.65   -47115.535    4141.1844   -51256.719   0.16092219 
   60800    304.85066   -1014.2968    150040.57   -47143.441    4186.3897   -51329.831   0.16508059 
   60900    299.77595   -1006.4547    150026.08   -47244.724    4116.7007   -51361.424   0.15391827 
   61000    300.03784   -993.58315    149999.39   -47289.331    4120.2972   -51409.629   0.15966227 
   61100    297.87946   -1022.9785     150014.1   -47276.874     4090.657   -51367.531    0.1588278 
   61200    304.13668   -1008.2335     149996.4   -47214.651     4176.585   -51391.236   0.15732729 
   61300    298.96068   -1033.6465     149999.4   -47313.837    4105.5051   -51419.342   0.15905842 
   61400    294.29338   -1018.8702    149995.86   -47368.535    4041.4109   -51409.946   0.15471553 
   61500    299.29291   -985.05033    149998.51    -47308.98    4110.0673   -51419.047   0.15563584 
   61600    304.64893   -1004.1763    149999.48   -47350.023    4183.6194   -51533.642   0.15035943 
   61700    296.34384   -1028.6215    150003.24   -47414.391     4069.569    -51483.96   0.15605488 
   61800    295.76665   -1007.9102    149992.39   -47396.867    4061.6426    -51458.51   0.15578169 
   61900    299.40925   -1012.8455     150023.3   -47290.746    4111.6651   -51402.411   0.15545197 
   62000    296.91094    -1007.261    150028.31   -47307.137    4077.3567   -51384.493   0.16206196 
   62100    296.30097   -990.45438    149980.18   -47378.315    4068.9803   -51447.295   0.15072746 
   62200    299.64585   -993.58189     150017.7   -47270.696    4114.9142    -51385.61   0.16112141 
   62300     297.4124   -985.22224     149998.1   -47316.849    4084.2431   -51401.092   0.15683012 
   62400     298.0264   -1010.1088    149985.75   -47367.803     4092.675   -51460.478   0.15390828 
   62500    297.90229   -1018.0481    149966.55   -47352.765    4090.9705   -51443.736   0.15965274 
   62600    298.20929   -998.64668     149964.6    -47386.23    4095.1865   -51481.417   0.15385867 
   62700    295.19361   -1011.2225    149971.64     -47422.3    4053.7733   -51476.073   0.15424986 
   62800    293.46021   -1003.5621    149957.14   -47393.854    4029.9693   -51423.823   0.16022251 
   62900    297.13126   -988.58534    149993.23   -47297.522    4080.3824   -51377.904   0.15297781 
   63000     300.1695   -976.69708    150013.62   -47327.651    4122.1053   -51449.757     0.153566 
   63100    298.21033   -998.36272     149971.9   -47401.242    4095.2007   -51496.442   0.15669838 
   63200    297.68145    -1008.485    149997.52    -47274.49    4087.9379   -51362.428   0.15628779 
   63300    299.31365   -998.70094    149971.52   -47383.194    4110.3522   -51493.546   0.15725253 
   63400     288.3509   -980.31192    149940.04   -47472.837    3959.8052   -51432.642   0.15348196 
   63500    288.86148   -1022.9511    149950.35   -47444.718    3966.8168   -51411.535   0.15716864 
   63600    290.85696   -995.25915     149920.7   -47497.318      3994.22   -51491.538   0.14988604 
   63700    287.21315   -953.16979    149923.54   -47458.882     3944.181   -51403.063    0.1570858 
   63800    292.16387   -971.63485    149923.51   -47529.924    4012.1672   -51542.091   0.14922283 
   63900    291.42161   -1008.4717    149931.17   -47421.092    4001.9741   -51423.066   0.15797108 
   64000    296.24849   -1006.7167    149962.21   -47330.068    4068.2596   -51398.327   0.15773124 
   64100    299.34351   -984.52747    149962.93   -47281.803    4110.7623   -51392.565   0.15162987 
   64200    298.87358   -980.23263    149994.95   -47271.151    4104.3089    -51375.46   0.15713789 
   64300    294.29211   -1010.5141    149967.67   -47310.534    4041.3935   -51351.928   0.16066241 
   64400    292.02486   -1002.2018    149918.59   -47366.456    4010.2582   -51376.715   0.15939679 
   64500    295.65928   -999.08683    149941.89   -47359.598    4060.1683   -51419.766   0.15662674 
   64600    296.87677   -1018.7264    149938.35   -47399.062    4076.8876   -51475.949   0.15679209 
   64700    292.55219   -992.98282    149918.33   -47397.612    4017.4999   -51415.112   0.15321742 
   64800    295.29502   -990.80177    149928.07   -47341.228     4055.166   -51396.394   0.16128732 
   64900    303.47687   -1017.7047    149944.86   -47256.074    4167.5241   -51423.598   0.15764127 
   65000    300.58008   -1004.0832    149951.64   -47241.305    4127.7436   -51369.049   0.15958016 
   65100    298.91531   -1026.5829     149952.1   -47311.958     4104.882    -51416.84   0.16087474 
   65200    298.42241   -982.47775    149937.84   -47328.778    4098.1132   -51426.892   0.15525013 
   65300    298.16115   -1024.9053    149974.74   -47268.243    4094.5253   -51362.768   0.16222173 
   65400     300.4143   -1020.4907    149955.06   -47309.672     4125.467   -51435.139   0.15812416 
   65500    298.19886   -1015.9639    149953.63    -47242.01    4095.0433   -51337.054   0.16033423 
   65600    296.66016   -1003.3574    149980.17   -47257.097    4073.9129   -51331.009   0.15984063 
   65700    299.64152     -1013.78    149987.41   -47214.268    4114.8547   -51329.123   0.16108414 
   65800    302.80616   -1004.3386    150007.32   -47288.921    4158.3135   -51447.234   0.15459302 
   65900    295.34569   -1000.6629    149974.76   -47297.075    4055.8619   -51352.936   0.16208041 
   66000    301.51976   -998.06377    149975.47   -47303.846    4140.6477   -51444.493   0.15460215 
   66100    296.81763   -968.23069    149979.64    -47275.89    4076.0753   -51351.966    0.1573473 
   66200    292.25659   -980.74918    149920.81   -47406.305    4013.4405   -51419.745   0.15473059 
   66300    293.58073   -998.77202    149942.67   -47336.032    4031.6244   -51367.656   0.15731272 
   66400    296.09348   -981.67928    149939.38   -47339.323    4066.1309   -51405.454   0.15949771 
   66500    297.05264   -974.76161    149960.09   -47381.096    4079.3027   -51460.399    0.1510939 
   66600    296.24076   -1004.0573    149940.02   -47383.279    4068.1535   -51451.433   0.16091479 
   66700    295.23859   -1016.8459    149949.78   -47368.188    4054.3911    -51422.58   0.15213236 
   66800    295.70677   -992.20588    149936.87   -47396.539    4060.8204    -51457.36   0.15734822 
   66900    289.04427   -995.99567    149940.16   -47393.671     3969.327   -51362.998   0.15975715 
   67000    288.90911   -1016.2036    149916.59   -47505.091    3967.4709   -51472.562   0.14712399 
   67100    293.49725   -1004.8602    149924.03   -47334.713     4030.478   -51365.191   0.16598684 
   67200    291.21356   -1029.1787    149922.38   -47449.569     3999.117   -51448.686   0.15230877 
   67300    295.87636   -1001.1793    149908.59   -47363.314    4063.1493   -51426.463   0.15677429 
   67400    296.27395   -1003.9779    149921.28   -47340.007    4068.6092   -51408.616   0.15799656 
   67500    301.40533   -975.52683    149938.25   -47329.164    4139.0764   -51468.241   0.15281234 
   67600    302.25873   -970.96041    149992.93   -47177.672    4150.7958   -51328.468   0.16048259 
   67700    297.49976    -986.8084    149961.59   -47252.188    4085.4428    -51337.63    0.1646321 
   67800    298.30121   -1035.7522    149984.18    -47305.02    4096.4488   -51401.469   0.15638384 
   67900    295.88206   -975.97605    149976.23   -47336.662    4063.2276    -51399.89   0.16074708 
   68000    296.76583   -1038.7938    149961.22   -47375.906    4075.3641    -51451.27   0.15415373 
   68100    294.99017   -1001.7275    149953.55   -47381.299    4050.9796   -51432.278    0.1544294 
   68200    300.60354   -980.50384    149941.53   -47340.842    4128.0658   -51468.908   0.15642684 
   68300    300.59768   -974.51026     149999.6   -47283.046    4127.9853   -51411.031   0.15045182 
   68400    298.95523    -1031.291    149984.15   -47247.888    4105.4302   -51353.318   0.16427575 
   68500    301.66314   -1001.3733    149987.11   -47244.992    4142.6168   -51387.609    0.1556955 
   68600     294.4017   -1013.0875    149981.06    -47342.59    4042.8984   -51385.488   0.16193635 
   68700    295.27944   -1004.0504    149965.69   -47311.736     4054.952   -51366.688   0.15299635 
   68800    299.32155     -986.673    149972.15   -47317.328    4110.4607   -51427.788   0.15750467 
   68900    300.82713   -953.86442    149968.97   -47310.535    4131.1363   -51441.671   0.15609153 
   69000    296.74663   -1014.9951    149963.36   -47315.013    4075.1004   -51390.113   0.15628789 
   69100    298.84818   -1002.8049    149954.56   -47381.684    4103.9601   -51485.644   0.15961035 
   69200    293.53888   -1041.5404    149964.04   -47394.752    4031.0496   -51425.801   0.15647398 
   69300    295.14432   -1050.3492    149952.02   -47429.507    4053.0966   -51482.604   0.15271816 
   69400    289.39589   -987.70153    149958.83   -47477.027    3974.1557   -51451.183   0.15310832 
   69500    298.38942   -987.30387    149963.46   -47334.964    4097.6601   -51432.624   0.15574914 
   69600    299.35348   -996.35182    150011.82   -47228.846    4110.8992   -51339.746   0.15774346 
   69700    295.26431   -1006.7922    150005.37   -47328.231    4054.7443   -51382.975   0.15978284 
   69800    299.34611   -967.74361    149988.44   -47326.699     4110.798   -51437.497   0.14891226 
   69900    294.23494   -1006.3329    149969.98   -47425.127    4040.6084   -51465.735   0.15147941 
   70000    291.45567    -990.2531    149987.01   -47349.596    4002.4418   -51352.038    0.1561577 
   70100    294.68733   -1004.1603    149984.88   -47484.259    4046.8209    -51531.08   0.14488849 
   70200    298.85981   -971.58238    150012.82   -47308.347    4104.1197   -51412.467   0.15856831 
   70300    301.60013   -1032.3018     150006.1   -47320.746    4141.7514   -51462.497    0.1528256 
   70400    303.12014    -959.6003     150024.4   -47205.801    4162.6252   -51368.426   0.15648918 
   70500    299.54233   -994.31713    150030.94   -47286.053    4113.4925   -51399.546    0.1531582 
   70600    295.61492   -997.06008    150011.26   -47342.459     4059.559   -51402.018   0.15115272 
   70700    298.06319   -969.85832    150004.37   -47303.196    4093.1801   -51396.376   0.14867637 
   70800    299.41194    -986.0154    150018.46   -47346.369     4111.702   -51458.071   0.15289827 
   70900     296.9351   -981.82459    149987.29   -47336.269    4077.6886   -51413.958   0.15347928 
   71000    298.52574   -1020.4859    150011.09   -47358.347    4099.5321   -51457.879   0.15477985 
   71100    293.66267   -988.80178    149980.61    -47347.94    4032.7497    -51380.69   0.15623864 
   71200    298.27793   -1010.2068    150006.59   -47391.691     4096.129    -51487.82   0.15094145 
   71300    298.28686   -993.47447    149972.15   -47441.113    4096.2517   -51537.364    0.1525057 
   71400    298.18508   -992.96516    149960.72   -47378.815     4094.854   -51473.669   0.15094481 
   71500    295.01615   -982.53862    149981.25   -47325.266    4051.3364   -51376.603   0.15572847 
   71600    300.66096   -991.67137    150001.27    -47346.94    4128.8542   -51475.794   0.14579566 
   71700    298.58346   -1000.4549    149980.97   -47333.818    4100.3248   -51434.142   0.15987158 
   71800    295.07361    -1011.212    149944.27   -47510.256    4052.1255   -51562.381   0.14863985 
   71900    291.27211   -1002.3586    149913.38   -47450.071     3999.921   -51449.992   0.15390524 
   72000    293.82669   -977.31823    149916.68   -47411.956     4035.002   -51446.958   0.15849597 
   72100     294.8701   -997.08147    149966.61   -47275.762    4049.3308   -51325.093   0.15581102 
   72200     305.4237   -1002.4872    150014.06   -47166.771     4194.259    -51361.03     0.163079 
   72300    305.20991   -972.87562    150040.93   -47142.722    4191.3232   -51334.046   0.16015199 
   72400    296.11072   -989.76661    149983.77   -47261.211    4066.3677   -51327.579   0.15525238 
   72500    304.87908   -1012.6361    150004.17   -47262.921      4186.78   -51449.701    0.1620503 
   72600     303.6854   -974.75034    150008.02   -47198.743    4170.3876   -51369.131    0.1539724 
   72700    295.12205   -1033.4882    149967.71   -47369.406    4052.7906   -51422.197   0.15968216 
   72800    300.68328   -980.83757    149973.85   -47295.155    4129.1608   -51424.315   0.15868633 
   72900    295.61108   -1009.7856    149964.52   -47301.075    4059.5063   -51360.581   0.15364593 
   73000    299.77832   -1048.7947    149960.37   -47316.689    4116.7333   -51433.422   0.16305728 
   73100    298.56699   -993.98209    149963.24   -47265.412    4100.0987    -51365.51   0.15601561 
   73200    301.23731   -1007.4194    149982.86   -47254.126     4136.769   -51390.895    0.1638633 
   73300    298.43123   -1033.7081    149985.32   -47230.828    4098.2342   -51329.062   0.16101623 
   73400    299.99262   -985.00661    149988.06   -47211.313    4119.6763    -51330.99   0.16053749 
   73500    298.63679    -980.6458    149996.94   -47214.482    4101.0571   -51315.539   0.16516378 
   73600    298.34865   -1028.9133    149989.14   -47259.834    4097.1002   -51356.934   0.15465011 
   73700    294.26223   -999.01281    149979.75   -47319.425    4040.9831   -51360.408   0.16536879 
   73800     294.6504   -985.83181    149958.09   -47414.095    4046.3136   -51460.408   0.15054048 
   73900    296.86914   -961.07878    149962.98   -47392.808    4076.7827   -51469.591   0.14990799 
   74000    298.32878   -997.69127     149985.4   -47316.923    4096.8274   -51413.751   0.16334818 
   74100    301.84255   -1001.7286    150036.24   -47147.537    4145.0805   -51292.617   0.15604376 
   74200    297.21625   -1004.7092    150002.89   -47314.047    4081.5495   -51395.597   0.16146334 
   74300    300.79067   -961.26999    149985.73   -47313.127    4130.6355   -51443.763    0.1566098 
   74400    292.94212   -1033.9646    149988.06   -47347.367    4022.8546   -51370.221    0.1600022 
   74500    296.20477   -1005.1215    149977.19   -47364.225    4067.6593   -51431.884   0.16255743 
   74600    296.07982   -1017.2686    149989.56   -47373.919    4065.9433   -51439.862   0.15709262 
   74700    297.53173   -990.34198       149987   -47276.694    4085.8818   -51362.576   0.15579103 
   74800    298.09545   -989.18631    149970.64   -47338.096    4093.6231   -51431.719   0.15770792 
   74900    293.58206    -997.4654    149969.11   -47339.054    4031.6427   -51370.697   0.15570096 
   75000    295.75506   -1011.5656     149945.9    -47319.33    4061.4836   -51380.814    0.1610699 
   75100     299.5365    -995.7643    149975.79   -47244.425    4113.4125   -51357.837   0.16126386 
   75200    299.39221   -1018.1244    149951.02   -47292.656     4111.431   -51404.087   0.16137304 
   75300    292.88742   -1040.2731     149932.6   -47347.144    4022.1034   -51369.248   0.15864088 
   75400    297.28149   -1009.5717    149967.44   -47360.942    4082.4454   -51443.387   0.16302395 
   75500    298.56143   -991.94724    149954.51   -47356.689    4100.0222   -51456.711   0.15626847 
   75600    297.13554    -1042.625    149998.19   -47285.904    4080.4411   -51366.345    0.1547027 
   75700    300.97869     -1010.29    150036.97   -47242.698    4133.2175   -51375.916    0.1624482 
   75800    299.89762    -975.4313    150032.19   -47263.528    4118.3717     -51381.9   0.15192753 
   75900    297.50018   -962.23038    150003.07   -47282.478    4085.4485   -51367.926   0.15833877 
   76000    300.94905   -962.12914    150004.47   -47289.398    4132.8104   -51422.208   0.15594907 
   76100    293.88753    -1011.152    149981.47   -47383.952    4035.8376    -51419.79   0.15283477 
   76200    293.35849   -994.11515    149978.46   -47431.783    4028.5724   -51460.355   0.15245839 
   76300    296.47105   -1002.1374    150000.62   -47370.633    4071.3159   -51441.949   0.15775068 
   76400    294.97616   -1024.9936    149989.75   -47365.064    4050.7873   -51415.851   0.15535298 
   76500    297.88941   -1021.7182    149992.05   -47355.753    4090.7936   -51446.547   0.15504907 
[...]
   81900    294.05015   -1013.9881    149945.77   -47390.063    4038.0707   -51428.134   0.15629644 
   82000    298.43078   -957.27782    149960.71   -47294.915    4098.2282   -51393.143    0.1564183 
   82100    297.66347    -1006.854    149965.55   -47242.842    4087.6909   -51330.533   0.16424123 
   82200     296.9162   -1004.4592    149983.93   -47256.891     4077.429    -51334.32   0.15765118 
   82300    294.21264   -1043.4767    149971.76   -47330.892    4040.3021   -51371.194   0.16501199 
   82400    301.24078   -1023.3488    149984.26    -47205.98    4136.8167   -51342.797   0.16046836 
   82500    304.05989    -998.5248    150010.33   -47099.073    4175.5304   -51274.603   0.16249225 
   82600     298.7532    -1003.749    149997.05   -47198.881    4102.6558   -51301.537   0.16507105 
   82700    298.77192   -985.10437    149984.11   -47281.556    4102.9128   -51384.469    0.1528744 
   82800    298.93279    -998.1321    149951.14    -47292.82     4105.122   -51397.942   0.15950536 
   82900    301.76947   -967.58303    149971.55   -47246.315     4144.077   -51390.392   0.15811896 
   83000    301.84072   -977.93218    149975.42    -47181.77    4145.0554   -51326.825   0.15957859 
   83100     296.6245   -1037.0833    150009.33   -47236.604    4073.4233   -51310.028   0.16461827 
   83200    297.14402   -1032.6584    149973.54   -47269.316    4080.5576   -51349.873   0.16248155 
   83300    297.60893   -949.38019    149968.34   -47252.274     4086.942   -51339.216   0.15439168 
   83400    297.19098   -1036.2525    149994.13   -47345.621    4081.2024   -51426.824     0.158049 
   83500    295.64999   -972.68086    149939.13   -47447.701    4060.0407   -51507.742   0.14816245 
   83600      295.266   -993.64893    149953.83    -47393.77    4054.7675   -51448.538    0.1507798 
   83700    296.07718   -999.86204    149959.85   -47427.147    4065.9071   -51493.054   0.15724361 
   83800    295.45996   -985.72088    149955.82   -47383.994    4057.4311   -51441.425    0.1489531 
   83900    290.20474   -994.55165    149932.46   -47382.373    3985.2632   -51367.636   0.15797021 
   84000    295.88441   -998.92105    149911.33   -47399.445    4063.2598   -51462.705   0.16101791 
   84100      290.742   -997.61808    149923.21   -47321.622    3992.6412   -51314.263   0.15850952 
   84200    295.61707   -1036.9713    149966.39   -47280.024    4059.5886   -51339.612   0.16102659 
   84300    294.18169   -1016.5431    149951.67   -47333.356    4039.8772   -51373.233   0.15615798 
   84400    292.39973   -1049.3079    149946.09   -47333.333    4015.4061   -51348.739   0.15730795 
   84500    296.38571   -1017.8924    149928.73   -47388.369     4070.144   -51458.513   0.15555922 
   84600    295.36695   -1011.5008    149945.26   -47293.666    4056.1538    -51349.82   0.15628051 
   84700    301.62056   -1023.3125    149955.99   -47308.352    4142.0321   -51450.384   0.15970074 
   84800    300.59764   -976.17028    149948.65   -47301.745    4127.9848    -51429.73   0.15789151 
   84900    304.58885   -986.87002     149986.5   -47219.409    4182.7943   -51402.204   0.15586812 
   85000    298.78223   -1006.8811    149940.51   -47288.594    4103.0545   -51391.648   0.15972143 
   85100    302.69481    -996.8163    149911.62    -47311.16    4156.7842   -51467.945   0.15536118 
   85200    296.79238   -1019.2739    149917.03   -47352.017    4075.7286   -51427.745   0.16070008 
   85300    291.16672   -1033.1663    149940.03    -47363.56    3998.4738   -51362.034   0.15318002 
   85400    292.46334   -1013.7131    149921.35   -47394.362    4016.2797   -51410.641   0.15732305 
   85500     293.1196   -1008.7913    149933.73   -47336.688    4025.2919    -51361.98   0.15727163 
   85600    296.87774   -985.68548    149943.27   -47376.445    4076.9008   -51453.346   0.14873354 
   85700    302.24281   -959.31059    149940.41   -47308.807    4150.5771   -51459.384   0.16304329 
   85800    293.69085    -989.7795       149966    -47305.27    4033.1366   -51338.407   0.15260434 
   85900    298.17782   -999.81293     149989.6    -47273.89    4094.7543   -51368.645   0.15695559 
   86000    300.59159   -987.72351    149937.41   -47324.054    4127.9016   -51451.956   0.15665336 
   86100    300.67119   -953.97802     149921.4   -47293.126    4128.9947   -51422.121   0.14860997 
   86200    292.73739   -1002.0417    149969.52   -47262.438    4020.0432   -51282.481   0.16638417 
   86300    305.51795   -973.75717    149960.46   -47314.484    4195.5533   -51510.037   0.15347934 
   86400    294.12673   -1040.5425    149950.66   -47376.874    4039.1224   -51415.997   0.15742813 
   86500    295.18664   -1034.6384    149951.09    -47404.02    4053.6777   -51457.698   0.15879589 
   86600    294.82557   -986.88654    149999.37   -47239.983    4048.7192   -51288.703   0.15656934 
   86700     298.4027   -1015.7044    150001.49   -47245.009    4097.8424   -51342.852   0.16164879 
   86800    292.08001   -1027.0996    149975.54   -47371.404    4011.0156    -51382.42   0.15281742 
   86900    301.44424    -962.9827    149980.05   -47352.872    4139.6107   -51492.483   0.15099177 
   87000    297.31765   -969.51006    149981.05   -47323.167     4082.942   -51406.109    0.1590517 
   87100    299.24734   -980.07602    150006.16   -47298.695    4109.4416   -51408.137   0.14995377 
   87200    298.42916   -991.51286    150009.99    -47231.02    4098.2059   -51329.226   0.16408408 
   87300    298.07601   -997.45856    150014.67   -47239.979    4093.3562   -51333.335   0.15531599 
   87400    296.57488    -1018.102    150010.16   -47296.972    4072.7418   -51369.714   0.15392589 
   87500    302.58035   -976.92566    150005.58   -47275.909    4155.2125   -51431.122   0.15650332 
   87600    300.55884    -1013.112    149971.95   -47295.626    4127.4518   -51423.078   0.15009446 
   87700    295.59668   -985.11155    149980.53   -47267.898    4059.3086   -51327.207   0.16589231 
   87800    289.65925   -1039.3339    149975.29   -47357.124    3977.7723   -51334.897   0.15610113 
   87900    287.07712    -1020.587    149952.86   -47377.982     3942.313   -51320.295   0.15421016 
   88000     293.8943   -1014.4616    149960.91    -47343.04    4035.9304    -51378.97   0.16394045 
   88100    297.68004    -1007.466    149982.15   -47314.439    4087.9185   -51402.358   0.15338236 
   88200     290.6317   -1006.6343    149950.17    -47413.87    3991.1266   -51404.997   0.15714005 
   88300    299.08792   -997.51879    149970.24   -47356.828    4107.2524    -51464.08   0.15511496 
   88400    295.89957   -989.74664     149985.5   -47283.165     4063.468   -51346.633   0.15507416 
   88500     296.7801   -979.62128    149999.36   -47359.812    4075.5601   -51435.372   0.15295872 
   88600    298.70544   -999.42569    149982.67   -47351.802    4101.9999   -51453.802   0.15056532 
   88700    301.93866   -1007.3073     150004.7   -47320.455    4146.4004   -51466.855   0.15355057 
   88800    291.02017   -1007.5403    150008.05   -47386.007    3996.4612   -51382.468   0.15403376 
   88900    298.16518   -994.80217    150015.97   -47321.893    4094.5807   -51416.474   0.15141451 
   89000    299.18287   -987.56052    150047.46   -47289.564    4108.5563    -51398.12    0.1575102 
   89100    296.17687   -991.04069    150039.55   -47344.906    4067.2761   -51412.182   0.15214461 
   89200    292.94587   -999.13434    150012.49   -47289.811    4022.9061   -51312.717   0.15829916 
   89300    291.83279    -1026.813    149985.71   -47416.388    4007.6207   -51424.009   0.15283595 
   89400    299.01825   -1029.4639     150000.8   -47314.386    4106.2956   -51420.681   0.15761334 
   89500    293.48872   -1010.9442     150012.4   -47417.474    4030.3608   -51447.834   0.15784451 
   89600    291.10535   -1002.7266    149979.76   -47440.409     3997.631    -51438.04   0.14994654 
   89700    296.89481   -977.79866    150020.57   -47356.581    4077.1352   -51433.717   0.15188568 
   89800    300.83222   -986.27845    150048.78   -47288.547    4131.2061   -51419.753   0.15451206 
   89900    300.21709   -973.86138    150061.81   -47268.503    4122.7588   -51391.262   0.15064316 
   90000    301.43484   -1015.0719    150043.43    -47298.07    4139.4816   -51437.552   0.15780478 
   90100    298.91685   -1017.0628    150034.27   -47277.877    4104.9031    -51382.78   0.15637139 
   90200    294.16985   -1030.5124    150042.01   -47357.207    4039.7145   -51396.922   0.15178426 
   90300    299.64149   -976.61172    150030.63   -47332.049    4114.8543   -51446.903   0.15656401 
   90400    298.02751   -974.26956    150049.16   -47319.028    4092.6902   -51411.718   0.14874659 
   90500    295.40522   -1026.0152    150019.57   -47325.675    4056.6793   -51382.355   0.15502425 
   90600    297.01129   -1017.2367    150015.35    -47349.99    4078.7348   -51428.725   0.16040069 
   90700    293.66763   -1010.4588    150002.47   -47382.978    4032.8177   -51415.796   0.15022653 
   90800    294.80203   -983.26276    149998.88   -47400.611    4048.3959   -51449.007   0.15611228 
   90900    291.03596   -1004.3133    150002.58   -47374.123    3996.6781   -51370.801   0.15548757 
   91000    294.15222   -1022.1099    149984.98   -47392.985    4039.4724   -51432.457   0.15176168 
   91100    290.42133   -992.51206    149963.51   -47502.715    3988.2376   -51490.953   0.15262708 
   91200    294.85398   -987.14202    149976.97   -47444.208    4049.1093   -51493.317   0.14770933 
   91300    294.84505   -991.63965    149977.82   -47374.164    4048.9868   -51423.151   0.15469336 
   91400    300.20251   -973.66392    150004.39   -47351.454    4122.5585   -51474.012   0.15142799 
   91500    300.34447   -983.52338    150033.12   -47181.189     4124.508   -51305.697   0.15616901 
   91600    301.22894   -973.02312    150036.71   -47250.118    4136.6541   -51386.772   0.15886518 
   91700    294.60091   -1022.4569    150036.67   -47325.459    4045.6341   -51371.093   0.15452285 
   91800    300.62149    -1024.259    150029.46   -47294.809    4128.3123   -51423.121   0.15770613 
   91900    296.83931   -998.06546    150033.99   -47286.505    4076.3731   -51362.878    0.1535614 
   92000    294.98823   -1032.3177    150021.45   -47336.545     4050.953   -51387.498   0.15501713 
   92100    290.51617   -1015.2732    150020.08   -47318.306      3989.54   -51307.846   0.16625105 
   92200    296.57666   -1000.9519    150014.21   -47352.445    4072.7662   -51425.211   0.14974711 
   92300    302.00172   -979.21395    150037.88   -47225.336    4147.2664   -51372.603   0.16361401 
   92400    300.21614   -983.78342    150047.48   -47271.937    4122.7457   -51394.683    0.1482829 
   92500    302.64778   -963.49007    150058.48   -47266.737    4156.1384   -51422.875   0.14695976 
   92600    301.72227   -994.91255    150054.94   -47169.858    4143.4288   -51313.287   0.16987697 
   92700    297.77114   -1014.2266    150073.36   -47302.482    4089.1696   -51391.652   0.14899038 
   92800    299.50611   -998.06168    150041.19   -47317.021    4112.9951   -51430.016   0.15841032 
   92900     296.7991   -991.28606    150033.41   -47353.366     4075.821   -51429.187   0.14808526 
   93000      300.158   -983.04382    149984.26   -47357.851    4121.9473   -51479.798   0.14864374 
   93100    298.46627    -954.7125    150018.64   -47272.724    4098.7155   -51371.439   0.16214502 
   93200    299.42119   -1012.5601    150038.96     -47338.4    4111.8289   -51450.229   0.14904037 
   93300    294.18684   -1020.8345     150013.8   -47389.738    4039.9479   -51429.686   0.15571335 
   93400    288.08446   -996.19901    150015.64   -47446.775    3956.1464   -51402.921   0.14939379 
   93500    290.49101   -1035.9449    150006.55   -47446.809    3989.1945   -51436.003   0.15034238 
   93600    291.91983   -1013.7052       150017    -47400.14    4008.8159   -51408.956    0.1567653 
   93700    294.67235   -984.74091    150005.78   -47372.291    4046.6152   -51418.907   0.15186012 
   93800    296.01185   -1012.8589    149990.33   -47372.638    4065.0099   -51437.648   0.15515097 
   93900    292.97382   -986.22936    149982.23   -47446.583      4023.29   -51469.873   0.14749609 
   94000    298.28617   -982.94468    149987.04   -47413.937    4096.2422   -51510.179   0.14765494 
   94100    295.21461   -968.89104    150021.74   -47298.794    4054.0618   -51352.855    0.1603409 
   94200    301.75361   -985.24151    150036.47   -47280.063    4143.8592   -51423.922   0.14943349 
   94300    301.12102   -992.94533    149995.79   -47292.829     4135.172   -51428.001   0.15606271 
   94400    297.47815   -990.33464     150000.7   -47282.477     4085.146   -51367.623   0.15326334 
   94500    298.48313   -1003.3154    150029.86   -47293.211     4098.947   -51392.158   0.15282356 
   94600    296.36669   -974.00366    150016.44   -47296.214    4069.8828   -51366.097   0.15941129 
   94700    296.30408   -1013.0217    150020.08   -47345.323    4069.0229   -51414.346   0.15059951 
   94800    298.48351   -962.53261    150023.07   -47382.945    4098.9522   -51481.897   0.15155029 
   94900    290.63486   -1000.6766    150018.65    -47412.24    3991.1699    -51403.41   0.15275184 
   95000    289.00519   -1010.3798    150016.55   -47371.459    3968.7903    -51340.25    0.1556776 
   95100    297.25686   -1027.4794    150016.14   -47330.338    4082.1072   -51412.445   0.15455096 
   95200    297.54653   -991.06251    150021.42   -47363.056    4086.0851   -51449.141   0.15498364 
   95300    291.65368   -1007.4853    150015.35   -47309.411    4005.1609   -51314.571   0.15720844 
   95400    296.42828   -1008.3454    150036.14   -47281.622    4070.7286    -51352.35   0.15678114 
   95500    295.94597   -1013.6432    150014.95    -47296.59    4064.1052   -51360.695   0.15967783 
   95600    297.12577   -954.96091    150019.84   -47281.103     4080.307    -51361.41   0.15089365 
   95700    296.87195   -1007.5328    150005.61   -47323.973    4076.8214   -51400.794   0.15460164 
   95800    301.70925   -993.31491    150005.44   -47262.032      4143.25   -51405.282   0.15583764 
   95900    301.89055   -999.37785    150004.81   -47285.317    4145.7397   -51431.057   0.15662805 
   96000    304.05992   -1016.8409    150007.08   -47256.947    4175.5308   -51432.478    0.1587848 
   96100    305.31734   -1016.3683    149996.51   -47198.774    4192.7984   -51391.572   0.15985034 
   96200     302.9295   -1011.1732    150004.85   -47223.132    4160.0072   -51383.139   0.15664103 
   96300    298.96133   -1011.9463    149986.92   -47239.179    4105.5139   -51344.693   0.16000718 
   96400    304.31552   -1045.5618       149983   -47294.453    4179.0408   -51473.494   0.15592059 
   96500    300.61583   -1002.9293    149975.11   -47281.423    4128.2345   -51409.657   0.15576499 
   96600    296.44964   -1020.4222    149964.53   -47341.284     4071.022   -51412.306   0.15816825 
   96700    299.03781   -1005.3049    149958.96   -47306.406    4106.5641    -51412.97   0.15886391 
   96800    297.03164   -997.73272    149990.26   -47330.606    4079.0143    -51409.62   0.15105319 
   96900    305.78145   -953.27255    149977.33   -47338.366    4199.1718   -51537.538   0.15601158 
   97000    293.15476     -993.872    149951.66   -47411.571    4025.7747   -51437.346   0.15375805 
   97100    299.83866   -984.78529    149991.95   -47388.882     4117.562   -51506.444   0.14836747 
   97200    296.39088   -977.11454    149983.25   -47323.101     4070.215   -51393.316   0.16314735 
   97300    297.02571   -1001.6202    150035.48   -47210.691    4078.9329   -51289.624   0.15268717 
   97400    297.53111   -1045.9717    149998.67   -47311.564    4085.8733   -51397.437   0.16072051 
   97500    297.95464   -1013.8601    149994.62   -47278.913    4091.6895   -51370.602   0.16149929 
   97600    299.16483   -979.45936    150012.87   -47214.435    4108.3085   -51322.743   0.15390477 
   97700    303.88058   -979.00057    150030.83   -47172.609     4173.068   -51345.677   0.16645709 
   97800    299.11216   -1000.1725    150010.73   -47288.266    4107.5852   -51395.851   0.15221957 
   97900    299.48463   -1001.5167    150006.79   -47242.511    4112.7002   -51355.211   0.15991253 
   98000    297.57324   -1008.5634    149961.95   -47336.667    4086.4519   -51423.119   0.16177221 
   98100    298.75204   -1013.8343    149988.11   -47316.492    4102.6398   -51419.132    0.1518282 
   98200    300.07331   -1009.0091    149990.58    -47310.73    4120.7843   -51431.514     0.161241 
   98300    301.16385   -993.31288     150014.1    -47249.04    4135.7603     -51384.8   0.15106698 
   98400    301.00139   -1002.3065    149993.54   -47293.822    4133.5293   -51427.351   0.15637136 
   98500    302.71172   -994.10809    149968.52   -47264.906    4157.0166   -51421.923   0.15650981 
   98600    299.11576   -1021.0714    149983.49   -47278.426    4107.6346   -51386.061   0.15778615 
   98700    300.83205   -1013.1389    149974.62   -47243.477    4131.2038   -51374.681    0.1667182 
   98800    298.49319    -1033.441    149991.69    -47252.53    4099.0851   -51351.615   0.15330109 
   98900     297.1112   -1036.2954    149956.28   -47315.117    4080.1069   -51395.224   0.16170684 
   99000    297.90516   -985.04377    149954.53   -47306.359      4091.01   -51397.369   0.15198187 
   99100    292.14124   -1013.9611    149935.49   -47371.538    4011.8565   -51383.395   0.15533081 
   99200    295.59489   -1024.3113    149957.56    -47373.46    4059.2841   -51432.744   0.16805628 
   99300    301.20399    -964.4541    149973.93   -47298.214    4136.3114   -51434.526   0.14804142 
   99400    297.09036   -977.97134    149941.84   -47339.865    4079.8207   -51419.686    0.1601667 
   99500    297.71633   -1011.5038    149960.93    -47290.76    4088.4168   -51379.177   0.15933074 
   99600    294.89208    -994.0596    149960.44   -47288.561    4049.6326   -51338.194   0.15540605 
   99700    296.49465   -1011.4864    149976.82   -47333.648      4071.64   -51405.288   0.16286718 
   99800    299.47501   -1007.4203    149978.47   -47354.341    4112.5681   -51466.909   0.14955762 
   99900    297.72262    -997.3056    149950.09   -47407.904    4088.5032   -51496.408   0.15410642 
  100000    300.10542   -1007.6807    149938.99   -47313.487    4121.2253   -51434.712   0.15503074 
Loop time of 51.0892 on 6 procs for 100000 steps with 4608 atoms

Performance: 845.580 ns/day, 0.028 hours/ns, 1957.360 timesteps/s
98.0% CPU use with 6 MPI tasks x no OpenMP threads

MPI task timing breakdown:
Section |  min time  |  avg time  |  max time  |%varavg| %total
---------------------------------------------------------------
Pair    | 37.655     | 37.87      | 38.167     |   3.3 | 74.13
Neigh   | 5.3705     | 5.494      | 5.7086     |   6.1 | 10.75
Comm    | 4.8633     | 5.0123     | 5.3285     |   7.7 |  9.81
Output  | 0.17347    | 0.17455    | 0.179      |   0.5 |  0.34
Modify  | 1.8602     | 1.9175     | 1.9773     |   3.1 |  3.75
Other   |            | 0.6209     |            |       |  1.22

Nlocal:        768.000 ave         778 max         761 min
Histogram: 1 0 3 0 0 0 0 1 0 1
Nghost:        1394.50 ave        1404 max        1386 min
Histogram: 1 0 0 2 0 2 0 0 0 1
Neighs:        0.00000 ave           0 max           0 min
Histogram: 6 0 0 0 0 0 0 0 0 0
FullNghs:      21857.3 ave       22124 max       21647 min
Histogram: 1 0 2 1 0 0 0 1 0 1

Total # of neighbors = 131144
Ave neighs/atom = 28.460069
Neighbor list builds = 6427
Dangerous builds = 0

undump              1
unfix               2
unfix               3
unfix               4




################################################
#######         Run Simulation         #########
################################################

reset_timestep      0
log                 log.run_${NAME}
log                 log.run_ice_298K_-1000atm_ML
