
# Set production fixes - Nose/Hoover
#
fix                 2 all nph iso ${PRES} ${PRES} ${PCOUPL}
fix                 2 all nph iso -1000 ${PRES} ${PCOUPL}
fix                 2 all nph iso -1000 -1000 ${PCOUPL}
fix                 2 all nph iso -1000 -1000 10000.0
fix                 3 all temp/csvr ${TEMP} ${TEMP} ${TCOUPL} 837492
fix                 3 all temp/csvr 298 ${TEMP} ${TCOUPL} 837492
fix                 3 all temp/csvr 298 298 ${TCOUPL} 837492
fix                 3 all temp/csvr 298 298 5000.0 837492

# Define Order parameter
#
compute             2 all orientorder/atom nnn NULL cutoff 3.5
thermo              200
thermo_style        custom step temp press vol etotal ke pe c_1[4]

# Run 1ns simulation
dump		    1 all custom 400 prod.${NAME}.dump id type x y z vx vy vz c_2[*]
dump		    1 all custom 400 prod.ice_298K_-1000atm_ML.dump id type x y z vx vy vz c_2[*]
run                 200000
Neighbor list info ...
  update every 1 steps, delay 0 steps, check yes
  max neighbors/atom: 2000, page size: 100000
  master list distance cutoff = 6.0032907
  ghost atom cutoff = 6.0032907
  binsize = 3.0016454, bins = 20 18 18
  2 neighbor lists, perpetual/occasional/extra = 1 1 0
  (1) pair sw, perpetual
      attributes: full, newton on
      pair build: full/bin/atomonly
      stencil: full/bin/3d
      bin: standard
  (2) compute orientorder/atom, occasional, copy from (1)
      attributes: full, newton on
      pair build: copy
      stencil: none
      bin: none
Per MPI rank memory allocation (min/avg/max) = 5.822 | 5.822 | 5.822 Mbytes
Step Temp Press Volume TotEng KinEng PotEng c_1[4] 
       0    300.10542   -1007.4654    149938.99   -47313.496    4121.2253   -51434.722   0.15503074 
     200    300.00483   -997.04047    149970.99   -47304.169    4119.8439   -51424.013   0.15661135 
     400    296.51685   -1018.8859    150004.07    -47297.85    4071.9449   -51369.795   0.15831634 
     600    298.03627   -1029.7031    149999.79   -47337.861    4092.8105   -51430.671   0.15807004 
     800    299.47477   -983.36496     149974.2   -47353.823    4112.5647   -51466.388   0.15181262 
    1000    297.75197   -985.91438    149963.64   -47367.598    4088.9064   -51456.504   0.14949553 
    1200    295.75995   -1004.7532    149965.44   -47393.943    4061.5507   -51455.494   0.15825537 
    1400    296.86573   -999.12275     149992.7   -47384.026    4076.7359   -51460.761   0.15080269 
    1600    294.31342   -1020.8896    150022.57   -47387.111    4041.6862   -51428.797   0.14999668 
    1800    291.53126   -1029.2035    150015.39   -47393.857    4003.4798   -51397.337   0.16159905 
    2000    293.79927   -989.25804    149984.28   -47347.484    4034.6255   -51382.109   0.15941865 
    2200    294.14423   -1019.8295     149986.1   -47315.999    4039.3626   -51355.362   0.14989716 
    2400    296.25651   -959.25194    149990.85   -47334.871    4068.3697   -51403.241   0.14768923 
    2600    295.03305   -1000.3386    149999.73   -47380.848    4051.5685   -51432.417   0.15658891 
    2800    298.52661   -937.61167    149969.61   -47399.137    4099.5441   -51498.681   0.15410746 
    3000    291.74141     -1061.19     149997.9   -47411.201    4006.3658   -51417.566   0.15781797 
    3200    297.19475   -1011.6699    149997.89    -47355.97    4081.2543   -51437.224   0.15561403 
    3400    300.69725   -977.13902    149948.79   -47398.223    4129.3527   -51527.576   0.14665873 
    3600    292.46737   -976.05537    149907.45   -47427.743    4016.3351   -51444.078   0.15102546 
    3800    291.89834   -996.31312    149991.96   -47350.514    4008.5208   -51359.034   0.15848206 
    4000    294.84214   -1074.6783    150072.69   -47343.399    4048.9467   -51392.346   0.16329062 
    4200    295.92913   -955.54909    149966.22   -47362.699     4063.874   -51426.573   0.14679518 
    4400    297.35877   -947.86684    149893.19   -47351.073    4083.5067    -51434.58   0.14935587 
    4600    296.09816   -1050.1486    150019.15   -47328.624    4066.1952   -51394.819   0.15956331 
    4800    304.68971   -1084.8222    150101.34   -47317.364    4184.1795   -51501.544   0.15798196 
    5000    300.73789   -965.07351    149957.93   -47297.756    4129.9108   -51427.667   0.15511752 
    5200    295.62869   -940.39301    149882.64   -47301.312    4059.7481    -51361.06   0.15557407 
    5400    298.57968   -1016.8571    150007.86    -47258.58    4100.2728   -51358.853   0.15810069 
    5600    300.74872    -1073.211    150090.26   -47241.209    4130.0594   -51371.268   0.16279496 
    5800     296.6993   -996.42227    149950.13   -47231.802    4074.4504   -51306.252    0.1670735 
    6000    305.51059   -917.17627    149883.82   -47219.702    4195.4522   -51415.154   0.15591902 
    6200    300.59332   -1030.3134    150035.61   -47210.175    4127.9254     -51338.1   0.15802293 
    6400    298.47356   -1080.3844    150121.08   -47175.663    4098.8155   -51274.478   0.16459966 
    6600    302.33567   -962.16678    149993.65   -47219.089    4151.8524   -51370.941   0.16267619 
    6800    301.10728   -889.61983    149877.68   -47261.682    4134.9834   -51396.665   0.15818602 
    7000     300.1669   -979.39038     149980.4   -47263.711    4122.0695   -51385.781   0.15746982 
    7200    297.11061   -1123.1163    150120.07   -47207.575    4080.0987   -51287.674   0.16671949 
    7400    303.23077   -1022.6274     150035.8   -47193.098    4164.1445   -51357.243   0.15549579 
    7600    299.70147   -927.61169    149876.43   -47230.279    4115.6779   -51345.956   0.16476056 
    7800    297.84642   -946.82473    149952.68    -47258.01    4090.2033   -51348.213   0.16147068 
    8000    304.69151   -1110.8592     150140.6   -47221.251    4184.2041   -51405.455   0.15561388 
    8200     298.5136   -1052.9776    150006.99   -47258.735    4099.3655     -51358.1   0.15598956 
    8400    297.70358   -882.69332    149776.22   -47288.738    4088.2417    -51376.98   0.16427507 
    8600    299.47448   -967.78773    149918.27   -47244.085    4112.5608   -51356.646   0.16773894 
    8800    305.36849   -1133.3523     150207.1   -47168.629    4193.5009    -51362.13   0.15825226 
    9000    303.58122   -1086.6292    150072.98   -47147.976     4168.957   -51316.933   0.16132998 
    9200    304.10288   -784.99175    149746.67   -47137.308    4176.1208   -51313.428   0.16417986 
    9400    302.14751   -976.69857    149960.69   -47186.417    4149.2684   -51335.685   0.16555641 
    9600     298.3696   -1244.0098    150296.61   -47169.913     4097.388   -51267.301   0.17004693 
    9800    300.67344   -1032.4637    149991.19   -47191.446    4129.0256   -51320.471   0.16758632 
   10000    304.76099   -696.56755    149629.35   -47192.176    4185.1584   -51377.335   0.15435067 
   10200    299.68165   -1006.2126     149991.3   -47179.723    4115.4057   -51295.129   0.16175917 
   10400    304.48623   -1261.8706     150388.5   -47159.396    4181.3851   -51340.781   0.17310824 
   10600    299.41088   -1018.4433    150001.99   -47146.228    4111.6874   -51257.916    0.1678859 
   10800    299.81038   -727.31229    149595.54   -47185.062    4117.1737   -51302.236   0.15880511 
   11000    298.93106   -986.07031    149975.24   -47223.617    4105.0983   -51328.715   0.15641573 
   11200    295.98242   -1260.1022     150347.5   -47234.076    4064.6058   -51298.682    0.1700472 
   11400    305.74474   -995.50854    149931.68   -47268.549    4198.6677   -51467.217   0.15958849 
   11600    299.34578   -692.93999    149566.85   -47242.879    4110.7934   -51353.673   0.15429835 
   11800    295.08503   -1041.7007     150045.6    -47312.56    4052.2822   -51364.842   0.16066823 
   12000    294.66407   -1275.7409    150370.27   -47306.146    4046.5014   -51352.647   0.16500231 
   12200    296.88882   -918.07054    149826.71   -47292.284     4077.053   -51369.337   0.16293434 
   12400    302.52397   -650.34067    149530.38   -47264.837    4154.4382   -51419.275   0.15500509 
   12600    299.15899   -1107.8454    150143.56   -47268.536    4108.2284   -51376.765   0.16116276 
   12800    296.30219   -1293.9803    150417.38   -47273.556     4068.997   -51342.553   0.16346203 
   13000     299.2466   -867.26592    149779.09   -47263.725    4109.4314   -51373.157   0.15914246 
   13200    297.27592   -707.62398    149590.72   -47237.577     4082.369   -51319.946   0.15840451 
   13400    301.59208   -1177.5103    150270.51   -47249.228    4141.6409   -51390.868   0.15870609 
   13600    301.53442   -1262.8348     150386.1   -47237.311    4140.8492    -51378.16   0.16184689 
   13800    300.84305   -794.59892     149739.3   -47241.241    4131.3549   -51372.595   0.15906798 
   14000    301.72839   -784.70493    149713.08   -47263.733    4143.5129   -51407.246   0.15834731 
   14200    298.24298    -1216.693    150302.19   -47282.767    4095.6492   -51378.416   0.16558455 
   14400      298.541   -1153.5991    150244.09   -47307.106    4099.7417   -51406.848   0.16293992 
   14600    300.49383   -774.24572    149701.75   -47310.012    4126.5591   -51436.571   0.15231734 
   14800    297.05536     -856.224     149832.3   -47290.882      4079.34   -51370.223   0.15343514 
   15000    299.39179    -1220.901    150317.33   -47338.137    4111.4253   -51449.563   0.16433241 
   15200    292.54407   -1112.2349    150124.18     -47396.9    4017.3883   -51414.289   0.15808371 
   15400    293.47577   -797.40208    149715.98    -47418.94     4030.183   -51449.123    0.1483607 
   15600     296.9751   -944.85886    149877.69   -47455.557    4078.2378   -51533.794   0.14428415 
   15800    297.82276   -1125.9475     150151.4    -47401.53    4089.8785   -51491.408   0.16039555 
   16000    291.74862   -1055.4073    150002.02   -47389.159    4006.4647   -51395.624   0.16529658 
   16200    295.58094   -842.44959    149811.02   -47337.887    4059.0925   -51396.979   0.15365129 
   16400    295.16049    -940.8027    149955.84   -47332.482    4053.3186   -51385.801   0.15335584 
   16600    296.70376   -1115.7784    150138.87   -47348.311    4074.5116   -51422.823   0.15667174 
   16800    299.78798   -1026.0326    150009.11   -47303.632    4116.8659   -51420.498   0.15670442 
   17000    298.69976    -907.6949    149857.54   -47329.834    4101.9218   -51431.756   0.15316917 
   17200    299.79572   -995.23739    149963.56   -47311.183    4116.9723   -51428.155   0.15883712 
   17400     298.8736    -1082.087    150074.34   -47356.137    4104.3091   -51460.447   0.15651729 
   17600    297.81691   -1015.2909    149929.98   -47396.287    4089.7982   -51486.085   0.15524446 
   17800    291.23368   -917.48234     149804.9   -47416.135    3999.3933   -51415.528    0.1543252 
   18000    294.62663    -992.0962    149932.96   -47449.879    4045.9873   -51495.866   0.15507544 
   18200    296.86983   -1087.7695    150029.25    -47473.51    4076.7922   -51550.302   0.14894573 
   18400    294.17928   -963.41992    149900.64   -47496.372     4039.844   -51536.216   0.15139044 
   18600    292.88371   -946.46281     149840.4   -47453.196    4022.0525   -51475.248   0.15551492 
   18800    296.89038   -1032.6189    149994.09   -47384.491    4077.0744   -51461.566   0.15282875 
   19000    297.15241    -1073.574    150063.05   -47412.504    4080.6728   -51493.177   0.15245925 
   19200     298.9296   -953.33127    149899.61   -47387.128    4105.0782   -51492.206   0.14847352 
   19400    296.78481    -946.5675    149885.66   -47378.055    4075.6246   -51453.679   0.15261114 
   19600     294.1631   -1067.0185    150080.75   -47405.438    4039.6218    -51445.06   0.15325122 
   19800    297.45796   -1032.8508    150084.69   -47403.065    4084.8687   -51487.933   0.15409993 
   20000      292.604   -905.10634    149887.76   -47394.859    4018.2114    -51413.07    0.1539229 
   20200    291.33094   -929.07995    149882.22   -47422.383    4000.7289   -51423.112   0.15056617 
   20400    292.02639   -1063.0982    150071.65   -47397.385    4010.2792   -51407.664   0.15330358 
   20600    296.48633    -1071.461    150059.31   -47394.014    4071.5258    -51465.54   0.15143691 
   20800    293.56265   -939.51415    149843.89     -47399.1     4031.376   -51430.476   0.15267504 
   21000    291.53024   -928.26344     149861.2   -47393.209    4003.4658   -51396.675   0.15486137 
   21200    292.80251   -1086.5947    150083.42   -47379.677    4020.9374   -51400.615   0.15547099 
   21400    290.70177    -1071.188    150046.41   -47374.544    3992.0888   -51366.633   0.15785487 
   21600    295.28535   -920.32399    149815.69   -47333.074    4055.0332   -51388.108   0.15802448 
   21800    298.96726   -937.33532    149922.93   -47281.948    4105.5954   -51387.543   0.15913371 
   22000    301.03755   -1182.6498    150198.01   -47285.033    4134.0258   -51419.059   0.15592892 
   22200    303.40435   -1027.9918    150052.86   -47243.612    4166.5281    -51410.14    0.1535574 
   22400    300.96889   -851.36702    149772.05   -47225.003    4133.0829   -51358.086   0.16181296 
   22600    294.50377   -1020.9653    149965.84   -47229.127    4044.3001   -51273.427   0.16245065 
   22800    300.67124   -1192.7431    150244.31   -47262.363    4128.9954   -51391.358   0.15221399 
   23000    297.26017   -1010.0451    149976.38   -47284.284    4082.1526   -51366.437   0.15665641 
   23200    304.89103   -796.53688    149704.14   -47282.846    4186.9441    -51469.79   0.15833637 
   23400    297.83337   -1081.6834    150040.31   -47286.968    4090.0241   -51376.992   0.16157343 
   23600    303.42571   -1193.8983    150288.54   -47299.644    4166.8214   -51466.466   0.15749969 
   23800    296.86975   -976.41338     149928.9   -47241.506    4076.7911   -51318.297   0.15731812 
   24000    300.25239   -810.40469    149733.13   -47283.142    4123.2436   -51406.385   0.15096975 
   24200    299.59574   -1086.1371    150110.89   -47261.432     4114.226   -51375.658   0.15738718 
   24400    294.67343    -1174.841    150300.47   -47262.611    4046.6299   -51309.241   0.16281869 
   24600    299.30738   -911.78579    149930.58   -47269.191    4110.2661   -51379.457   0.15467001 
   24800     307.3978   -769.19216    149791.09   -47194.402    4221.3685    -51415.77   0.14685984 
   25000     301.7316   -1133.9874    150220.16   -47186.759    4143.5569   -51330.315   0.15847084 
   25200    302.44148   -1203.1291    150313.09   -47210.559    4153.3055   -51363.864    0.1610365 
   25400    296.75899    -891.5163    149838.23   -47281.319    4075.2701   -51356.589   0.15813652 
   25600    296.89462   -800.66127    149766.24   -47306.024    4077.1327   -51383.156   0.15322222 
   25800     295.0849    -1184.835    150271.61   -47275.035    4052.2805   -51327.315   0.15922249 
   26000    300.00581   -1189.6624    150276.71   -47252.513    4119.8573   -51372.371   0.15805242 
   26200    298.51475   -803.13015    149731.38   -47308.338    4099.3812   -51407.719   0.15267986 
   26400     295.5308   -823.22291    149748.68   -47333.276    4058.4038    -51391.68   0.15751228 
   26600    294.65587   -1229.1932     150284.6   -47334.062    4046.3888   -51380.451   0.16019705 
   26800    293.07278   -1124.7547    150190.81   -47339.588    4024.6489   -51364.237   0.15680313 
   27000    300.16677   -767.18912     149680.9   -47347.614    4122.0677   -51469.681   0.15473259 
   27200    298.37158   -873.58939    149867.35   -47340.397    4097.4152   -51437.812   0.15596087 
   27400    303.69075   -1265.8967    150375.65   -47296.278    4170.4611   -51466.739   0.15722647 
   27600    299.41958   -1074.1395    150145.63   -47303.371    4111.8069   -51415.178   0.15676083 
   27800    293.90633   -692.00593    149636.17   -47305.919    4036.0957   -51342.014    0.1536091 
   28000    299.34749   -896.92222    149942.79   -47291.656     4110.817   -51402.473   0.14715365 
   28200    295.24471   -1351.5344    150422.64   -47302.894    4054.4751   -51357.369   0.16544616 
   28400    298.39682   -978.88347    150008.19   -47303.688    4097.7618    -51401.45   0.15052941 
   28600    299.51242   -652.92167    149549.17   -47331.996    4113.0819   -51445.078   0.14549528 
   28800    293.59636   -1082.0461    150013.56   -47338.617     4031.839   -51370.456   0.15779737 
   29000    296.06174   -1298.0301    150376.46   -47368.179     4065.695   -51433.874   0.16465435 
   29200    295.08581    -914.4001     149861.5   -47411.968     4052.293   -51464.261   0.15599812 
   29400     295.5826   -686.35771    149562.41   -47416.745    4059.1152    -51475.86   0.14233083 
   29600    296.81199   -1127.4775    150060.59   -47370.358     4075.998   -51446.356   0.15846985 
   29800    296.75403   -1266.3943    150311.27   -47285.426     4075.202   -51360.628   0.16531358 
   30000    299.00341   -935.05738    149888.01   -47281.886    4106.0918   -51387.977   0.15743759 
   30200    299.10097   -794.88721    149693.04   -47294.519    4107.4315   -51401.951   0.15499648 
   30400    295.11854   -1094.1907    150078.03   -47343.762    4052.7425   -51396.504   0.15702133 
   30600    296.91531   -1104.6321    150204.51   -47285.422    4077.4168   -51362.839   0.15556352 
   30800    301.24553   -923.81274    149921.09   -47256.999    4136.8819   -51393.881   0.15504171 
   31000    299.80821    -907.2118    149893.68   -47244.892    4117.1438   -51362.036   0.16186826 
   31200    295.95301   -1069.3371    150143.46   -47243.884    4064.2019   -51308.086   0.16154309 
   31400    296.83695   -1064.7055    150146.54   -47240.608    4076.3407   -51316.949   0.15704224 
   31600    298.04922   -905.81423    149929.79   -47307.677    4092.9883   -51400.665   0.14743584 
   31800    299.77737    -980.5697    149942.88   -47280.674    4116.7202   -51397.394   0.16088736 
   32000    305.13742    -1060.485    150128.85    -47246.74    4190.3277   -51437.068      0.15398 
   32200    297.83887   -1047.3967    150090.94   -47282.654    4090.0997   -51372.754   0.15311902 
   32400    298.88127   -951.07162    149926.75   -47278.963    4104.4146   -51383.378      0.15585 
   32600    302.77287   -956.86654    149975.03   -47264.842    4157.8563   -51422.699   0.15218865 
   32800    299.96961   -1065.8883    150129.65    -47258.52    4119.3602    -51377.88   0.16326535 
   33000    301.50144   -1080.1714    150064.26   -47248.393    4140.3962   -51388.789   0.15982624 
   33200    297.95472   -912.37074    149902.46   -47244.219    4091.6906   -51335.909   0.15495476 
   33400    296.38236   -980.49674    149992.73   -47202.848     4070.098   -51272.946   0.15732749 
   33600    301.98123   -1068.9554    150150.28   -47130.342     4146.985   -51277.327   0.16506624 
   33800    298.68705   -1028.9282    150058.19   -47165.862    4101.7474    -51267.61   0.16653513 
   34000    301.34182    -867.2927    149835.91   -47191.469    4138.2043   -51329.673   0.15730307 
   34200    303.15908   -944.24654    149938.96   -47222.775      4163.16   -51385.935   0.15757234 
   34400    294.82363   -1125.3072    150156.89   -47286.111    4048.6926   -51334.803   0.16167844 
   34600    299.03827   -988.47922     150022.4   -47260.863    4106.5705   -51367.434   0.16127072 
   34800    299.28585     -834.094    149832.47   -47306.706    4109.9704   -51416.676   0.15726478 
   35000    292.53832   -1032.8974    149995.99   -47329.645    4017.3094   -51346.955   0.16326939 
   35200    300.68074   -1104.9592    150151.81   -47315.193     4129.126   -51444.319   0.15144784 
   35400    299.88258   -958.84165    149951.72   -47277.725    4118.1651    -51395.89   0.15516831 
   35600    296.33517   -885.07829    149838.86   -47273.581    4069.4499   -51343.031   0.16293404 
   35800    300.43722   -1048.6034    150059.94   -47272.048    4125.7817    -51397.83   0.16181907 
   36000    297.63254   -1151.6241    150165.01   -47270.948    4087.2662   -51358.214   0.16185517 
   36200    303.01635   -920.25387    149918.65   -47290.319    4161.1999   -51451.519   0.14995472 
   36400    302.61472   -889.86686    149838.03   -47320.495    4155.6845   -51476.179   0.15983441 
   36600    297.75343    -1073.942     150066.2   -47290.758    4088.9263   -51379.684   0.16349463 
   36800    296.45523   -1118.5583    150116.63   -47334.923    4071.0986   -51406.022   0.15771844 
   37000    294.81365   -904.15452    149861.14   -47326.863    4048.5555   -51375.419   0.15422959 
   37200    297.80429   -910.88466     149853.2   -47288.465    4089.6248    -51378.09   0.15573895 
   37400    296.96666   -1104.6433    150134.66   -47274.985     4078.122   -51353.107   0.16119777 
   37600    298.50746   -1108.9998    150132.48   -47301.466    4099.2811   -51400.747   0.15980366 
   37800    299.42268   -851.46085    149834.98   -47269.517    4111.8495   -51381.366   0.15717196 
   38000    296.83363   -949.02219    149885.26   -47324.181     4076.295   -51400.476   0.15736829 
   38200     299.2285   -1107.6939    150160.67   -47314.559    4109.1829   -51423.742   0.16135147 
   38400     302.9589   -1076.5391    150119.09   -47279.593    4160.4109   -51440.004   0.16144373 
   38600    297.60421   -891.27638    149844.64   -47280.634    4086.8772   -51367.511   0.16163219 
   38800    298.35964    -925.8798    149890.57   -47332.255    4097.2512   -51429.506   0.15314308 
   39000    295.09107   -1145.1686    150169.28   -47356.463    4052.3652   -51408.828   0.15849438 
   39200     293.5874   -1065.4294    150058.99   -47378.289    4031.7159   -51410.005   0.15839123 
   39400    293.82264   -811.73184    149750.74   -47373.691    4034.9464   -51408.637   0.14815764 
   39600    292.08564   -952.88853    149913.97   -47444.608    4011.0929   -51455.701   0.15015124 
   39800    294.34024   -1178.4737    150191.43   -47428.493    4042.0544   -51470.548   0.15350635 
   40000     290.1525   -1033.5158       149952   -47444.548    3984.5459   -51429.093   0.15738987 
   40200    300.68066   -779.37068    149662.09   -47423.717    4129.1248   -51552.842    0.1518093 
   40400    297.21067   -1003.9647    149952.95   -47415.054    4081.4728   -51496.526   0.15769968 
   40600    295.60595   -1246.7974    150247.81    -47439.05    4059.4358   -51498.486    0.1557214 
   40800     292.3446   -978.58269    149938.72   -47461.803     4014.649   -51476.452   0.14660714 
   41000    289.58617   -770.28813    149693.07   -47419.552    3976.7686   -51396.321   0.15087497 
   41200    294.80262   -1032.5495    150054.27   -47449.867    4048.4041   -51498.271   0.15243625 
   41400    291.97762   -1201.6834     150266.6   -47410.005    4009.6095   -51419.615   0.15948305 
   41600     298.8879   -888.89049    149861.59    -47411.55    4104.5056   -51516.056   0.14310591 
   41800    293.48848   -808.45296     149678.1   -47413.044    4030.3575   -51443.401   0.14927558 
   42000    300.24606   -1097.0196    150063.96   -47379.794    4123.1565    -51502.95   0.15640106 
   42200    293.39181   -1206.0116    150191.17   -47403.665      4029.03   -51432.695   0.16587067 
   42400    288.45247   -881.86386    149769.94   -47461.119    3961.2001   -51422.319   0.15817103 
   42600    286.90024   -856.75226    149677.15   -47490.739    3939.8839   -51430.623   0.14801714 
   42800    296.62982   -1116.8255    150113.73   -47485.611    4073.4962   -51559.108   0.14647018 
   43000    292.84695   -1164.9954    150172.83   -47436.685    4021.5476   -51458.233   0.15498619 
   43200    290.56765   -905.73593    149746.24   -47446.584    3990.2469   -51436.831   0.15494817 
   43400    299.76591   -826.43849    149745.38   -47438.935    4116.5629   -51555.498   0.14555658 
   43600    301.20226   -1177.2942    150196.28   -47427.684    4136.2878   -51563.972   0.15014987 
   43800    291.96528   -1145.3082    150153.28   -47398.929    4009.4401   -51408.369   0.15531598 
   44000    297.59284   -812.27107    149710.47   -47425.326    4086.7211   -51512.047   0.15071494 
   44200    289.03919   -885.63361    149803.96   -47467.965    3969.2572   -51437.222   0.15649059 
   44400     299.1158    -1185.062    150244.92   -47436.036    4107.6352   -51543.671   0.15160974 
   44600    295.66398   -1108.5853    150109.85   -47372.267    4060.2328     -51432.5   0.15625049 
   44800    292.68297   -769.16812    149656.47   -47342.265    4019.2957   -51361.561   0.15168061 
   45000    298.50105   -946.73715    149903.63   -47378.602    4099.1931   -51477.796   0.15313737 
   45200    289.32052   -1284.4058    150348.16   -47390.197    3973.1207   -51363.317   0.15789494 
   45400    291.68948   -1035.6029    149951.71   -47446.288    4005.6526    -51451.94   0.15291597 
   45600    293.55606   -633.91741    149473.55   -47440.894    4031.2856   -51472.179   0.14841027 
   45800    293.73726    -992.8282    149962.42   -47408.558    4033.7739   -51442.331   0.15371881 
   46000    292.12449   -1397.4504    150400.63   -47396.505    4011.6264   -51408.131   0.16594681 
   46200    294.35175   -944.48975    149795.62   -47439.851    4042.2125   -51482.063   0.15114001 
   46400     293.0526   -602.49625    149407.74   -47426.735    4024.3717   -51451.107   0.15088611 
   46600    291.79068   -1136.8495    150120.85   -47416.391    4007.0423   -51423.433   0.15753687 
   46800    294.41832   -1394.4517     150482.5   -47373.588    4043.1267   -51416.715   0.16698382 
   47000    296.49311   -809.92318    149763.45   -47362.614    4071.6188   -51434.233     0.149851 
   47200    301.96758    -563.2097    149504.76    -47336.91    4146.7975   -51483.707   0.14128192 
   47400    302.35901   -1143.6101    150257.89   -47256.301    4152.1729   -51408.473   0.15720863 
   47600    296.88697   -1341.7709    150455.45   -47224.532    4077.0276   -51301.559   0.16714415 
   47800    302.34729   -827.32941    149762.51   -47202.459     4152.012   -51354.471   0.16365755 
   48000    297.82053   -766.49873    149679.37   -47208.007    4089.8479   -51297.855   0.15889736 
   48200    302.04057   -1210.8157    150306.77   -47199.436    4147.7998   -51347.236   0.15952916 
   48400    301.15259   -1236.5185    150288.08   -47179.772    4135.6057   -51315.377   0.15855423 
   48600    300.23497   -850.37486    149732.08   -47254.387    4123.0044   -51377.391   0.16039111 
   48800     298.3322   -830.05999    149777.53    -47193.94    4096.8743   -51290.814   0.15834437 
   49000    301.35804     -1161.53    150247.41    -47164.92    4138.4269   -51303.347   0.15730888 
   49200    299.07765   -1163.6464    150185.78   -47199.857    4107.1114   -51306.968     0.160871 
   49400    303.08618   -841.14699    149785.38   -47216.948    4162.1588   -51379.106     0.150408 
   49600    299.71157    -874.3347    149867.18   -47233.526    4115.8166   -51349.343   0.15589584 
   49800    303.04756   -1098.2185    150176.46   -47208.165    4161.6285   -51369.794   0.15669352 
   50000    301.78823   -1018.4623    150056.51   -47210.082    4144.3346   -51354.417   0.15917159 
   50200    296.48304   -874.01762    149801.69   -47252.139    4071.4805    -51323.62   0.15777428 
   50400    298.74844   -983.24755    149934.91    -47255.59    4102.5904    -51358.18   0.15860148 
   50600    297.47874    -1123.357    150162.17   -47273.879    4085.1541   -51359.033   0.16390964 
   50800    298.19163   -1033.2907    150025.62   -47287.722    4094.9439   -51382.666   0.15984601 
   51000     302.3407   -891.03107    149866.91   -47225.281    4151.9215   -51377.203   0.15679755 
   51200    297.53786   -1053.3229    150053.24   -47254.105    4085.9661   -51340.071   0.15809101 
   51400    299.27627   -1085.1982    150176.35   -47214.741    4109.8389    -51324.58   0.16023378 
   51600    302.26092   -975.20936    150041.26    -47217.61    4150.8259   -51368.436   0.15816968 
   51800     302.9328   -921.58383     149954.7   -47215.357    4160.0525   -51375.409   0.15408945 
   52000    302.24344    -1006.145    150067.73   -47173.883    4150.5858   -51324.469   0.15775289 
   52200    304.57278   -1066.9402     150142.6   -47145.004    4182.5737   -51327.577   0.15793597 
   52400    301.08251   -960.16643    150035.13    -47126.23    4134.6432   -51260.873   0.15683817 
   52600    302.53738   -921.30113    149971.28   -47167.368    4154.6224    -51321.99   0.15775353 
   52800     300.1725   -1032.8653    150046.02   -47185.595    4122.1464   -51307.742   0.15694371 
   53000    303.04165   -1054.3559    150113.69   -47190.054    4161.5473   -51351.601   0.15225564 
   53200    304.29812   -983.43963    149979.04   -47201.233     4178.802   -51380.035   0.15537126 
   53400    297.61779   -943.02238    149901.47   -47231.644    4087.0636   -51318.708   0.15945792 
   53600    298.65892   -1072.5901    150059.82   -47256.934    4101.3611   -51358.295   0.15853443 
   53800    299.31401    -1087.572    150150.92   -47230.872    4110.3571   -51341.229   0.15490474 
   54000    301.73374   -996.14219    149994.74    -47224.45    4143.5863   -51368.036   0.15851472 
   54200    296.53522   -882.17525    149893.05   -47231.403    4072.1972     -51303.6   0.15666547 
   54400    302.14356   -1009.1221    150044.95   -47258.359    4149.2142   -51407.574   0.15766395 
   54600    298.10972   -1104.5274    150151.51   -47249.551    4093.8191   -51343.371   0.16504587 
   54800    301.39253   -973.53963    149978.53   -47194.706    4138.9006   -51333.606   0.16253429 
   55000    297.39323   -906.17058    149883.72   -47198.648    4083.9799   -51282.628   0.15975414 
   55200    303.16209   -1026.9127    150095.73    -47226.41    4163.2012   -51389.611   0.16084915 
   55400    301.39568   -1155.8606     150197.4   -47249.714    4138.9439   -51388.658   0.16468353 
   55600    301.96083   -912.28006     149855.7   -47292.359    4146.7048   -51439.064   0.15402444 
   55800    297.62831   -849.51253    149741.31   -47264.959    4087.2081   -51352.167   0.15497264 
   56000    302.06544    -1105.484    150162.49   -47243.473    4148.1414   -51391.615   0.15864335 
   56200    296.37717   -1221.1151    150265.41   -47277.177    4070.0267   -51347.203   0.16559697 
   56400    298.03407   -849.72855    149776.85   -47287.112    4092.7803   -51379.892   0.15684714 
   56600    299.73468   -781.08331    149699.95   -47292.531    4116.1341   -51408.665   0.15421098 
   56800    300.57643   -1147.7442    150222.69   -47233.411    4127.6934   -51361.104   0.15863477 
   57000    304.21578   -1202.5168     150267.9   -47240.613    4177.6711   -51418.285   0.16065958 
   57200    302.40401   -780.79472    149766.94   -47278.453    4152.7908   -51431.244   0.15104658 
   57400     300.0053   -759.81414    149799.54   -47298.162    4119.8504   -51418.012   0.14903708 
   57600    293.60822   -1272.3499    150335.73   -47279.163    4032.0018   -51311.164   0.16658057 
   57800    300.78895   -1132.4373    150224.63    -47294.18    4130.6119   -51424.792   0.15851765 
   58000    301.90392   -717.22408    149645.05    -47316.58    4145.9233   -51462.503   0.15546242 
   58200     297.0705   -881.55426    149789.24   -47356.384     4079.548   -51435.932   0.15468912 
   58400    293.12815   -1248.4368    150297.38    -47339.25    4025.4092   -51364.659   0.16562328 
   58600    297.71143   -1045.5902    150072.36   -47319.572    4088.3496   -51407.921   0.16619416 
   58800    298.02027    -763.8017       149606   -47359.132    4092.5907   -51451.723   0.15961233 
   59000    296.31733   -960.79195    149867.03   -47380.211    4069.2049   -51449.416     0.161081 
   59200    290.85484   -1298.8365    150302.95    -47371.69    3994.1909   -51365.881   0.16696936 
   59400    295.61948   -984.16473    149963.83   -47316.991    4059.6217   -51376.612   0.15853892 
   59600     294.8176   -730.17242     149589.7   -47318.556    4048.6098   -51367.166   0.15544475 
   59800    295.55852   -1003.0778    149975.73   -47299.034    4058.7846   -51357.819   0.16286157 
   60000    297.79064   -1301.3864    150325.75   -47281.224    4089.4373   -51370.661    0.1725086 
   60200     299.3218   -979.28681    149921.91   -47258.952    4110.4642   -51369.416   0.16219162 
   60400    296.42785   -798.76002    149610.13   -47230.345    4070.7227   -51301.067   0.16469142 
   60600    296.92734   -1066.3727    150013.14   -47267.063     4077.582   -51344.645    0.1658913 
   60800    296.42449   -1251.9849     150268.4   -47199.485    4070.6765   -51270.161   0.17592855 
   61000    303.75034   -937.56299    149860.77   -47247.058    4171.2794   -51418.337   0.15705758 
   61200    302.66622   -741.47929    149652.02   -47253.719    4156.3917   -51410.111    0.1532509 
   61400    299.68179   -1052.2612    150069.94   -47245.909    4115.4077   -51361.317   0.16183265 
   61600    299.41327   -1242.9809    150262.51   -47233.541    4111.7202   -51345.261   0.16515356 
   61800    304.00858   -884.81173    149847.59   -47239.494    4174.8258    -51414.32   0.15879212 
   62000    298.42614    -801.7755    149689.98   -47267.131    4098.1644   -51365.296     0.157754 
   62200    294.15707   -1084.3775     150093.7   -47273.155     4039.539   -51312.694   0.16177498 
   62400    299.24277   -1219.6529    150233.96   -47230.289    4109.3788   -51339.668    0.1710693 
   62600    295.86994      -924.62    149869.01   -47256.643    4063.0611   -51319.704   0.16828261 
   62800    296.95331   -831.29337     149760.9   -47234.225    4077.9386   -51312.163     0.164941 
   63000    298.50216   -1093.7976    150098.12   -47196.205    4099.2084   -51295.414   0.16694012 
   63200    303.17185   -1145.7352    150206.95   -47199.384    4163.3353   -51362.719   0.16192862 
   63400    302.54275   -917.64361    149915.27   -47158.688    4154.6961   -51313.384   0.16212624 
   63600    306.77022     -867.668    149846.37   -47140.958    4212.7503   -51353.708   0.16017059 
   63800    302.04552    -1074.518    150162.24   -47166.201    4147.8678   -51314.068   0.16028323 
   64000    301.59803   -1121.9859    150192.22   -47158.519    4141.7226   -51300.242   0.16373143 
   64200     299.7673   -889.30278    149871.16    -47165.65    4116.5819   -51282.232   0.15978719 
   64400    302.01933   -888.71802    149884.32   -47152.408    4147.5082   -51299.916   0.16080829 
   64600    299.18252   -1122.0648    150184.02   -47204.491    4108.5514   -51313.042   0.16321538 
   64800     302.3416   -1071.9438    150059.08   -47217.299    4151.9339   -51369.232   0.16108751 
   65000     299.6938   -823.31964    149748.19   -47210.885    4115.5726   -51326.458   0.15859128 
   65200    300.02274   -933.71547    149901.68   -47235.281    4120.0899   -51355.371   0.15438347 
   65400    298.59785   -1166.3196    150165.97   -47257.701    4100.5225   -51358.223   0.16250457 
   65600    303.00966   -1040.4154    149971.21   -47286.388     4161.108   -51447.496   0.15879383 
   65800    303.47944   -767.21496    149707.93   -47264.106    4167.5593   -51431.665   0.15390675 
   66000    301.14726   -991.32687     149958.9   -47260.629    4135.5324   -51396.162   0.15977987 
   66200    298.79341   -1253.9788    150249.86   -47281.612     4103.208    -51384.82   0.16584633 
   66400    296.04038   -945.07373    149947.75   -47279.679    4065.4018   -51345.081    0.1610769 
   66600    298.41152    -783.8314    149686.13   -47298.189    4097.9636   -51396.153   0.15729143 
   66800    297.21022   -1064.1607    150073.78   -47275.547    4081.4666   -51357.014   0.15790393 
   67000    296.45252   -1251.5391    150360.53   -47300.217    4071.0614   -51371.278   0.16081432 
   67200    298.13902   -915.42378    149871.69    -47329.75    4094.2215   -51423.971   0.15793528 
   67400    294.25512   -728.69107    149569.04   -47368.283    4040.8855   -51409.169   0.15364581 
   67600    300.66153   -1103.5214    150142.54   -47315.901    4128.8621   -51444.763    0.1564274 
   67800    292.81177   -1383.0193    150438.31   -47255.215    4021.0645   -51276.279      0.16762 
   68000    299.52489   -808.65966    149723.61   -47261.091    4113.2531   -51374.344   0.16082852 
   68200    298.71111   -647.38499    149487.82   -47339.286    4102.0777   -51441.363   0.15742969 
   68400    296.14488   -1238.7617    150248.64   -47270.669    4066.8368   -51337.506   0.16463731 
   68600    299.76014   -1317.1737    150412.54   -47250.426    4116.4837    -51366.91   0.16121207 
   68800    302.41255   -711.58377    149609.74    -47230.05    4152.9082   -51382.958   0.15605028 
   69000    295.73956   -713.84048     149545.9   -47277.969    4061.2707    -51339.24   0.15787903 
   69200    296.37564   -1289.7749    150324.44   -47272.191    4070.0057   -51342.196   0.17302736 
   69400    297.03557   -1273.0567     150301.1   -47310.706    4079.0683   -51389.774   0.16327714 
   69600    298.09295   -680.41949    149565.03   -47334.425    4093.5888   -51428.013   0.15037917 
   69800    298.81027   -804.84082    149673.59   -47299.966    4103.4395   -51403.405   0.15797817 
   70000    298.45832   -1296.5944     150328.6   -47249.323    4098.6063   -51347.929   0.17336249 
   70200    298.63779   -1154.4026    150174.19   -47233.083    4101.0709   -51334.153   0.17079033 
   70400    299.15361   -752.69867    149579.16   -47256.022    4108.1545   -51364.176    0.1584559 
   70600    302.38067   -855.70281    149757.35   -47226.739    4152.4703   -51379.209   0.15453722 
   70800    304.71592   -1233.4607    150289.49   -47243.387    4184.5393   -51427.926   0.16251411 
   71000    297.10818   -1154.1653    150067.96   -47292.234    4080.0654   -51372.299   0.17067241 
   71200    300.33209   -786.82887    149586.66   -47307.376    4124.3381   -51431.714   0.16266153 
   71400    297.14117   -906.93216    149834.38   -47271.465    4080.5184   -51351.983   0.15929323 
   71600     300.0121   -1224.9067    150236.62   -47242.307    4119.9437    -51362.25   0.16073836 
   71800    298.03103   -1033.4476       149953    -47265.77    4092.7385   -51358.509   0.16290627 
   72000     300.2109    -772.3574    149659.93   -47296.055    4122.6738   -51418.728   0.16049824 
   72200     301.5317   -1007.5245    149900.06   -47328.878    4140.8118   -51469.689   0.16283004 
   72400    294.06307   -1168.1738    150114.96   -47306.062    4038.2482    -51344.31    0.1654702 
   72600    303.99933   -960.33057    149939.14   -47274.895    4174.6987   -51449.594   0.15595029 
   72800    298.80215   -893.36675     149770.7   -47355.216    4103.3279   -51458.544   0.15641938 
   73000    297.43858   -991.59469    149935.35    -47351.53    4084.6027   -51436.133    0.1609497 
   73200    294.26454   -1077.8669    150097.17   -47361.702    4041.0149   -51402.717   0.15856518 
   73400    300.17956     -972.461    149938.32   -47359.727    4122.2434    -51481.97   0.15711477 
   73600    294.59475   -869.32381    149836.82    -47344.26    4045.5494   -51389.809   0.15279225 
   73800    296.66417   -1013.8854    150047.84   -47336.719     4073.968   -51410.687   0.15903229 
   74000     299.4635   -1122.1131    150129.75   -47386.034    4112.4101   -51498.444   0.16128696 
   74200     296.3932   -927.90586    149897.61   -47384.573    4070.2469    -51454.82   0.15319272 
   74400    291.34123   -939.43678    149839.51   -47347.113    4000.8702   -51347.983    0.1585295 
   74600    295.57044   -1054.8077    150075.76   -47368.426    4058.9482   -51427.374   0.16063042 
   74800    295.92642   -1091.8795    150129.43   -47378.786    4063.8367   -51442.622   0.16090339 
   75000    295.74896   -973.39066    149907.54   -47344.773    4061.3997   -51406.173   0.15611154 
   75200    297.73618   -888.45357    149860.24   -47332.803    4088.6894   -51421.492   0.15186424 
   75400    298.74822   -1095.7704    150094.23    -47317.08    4102.5874   -51419.667   0.15980173 
   75600    299.47625   -1065.9033    150117.05   -47294.369    4112.5852   -51406.954   0.16334037 
   75800     299.0505   -949.39065    149897.28   -47275.087    4106.7385   -51381.825   0.16447922 
   76000    302.66445   -890.24042    149886.65   -47261.132    4156.3674   -51417.499   0.15897955 
   76200    296.92995   -1094.5859    150141.74   -47284.043    4077.6179   -51361.661   0.15565028 
   76400    300.91023   -1076.4064    150147.25   -47253.275    4132.2774   -51385.552   0.15828212 
   76600    292.99789    -949.7653    149884.34   -47243.003    4023.6205   -51266.624   0.17334572 
   76800    301.11483   -932.91572    149896.12   -47243.655     4135.087   -51378.742   0.16425578 
   77000    295.75875   -1114.2642    150168.77    -47240.53    4061.5342   -51302.065   0.15885105 
   77200    300.19734   -1081.0483    150119.39   -47289.138    4122.4876   -51411.625   0.15601561 
   77400    303.52099   -864.81695    149794.06   -47284.122    4168.1299   -51452.252    0.1604359 
   77600     296.7425   -910.06567    149879.48   -47298.553    4075.0436   -51373.597   0.16376888 
   77800     299.0095   -1154.3035    150214.45   -47307.179    4106.1755   -51413.355   0.15983355 
   78000    298.39065   -1041.4006    150091.88   -47309.498    4097.6771   -51407.175   0.15926559 
   78200    299.17042   -849.55887    149754.47   -47308.152    4108.3853   -51416.537   0.15272035 
   78400    299.61124   -934.75958    149901.64   -47327.155    4114.4389   -51441.594   0.15834078 
   78600    300.83127   -1141.2708    150226.72   -47340.573    4131.1931   -51471.767   0.16277107 
   78800    300.33547   -1032.7277    150050.92   -47328.409    4124.3844   -51452.794   0.15998253 
   79000    302.70449   -815.82553    149725.35   -47315.664    4156.9172   -51472.582   0.14962583 
   79200    300.06603   -966.45629    149950.81   -47323.811    4120.6844   -51444.496   0.15026567 
   79400    296.46207   -1250.4278       150307   -47269.197    4071.1926    -51340.39   0.16923907 
   79600    297.92628   -981.02951    150018.69   -47263.061    4091.3001   -51354.362   0.15601869 
   79800    297.66256    -768.4211    149663.63   -47295.432    4087.6785   -51383.111   0.15528542 
   80000    298.85298   -979.25226    149999.74   -47262.752     4104.026   -51366.778   0.15838016 
   80200    301.43667   -1270.4143    150367.47   -47220.165    4139.5068   -51359.672   0.16515666 
   80400     301.6589    -1020.526     149977.7   -47194.844    4142.5586   -51337.403   0.16418066 
   80600    302.47325   -740.67787    149608.01   -47220.483    4153.7418   -51374.225    0.1581449 
   80800    300.29075   -1012.5245    150020.39   -47156.521    4123.7703   -51280.292   0.16541499 
   81000    295.63127   -1328.1492    150347.83   -47203.711    4059.7835   -51263.495   0.16675771 
   81200    302.82613    -913.2161    149861.33   -47189.228    4158.5877   -51347.816   0.16062895 
   81400    301.55169   -697.05004    149590.74   -47168.014    4141.0863   -51309.101   0.16090381 
   81600    302.03544   -1123.4991    150140.09   -47183.963    4147.7294   -51331.692   0.16295534 
   81800    300.70151   -1313.2911    150401.38   -47183.216    4129.4112   -51312.628   0.16553895 
   82000    304.40672   -843.89316    149794.13   -47157.163    4180.2932   -51337.456   0.16896036 
   82200    301.07159   -730.08266    149588.47   -47206.681    4134.4933   -51341.174    0.1613737 
   82400    298.91404   -1178.6302    150216.67    -47200.16    4104.8645   -51305.025   0.16991596 
   82600     300.4537    -1264.946    150363.62   -47241.985     4126.008   -51367.993   0.16728221 
   82800    298.49499   -781.62363    149698.33   -47292.619    4099.1099   -51391.729   0.15581279 
   83000    298.69865   -747.56846     149585.3   -47278.102    4101.9067   -51380.008   0.15931908 
   83200    297.79136   -1191.7087    150273.27   -47288.503    4089.4472   -51377.951   0.16480988 
   83400    297.43955   -1251.8545    150329.97   -47307.417    4084.6159   -51392.032   0.16540477 
   83600    295.30958   -757.62837    149667.78   -47333.487     4055.366   -51388.853    0.1496389 
   83800    298.07964   -809.63079    149708.14   -47282.969    4093.4061   -51376.375   0.15431119 
   84000    297.84652   -1240.3819    150333.85    -47305.02    4090.2047   -51395.224   0.17546587 
   84200    294.04139   -1128.5564    150209.14   -47293.501    4037.9504   -51331.452   0.16382492 
   84400    297.06492   -774.61421    149709.36    -47305.62    4079.4714   -51385.091   0.15885837 
   84600    297.74267   -930.89598    149882.77   -47302.519    4088.7786   -51391.297   0.16120203 
   84800    299.48969   -1180.7064    150237.76   -47307.628    4112.7697   -51420.398   0.16225223 
   85000    296.39252   -1067.3229    150084.82   -47272.098    4070.2375   -51342.336   0.16457377 
   85200    305.63061   -881.93295    149843.02   -47245.617    4197.1004   -51442.717   0.15849924 
   85400    299.03861   -960.87816    149985.85   -47230.408    4106.5752   -51336.983   0.16358176 
   85600    296.70631   -1110.7033    150156.88   -47224.592    4074.5467   -51299.139   0.16152694 
   85800    300.26275   -1013.7645    150012.94   -47241.178    4123.3858   -51364.564   0.15918694 
   86000    297.70445   -896.49385    149857.81   -47194.677    4088.2537   -51282.931   0.16801468 
   86200    303.29001   -997.17277     150008.6   -47204.878    4164.9579   -51369.836   0.16044581 
   86400    298.15165   -1138.9801    150154.13   -47195.867    4094.3949   -51290.262   0.16833816 
   86600    299.90895   -952.43884    149974.53     -47196.5    4118.5272   -51315.027   0.16365298 
   86800    300.19413   -914.59352     149880.1   -47229.122    4122.4434   -51351.565   0.16272165 
   87000    305.14985   -1019.5596    150051.12   -47250.233    4190.4983   -51440.732   0.15860983 
   87200    300.65774   -1061.0618    150077.17   -47218.523      4128.81   -51347.333   0.15728181 
   87400    305.49057   -893.37896    149953.58   -47182.026    4195.1773   -51377.204   0.15937946 
   87600     296.7823   -1022.6208     149933.2   -47252.228    4075.5903   -51327.818   0.17058707 
   87800    302.74059   -993.20442     150008.8   -47258.209     4157.413   -51415.622   0.16122753 
   88000    300.94847   -1040.7742    150026.79   -47207.269    4132.8026   -51340.072   0.16587007 
   88200     298.8885   -978.44386    149980.76    -47218.23    4104.5137   -51322.744   0.15848793 
   88400    303.31007   -966.38566    149912.57   -47205.862    4165.2334   -51371.096   0.16707625 
   88600     304.7743   -980.25619    149984.47   -47219.898     4185.341   -51405.239   0.16715103 
   88800    301.11873   -1052.2356    150085.15   -47206.373    4135.1407   -51341.513   0.16057184 
   89000    294.26224   -1011.3203    149991.09    -47229.42    4040.9833   -51270.403   0.16130423 
   89200     300.1387   -950.64786    149896.81   -47204.411    4121.6823   -51326.093   0.16278899 
   89400    306.67418   -981.95782    150001.95   -47174.785    4211.4314   -51386.216   0.16014728 
   89600    294.81796   -1115.5986    150105.94   -47195.013    4048.6147   -51243.628   0.16763054 
   89800    298.23842   -986.95889    149925.86   -47234.027    4095.5865   -51329.613   0.16412923 
   90000    300.91774   -878.76916    149788.86   -47252.775    4132.3805   -51385.156   0.15773758 
   90200    301.11947   -1014.8176    149969.66   -47296.711    4135.1507   -51431.862     0.153415 
   90400    294.23684   -1167.3861    150111.34   -47314.716    4040.6344   -51355.351   0.16189905 
   90600    291.37567   -992.54324    149889.29   -47309.072    4001.3432   -51310.415   0.16765728 
   90800     297.7756   -861.89348    149789.85    -47335.29    4089.2308    -51424.52   0.15521513 
   91000    299.79987   -1098.9807    150091.32   -47333.243    4117.0293   -51450.272   0.15633517 
   91200    297.91028   -1151.5875    150163.93   -47343.753    4091.0803   -51434.833   0.16307543 
   91400    301.16818   -868.18372    149800.03   -47339.147    4135.8197   -51474.967   0.15833349 
   91600    295.37822   -834.44848    149735.88   -47344.959    4056.3086   -51401.268   0.15657716 
   91800    295.85737    -1163.745    150166.53   -47313.837    4062.8885   -51376.726   0.16341196 
   92000    296.11241   -1162.6528    150239.21   -47328.609    4066.3909       -51395   0.16252013 
   92200    297.85811   -864.49841    149803.97   -47358.724    4090.3638   -51449.088    0.1494013 
   92400    303.86242   -837.27648     149739.1   -47340.291    4172.8185    -51513.11   0.15108698 
   92600    293.11478   -1151.8118     150204.3   -47391.011    4025.2256   -51416.236   0.16011986 
   92800    296.51688   -1183.2922    150204.82   -47358.941    4071.9453   -51430.886   0.15913061 
   93000    302.01523   -794.33619     149731.7   -47292.279    4147.4518    -51439.73   0.15334929 
   93200      298.929   -888.97515    149825.93   -47291.035    4105.0699   -51396.105   0.15907652 
   93400    290.91079   -1235.8697    150304.83   -47284.873    3994.9592   -51279.832   0.16663592 
   93600    299.84175   -1108.6806    150156.98   -47271.358    4117.6043   -51388.962   0.15472102 
   93800    300.69434   -714.84671     149662.8   -47268.316    4129.3126   -51397.629   0.15557796 
   94000    293.63649   -924.52777    149857.24   -47267.393      4032.39   -51299.783   0.16426003 
   94200    300.33113   -1262.7213    150332.47   -47345.144    4124.3248   -51469.469   0.15853197 
   94400    297.86507   -1094.0722       150051   -47333.798    4090.4594   -51424.258   0.16066545 
   94600    298.54941   -729.05597    149551.79   -47337.421    4099.8572   -51437.278   0.15516243 
   94800    296.09892   -973.88043    149839.36   -47387.828    4066.2057   -51454.033   0.15776427 
   95000    292.96331   -1307.5334    150299.25   -47385.356    4023.1456   -51408.501    0.1672716 
   95200    292.06203     -1013.24    149914.74   -47396.523    4010.7687   -51407.292   0.16695551 
   95400    296.52168   -652.46722    149489.55    -47413.52    4072.0112   -51485.532   0.15362641 
   95600    293.89117   -1028.2555    149956.78   -47368.985    4035.8875   -51404.872   0.15855803 
   95800     295.7526   -1300.4753    150359.08   -47323.554    4061.4497   -51385.004   0.16722747 
   96000    297.15821   -915.97799    149872.96   -47322.132    4080.7525   -51402.884   0.16630221 
   96200    292.33151   -720.39304    149561.66   -47368.687    4014.4693   -51383.156   0.15849771 
   96400    297.91256   -1095.2818    150064.28   -47355.618    4091.1115   -51446.729   0.16142724 
   96600    297.03359   -1283.0431     150305.7   -47362.513     4079.041   -51441.554   0.16618626 
   96800    299.68911   -908.68313    149764.74   -47424.121    4115.5083   -51539.629   0.15023881 
   97000    297.22686   -706.09899    149550.12   -47410.811    4081.6951   -51492.506   0.15450847 
   97200    298.99017   -1120.2196    150152.23   -47390.261    4105.9099   -51496.171   0.16114978 
   97400    296.30672   -1255.1656    150332.45   -47339.866    4069.0593   -51408.925   0.15859685 
   97600    302.13862   -822.12047    149755.55   -47322.135    4149.1464   -51471.281   0.15256772 
   97800    298.42353   -770.46095    149675.58   -47316.529    4098.1285   -51414.658   0.15606502 
   98000    299.74184   -1194.1099    150216.77   -47279.949    4116.2324   -51396.181   0.16627171 
   98200    300.18056    -1177.409    150214.02   -47290.872    4122.2571   -51413.129   0.15435652 
   98400    298.85659   -805.14021    149745.41   -47225.026    4104.0756   -51329.101   0.15754251 
   98600      297.226   -916.55803    149816.04   -47274.312    4081.6834   -51355.995   0.16428203 
   98800    301.64977   -1162.3438    150202.62   -47230.878    4142.4332   -51373.312   0.16608864 
   99000    300.18096   -1061.8069    150119.27   -47234.263    4122.2626   -51356.525   0.15875248 
   99200    302.21574   -869.06746    149833.42   -47306.707    4150.2054   -51456.912   0.15570797 
   99400    294.09363   -940.46358    149933.28   -47400.375    4038.6678   -51439.042   0.15439903 
   99600    294.11251   -1093.5921    150129.45       -47423    4038.9271   -51461.927   0.15647253 
   99800    292.88467   -1068.1167    150022.61   -47395.576    4022.0657   -51417.642   0.16875589 
  100000    299.23499   -927.62995    149890.63   -47397.507     4109.272   -51506.779   0.15357085 
  100200     295.0864   -998.69077     149975.1   -47352.319    4052.3012    -51404.62   0.15629807 
  100400    294.28354   -1046.5576    150071.38   -47347.366    4041.2757   -51388.641   0.15914442 
  100600    297.27316    -1013.185    149995.74   -47296.423    4082.3309   -51378.754     0.167956 
  100800    296.55212   -952.38669    149943.19   -47328.701    4072.4293    -51401.13   0.16308209 
  101000    295.18071   -1042.0961    150025.56   -47309.738    4053.5963   -51363.334   0.15780928 
  101200    295.88301   -1016.5992    150056.85   -47286.885    4063.2406   -51350.126   0.16156784 
  101400      297.841   -962.40702    149986.55    -47296.43     4090.129   -51386.559   0.15364879 
  101600    303.15851   -971.88042    149969.73   -47315.034     4163.152   -51478.186   0.15641312 
  101800    295.24279   -1060.0421    150031.45   -47278.501    4054.4487    -51332.95   0.16449562 
  102000    295.55692   -1040.5719    150012.75   -47279.787    4058.7625    -51338.55   0.16320856 
  102200    302.35112   -1004.0088    149931.81   -47274.036    4152.0645     -51426.1   0.15816121 
  102400    304.51581   -926.60686     149931.2   -47213.938    4181.7913   -51395.729    0.1584565 
  102600    301.82975   -1032.0731    150038.96   -47223.032    4144.9047   -51367.936   0.16139658 
  102800    301.87953   -1098.9654    150038.84   -47235.438    4145.5884   -51381.026   0.16413845 
  103000    300.27427   -915.52741    149896.14   -47230.856     4123.544     -51354.4   0.16241908 
  103200    303.64599    -975.7816    149918.16   -47210.473    4169.8465   -51380.319   0.16368932 
  103400    300.36469   -1094.8296     150076.9   -47237.299    4124.7858   -51362.085   0.16170259 
  103600    301.79858   -1028.0626    150040.44   -47241.196    4144.4768   -51385.672   0.15927875 
  103800    300.26592   -917.43441    149861.95    -47248.62    4123.4294   -51372.049   0.15932834 
  104000    299.46602   -952.81401    149911.33   -47257.547    4112.4446   -51369.992   0.15843081 
  104200    299.46167   -1115.0968    150152.24   -47268.034    4112.3849   -51380.419   0.16099893 
  104400    301.82319    -1082.206     150087.1   -47286.424    4144.8147   -51431.239   0.16374293 
  104600    297.14957   -864.41403    149804.85    -47285.58    4080.6338   -51366.214   0.15880648 
  104800    303.03575   -922.66731    149904.44   -47276.315    4161.4663   -51437.781   0.15339601 
  105000    298.77893   -1182.9644    150233.46    -47301.05    4103.0091   -51404.059   0.16055453 
  105200    297.11284   -1054.3449    150063.84   -47303.934    4080.1294   -51384.063     0.163668 
  105400    297.81427     -776.554    149677.44   -47300.912    4089.7619   -51390.674   0.15974611 
  105600    297.95784   -977.28685    149919.22   -47296.756    4091.7335   -51388.489    0.1539103 
  105800    301.20823   -1258.6734    150345.42   -47306.357    4136.3698   -51442.727   0.15806179 
  106000    302.67575   -1021.6389    149978.77   -47291.778    4156.5226   -51448.301   0.15778352 
  106200    302.53565   -661.58074    149511.79   -47274.361    4154.5986   -51428.959   0.15544003 
  106400    304.70986    -997.3127    149981.58   -47281.483    4184.4562   -51465.939   0.15850723 
  106600    298.77888   -1358.1358    150433.22   -47273.609    4103.0085   -51376.617   0.16091865 
  106800    297.64208   -942.33372    149843.61   -47275.587    4087.3972   -51362.984   0.15676135 
  107000    301.21077   -584.40849    149444.68   -47236.292    4136.4046   -51372.697   0.15402747 
  107200    299.37587   -1148.4274    150171.51   -47215.896    4111.2067   -51327.103   0.16664857 
  107400    302.19237   -1413.8022    150522.78   -47215.088    4149.8845   -51364.972   0.16863917 
  107600    298.27549   -833.74175    149731.31    -47204.39    4096.0956   -51300.485   0.16208858 
  107800    301.86231   -613.69259    149497.11   -47229.472    4145.3519   -51374.824   0.15721266 
  108000    305.80378   -1230.5209    150275.49   -47195.834    4199.4785   -51395.312   0.16226714 
  108200    300.65641   -1298.1555    150410.45   -47226.017    4128.7918   -51354.809    0.1600242 
  108400    299.09533   -759.03677    149687.53   -47233.432    4107.3541   -51340.786   0.15560614 
  108600    302.64638   -772.87292    149665.98    -47206.61    4156.1193   -51362.729   0.15658125 
  108800    300.35814   -1271.9497    150346.36   -47220.163    4124.6958   -51344.859   0.16204153 
  109000    297.56998   -1215.9803    150253.54    -47259.71    4086.4071   -51346.117    0.1654582 
  109200    297.24555   -748.20505    149606.24   -47270.679    4081.9518   -51352.631   0.15973551 
  109400    301.68197   -781.68319    149746.04   -47254.931    4142.8754   -51397.806     0.153871 
  109600    301.00776   -1277.7495    150370.76   -47205.135    4133.6168   -51338.752   0.16292398 
  109800    300.02833   -1132.0841    150184.21   -47260.754    4120.1666    -51380.92   0.16231854 
  110000    303.22853   -731.44478    149597.33   -47205.609    4164.1137   -51369.723   0.15765671 
  110200    307.50508   -906.52276    149829.96   -47190.787    4222.8418   -51413.629   0.15661666 
  110400    299.58388   -1284.7009     150369.8   -47234.497    4114.0631    -51348.56   0.16363167 
  110600    295.34967    -1085.382    150083.05   -47312.708    4055.9165   -51368.624   0.15858155 
  110800    298.98916   -698.64675    149593.54   -47316.187    4105.8962   -51422.083   0.15371136 
  111000    296.27123   -943.77165    149889.18   -47314.648    4068.5719    -51383.22   0.15985297 
  111200    299.34569   -1241.9811    150294.21    -47295.58    4110.7922   -51406.372   0.16667307 
  111400    298.19159   -1044.3895    149984.56   -47354.053    4094.9434   -51448.997    0.1596206 
  111600    295.91095   -753.42981    149594.36   -47414.464    4063.6243   -51478.089   0.15492157 
  111800     291.2282     -1000.94    149882.58   -47444.095     3999.318   -51443.413   0.16143041 
  112000    291.25964   -1231.5105    150211.49   -47429.832    3999.7497   -51429.581   0.16121112 
  112200    293.62593   -987.49476     149918.4   -47390.897    4032.2451   -51423.142   0.15970801 
  112400    294.95634     -796.691    149628.25   -47362.034     4050.515   -51412.549   0.16082497 
  112600     295.5477   -994.17197    149915.06       -47333     4058.636   -51391.636   0.16312387 
  112800    299.38115   -1180.6161    150192.71   -47344.416    4111.2791   -51455.695   0.16216417 
  113000     299.7793   -961.16721     149906.2   -47326.732    4116.7468   -51443.479    0.1573847 
  113200    297.74114   -839.25738    149683.57   -47365.879    4088.7576   -51454.637   0.16097695 
  113400    296.00706   -1002.7065    149957.95   -47342.116    4064.9442    -51407.06   0.15806689 
  113600    298.57378   -1128.8174    150159.48   -47342.795    4100.1918   -51442.987    0.1603704 
  113800    298.22699   -946.37424    149912.05    -47328.47    4095.4295   -51423.899   0.16058847 
  114000    298.92085   -841.20757    149772.71   -47316.112     4104.958    -51421.07   0.15514055 
  114200    298.61012   -1064.4511    150033.93   -47326.269    4100.6909    -51426.96   0.15835289 
  114400     297.7559   -1165.5177    150160.01   -47263.589    4088.9602   -51352.549   0.16823384 
  114600    297.54096   -952.83267    149918.19   -47239.571    4086.0086   -51325.579   0.15892641 
  114800    304.48662   -886.04355    149844.56   -47227.662    4181.3906   -51409.052   0.15727097 
  115000    299.66755   -1109.4089    150112.54    -47253.92    4115.2122   -51369.132   0.16697978 
  115200    298.39058   -1129.4503    150138.53   -47268.126     4097.676   -51365.802   0.16073284 
  115400    297.53583   -885.63168    149797.31   -47286.001    4085.9382   -51371.939   0.15475565 
  115600    297.99864   -839.15233     149795.7   -47268.822    4092.2937   -51361.116   0.15946366 
  115800    292.80057   -1147.3787     150158.5    -47279.29    4020.9107     -51300.2   0.17099036 
  116000    296.29389    -1114.897    150147.09   -47263.535    4068.8831   -51332.418     0.164648 
  116200    297.13239   -873.91233    149782.61   -47287.699    4080.3978   -51368.097   0.15773478 
  116400    298.06922   -909.29002    149792.82    -47329.43    4093.2629   -51422.692   0.16652591 
  116600    297.71495   -1123.2595    150097.92   -47337.194     4088.398   -51425.592   0.16099716 
  116800    301.03128   -1104.0945    150067.99   -47293.515    4133.9397   -51427.454   0.15874364 
  117000    299.70798   -871.89411     149791.1   -47304.142    4115.7674   -51419.909   0.15706238 
  117200    303.12253   -937.96477    149865.93   -47294.577     4162.658   -51457.235   0.16201582 
  117400    296.07887   -1124.0647    150189.83   -47314.752    4065.9303   -51380.682   0.16039514 
  117600    299.67365   -1103.7237    150157.06     -47295.8     4115.296   -51411.096   0.15901288 
  117800    298.06862   -873.09127    149827.05   -47260.053    4093.2547   -51353.308   0.16254754 
  118000    298.69021   -913.38459    149904.39   -47251.517    4101.7907   -51353.307   0.16065243 
  118200    302.22102   -1125.3821    150239.44   -47282.062     4150.278    -51432.34   0.15853348 
  118400     292.9833   -1039.2828     150088.9   -47335.264    4023.4201   -51358.684   0.16120532 
  118600    296.83948   -774.39095     149687.2   -47370.782    4076.3755   -51447.157   0.15762147 
  118800    290.96453   -937.03947    149864.87   -47418.835    3995.6971   -51414.533   0.15613763 
  119000    289.68493   -1245.9475    150272.86   -47410.484     3978.125   -51388.609     0.166073 
  119200    293.08666   -1039.1212     149993.9   -47416.062    4024.8395   -51440.902   0.15953891 
  119400     288.7542   -699.09383    149554.77   -47447.928    3965.3436   -51413.271   0.15654519 
  119600     298.4138   -937.13897    149939.59    -47382.94    4097.9949   -51480.935   0.16030802 
  119800    292.85847   -1357.4755    150450.66    -47370.14    4021.7058   -51391.846   0.16818671 
  120000     293.3362   -1001.5802    149926.04   -47396.666    4028.2664   -51424.932   0.15902046 
  120200    294.31817   -605.32397     149400.3   -47376.539    4041.7513    -51418.29   0.15623763 
  120400    291.76038   -1054.3753    150036.16   -47416.415    4006.6262   -51423.041   0.16530628 
  120600     296.2641   -1452.3557    150528.23   -47399.232     4068.474   -51467.706   0.16397188 
  120800    290.99122   -882.09509    149799.44   -47401.183    3996.0636   -51397.247   0.15507007 
  121000    297.52613   -581.97501    149385.64   -47392.168    4085.8049   -51477.973   0.15671887 
  121200    300.84053   -1165.9846    150146.01   -47381.509    4131.3202    -51512.83   0.15731044 
  121400    296.15275    -1385.584    150428.14   -47372.418    4066.9449   -51439.362   0.16180457 
  121600    300.36242   -750.09771    149652.57    -47375.14    4124.7546   -51499.894   0.15509271 
  121800    293.58826   -710.01082    149529.89   -47374.404    4031.7278   -51406.131   0.16239397 
  122000    303.32384   -1211.1158    150251.22   -47342.914    4165.4225   -51508.337   0.15629636 
  122200    293.44625   -1200.7114    150308.71   -47306.836    4029.7777   -51336.614   0.16269505 
  122400    300.60655   -812.29194    149697.75   -47270.084    4128.1071   -51398.191   0.16129678 
  122600    304.12341   -773.52224    149726.84   -47188.074    4176.4027   -51364.477   0.15767691 
  122800    303.65065    -1156.012    150264.72   -47179.785    4169.9104   -51349.696   0.16205314 
  123000    299.44274   -1145.4108    150190.21   -47228.073     4112.125   -51340.198   0.16409106 
  123200    303.00583   -866.95085    149717.67   -47259.852    4161.0554   -51420.907    0.1641322 
  123400    299.08566    -885.4198    149793.57   -47344.906    4107.2213   -51452.127   0.15581775 
  123600    298.13449   -1179.7722    150217.27    -47284.54    4094.1592   -51378.699   0.16416551 
  123800    297.46841   -1088.2911    150119.26   -47308.125    4085.0122   -51393.137   0.16377008 
  124000    297.05532   -868.88442    149770.34   -47295.871    4079.3395    -51375.21   0.15784894 
  124200    299.40932   -920.20279    149888.24   -47278.225     4111.666   -51389.891   0.15754418 
  124400    297.43557   -1166.9269    150189.19   -47287.815    4084.5613   -51372.376   0.16713119 
  124600    295.46564   -1082.4069    150028.07   -47308.494    4057.5091   -51366.003   0.16393173 
  124800    301.13329   -867.38453    149736.92   -47318.349    4135.3405   -51453.689   0.15523028 
  125000    297.61129    -982.4289    149886.11    -47325.91    4086.9744   -51412.884   0.16203895 
  125200    300.23369   -1144.7132    150130.77   -47312.218    4122.9868   -51435.205   0.16493142 
  125400    298.32832   -1034.9975    149958.35   -47384.079    4096.8211     -51480.9   0.16042353 
  125600     299.3631   -819.08724    149710.97   -47381.753    4111.0313   -51492.784   0.15491417 
  125800    304.50679   -973.89899     149916.5   -47369.681    4181.6674   -51551.349   0.15249314 
  126000     300.8131   -1157.7354     150139.7    -47332.69    4130.9435   -51463.634   0.16075778 
  126200    299.83339   -984.04864    149917.94   -47315.645    4117.4895   -51433.135   0.15750725 
  126400    294.52354   -845.20016     149715.5   -47346.661    4044.5716   -51391.232   0.16304694 
  126600    295.91511   -986.85891     149942.3   -47370.442    4063.6815   -51434.124   0.15762335 
  126800    296.47227   -1145.9936    150134.24   -47337.804    4071.3327   -51409.136   0.16210427 
  127000    294.38983   -974.18925    149915.16   -47357.492    4042.7354   -51400.227   0.15936405 
  127200    296.04571   -853.73696    149738.48   -47395.207    4065.4749   -51460.682   0.15500643 
  127400    301.77922   -1021.1371    149951.54   -47391.839    4144.2109   -51536.049   0.16070168 
  127600    293.71832   -1147.6206    150102.75   -47383.455    4033.5138   -51416.968   0.16241907 
  127800    293.09668   -971.62572    149908.68   -47374.967    4024.9771   -51399.944   0.15813557 
  128000    298.13547   -862.50279    149793.83   -47375.031    4094.1727   -51469.204   0.15098448 
  128200    296.19241   -1038.6672    150022.42   -47336.007    4067.4895   -51403.496   0.16416369 
  128400     293.5167   -1142.7202    150122.63   -47362.579    4030.7451   -51393.324     0.167904 
  128600    295.55427   -947.74153    149859.74   -47398.759    4058.7261   -51457.485   0.15628185 
  128800    294.34201   -857.69504    149742.41   -47438.411    4042.0787    -51480.49   0.15449113 
  129000    288.46098   -1056.2177    150010.38   -47468.287     3961.317   -51429.604   0.16428246 
  129200    296.57545   -1135.1895    150108.73    -47422.93    4072.7496    -51495.68   0.16006405 
  129400    292.01321   -881.89043    149785.34   -47426.306    4010.0982   -51436.404   0.15123998 
  129600    293.25324   -820.70933    149728.67    -47427.09    4027.1271   -51454.217   0.15466196 
  129800    293.50951   -1141.8464    150100.49    -47434.63    4030.6463   -51465.277   0.16118922 
  130000    294.85225   -1131.4556    150117.97   -47443.786    4049.0856   -51492.871     0.155849 
  130200    289.35999   -875.77062    149740.23   -47468.542    3973.6627   -51442.204   0.15394799 
  130400    292.26887    -876.8869    149731.59   -47453.508    4013.6092   -51467.117   0.15858475 
  130600    295.76171   -1124.5511    150120.41   -47402.732    4061.5749   -51464.307   0.15899458 
  130800    296.44557   -1128.6851    150111.11   -47424.521     4070.966   -51495.487   0.15501513 
  131000    291.20958   -845.30176    149718.77   -47449.504    3999.0623   -51448.566   0.15945679 
  131200     297.1781   -897.89685    149823.91   -47422.913    4081.0255   -51503.939   0.15968947 
  131400    294.79469   -1147.6967    150195.44   -47417.785    4048.2951    -51466.08   0.15593494 
  131600    294.41167   -1033.1271     150060.1   -47412.404    4043.0353   -51455.439   0.15370011 
  131800    301.01319   -841.90784    149747.69    -47389.16    4133.6912   -51522.852   0.15475306 
  132000    295.54302   -933.92932    149913.38   -47329.624    4058.5716   -51388.195   0.15838082 
  132200    297.24876   -1217.8453       150228    -47332.98    4081.9959   -51414.976    0.1649693 
  132400    299.77723   -1028.4504    150005.85   -47339.823    4116.7184   -51456.541    0.1596759 
  132600    296.58281   -814.24445     149686.5   -47318.798    4072.8507   -51391.648   0.15816128 
  132800    301.09879   -992.51441    149957.84   -47285.566    4134.8668   -51420.433   0.16048578 
  133000    297.69024   -1234.2846    150309.63   -47274.364    4088.0586   -51362.422   0.17215855 
  133200     303.1646   -1020.4416    150038.65   -47225.029    4163.2358   -51388.265   0.16423602 
  133400    300.96832   -768.87049    149746.53   -47215.982    4133.0751   -51349.057   0.15753432 
  133600    304.95658   -994.84116    150103.06   -47224.705    4187.8443   -51412.549   0.15735177 
  133800    300.08262   -1248.4527    150364.79   -47240.923    4120.9121   -51361.835   0.16298758 
  134000     301.6144   -919.27566    149953.19   -47195.335    4141.9475   -51337.282   0.15919861 
  134200    300.48331   -750.87351     149724.5    -47212.47    4126.4147   -51338.885   0.15574347 
  134400    300.28408   -1158.7715    150228.47   -47205.611    4123.6788   -51329.289   0.16883013 
  134600    302.72745   -1235.5541    150421.33   -47219.344    4157.2326   -51376.577   0.16202653 
  134800    301.80632   -824.96127     149851.9   -47271.692     4144.583   -51416.275     0.155204 
  135000    292.59686   -772.22705    149723.92   -47330.522    4018.1133   -51348.636   0.15663608 
  135200     294.5104   -1171.8211    150307.25   -47333.706    4044.3912   -51378.098   0.15993709 
  135400    294.17026   -1223.4348    150362.43    -47353.23    4039.7202    -51392.95   0.15979097 
  135600     294.7775   -789.28649    149726.84    -47326.03    4048.0592   -51374.089   0.16019591 
  135800    296.89335    -752.9665    149713.52   -47401.148    4077.1153   -51478.263    0.1503724 
  136000    290.81707   -1247.6424    150319.04    -47424.44    3993.6721   -51418.112   0.15743223 
  136200    297.12038   -1182.2911    150212.11   -47436.648    4080.2329   -51516.881   0.15951321 
  136400    294.32511   -699.90721    149533.09   -47397.675    4041.8466   -51439.522    0.1521109 
  136600    301.17258   -776.50561    149721.69   -47338.352    4135.8801   -51474.233    0.1537432 
  136800    291.99856    -1336.847    150458.02   -47335.724    4009.8971   -51345.621   0.16876851 
  137000    300.11979   -1165.7398    150226.73   -47344.843    4121.4226   -51466.266   0.15937222 
  137200    298.80482   -662.41058    149510.94   -47387.927    4103.3646   -51491.292   0.15136397 
  137400    296.68013    -887.8367     149776.7   -47340.965    4074.1871   -51415.152   0.15431657 
  137600    293.22449   -1364.7312    150430.13    -47321.35    4026.7323   -51348.082   0.17139542 
  137800    297.95187   -1123.2715    150126.79   -47299.022    4091.6514   -51390.673   0.15983378 
  138000    297.51556   -741.71477    149580.88   -47303.376    4085.6598   -51389.036   0.15696681 
  138200    299.81765   -947.37122    149883.56   -47351.394    4117.2734   -51468.667   0.15746117 
  138400    299.55463   -1283.0806    150306.73   -47329.642    4113.6614   -51443.304   0.15890492 
  138600    299.16251    -1065.229     149991.4   -47348.085    4108.2767   -51456.362   0.15921635 
  138800      296.295   -801.88948    149675.48    -47300.48    4068.8983   -51369.379   0.16327819 
  139000    298.36106   -1043.2848    149998.69     -47284.5    4097.2706   -51381.771   0.17023993 
  139200    299.66379   -1140.4537    150227.18     -47280.1    4115.1605   -51395.261   0.15859829 
  139400    297.96183   -980.56643    149929.54    -47312.66    4091.7883   -51404.448   0.16007506 
  139600    301.80064   -849.26714    149762.12   -47296.838     4144.505   -51441.343    0.1609098 
  139800    301.47468   -1009.4494    150046.12    -47252.35    4140.0288   -51392.378   0.15948521 
  140000    299.46651   -1164.5771    150186.17   -47215.929    4112.4513    -51328.38   0.16539737 
  140200    300.17121   -963.09218    149930.19   -47263.627    4122.1287   -51385.756    0.1681315 
  140400    297.62944   -859.09998    149803.67   -47290.243    4087.2237   -51377.466   0.15876944 
  140600    302.20471   -1009.7866    149985.96   -47289.195     4150.054   -51439.249   0.15584795 
  140800    296.59295   -1104.3717    150070.13   -47279.497    4072.9899   -51352.487   0.17131204 
  141000    296.78446   -934.74841    149891.11   -47319.224    4075.6198   -51394.844    0.1643571 
  141200    299.33337   -870.34334    149813.12   -47270.796     4110.623   -51381.419   0.16001005 
  141400    296.73797   -1052.2072    149998.76   -47272.665    4074.9815   -51347.646   0.16046628 
  141600    307.01667   -1095.4636    150054.67   -47255.981    4216.1346   -51472.115   0.16561703 
  141800    301.08181   -951.83407    149847.21   -47312.577    4134.6336   -51447.211   0.15865496 
  142000    298.83074   -875.50344    149774.52   -47328.852    4103.7206   -51432.572   0.15607337 
  142200     298.9139    -1040.267    150024.95   -47321.187    4104.8625   -51426.049   0.16207408 
  142400     296.9906   -1086.9471    150089.56   -47323.169    4078.4507    -51401.62   0.16035628 
  142600    295.73123   -924.39691    149841.63   -47317.258    4061.1564   -51378.414   0.15645286 
  142800    296.38378   -925.22606    149787.79    -47323.49    4070.1175   -51393.607   0.16258857 
  143000    291.20714   -1083.6391    150023.41   -47382.901    3999.0288    -51381.93   0.16768223 
  143200    292.58346   -1106.2964    150082.59   -47348.406    4017.9293   -51366.335    0.1679379 
  143400    296.10292   -937.00253    149842.98   -47315.706    4066.2606   -51381.967   0.16313551 
  143600    295.02338   -887.24916    149797.07   -47305.623    4051.4357   -51357.058   0.16364142 
  143800    298.52761   -1071.6545    150074.54   -47314.462    4099.5578    -51414.02   0.16028399 
  144000    295.51149   -1120.4902    150099.76   -47301.208    4058.1386   -51359.346   0.16771822 
  144200    303.79379   -852.31021    149846.41   -47278.917    4171.8761   -51450.793   0.16096334 
  144400    304.58921   -943.07616    149899.18   -47280.871    4182.7994    -51463.67   0.15797609 
  144600    299.90042   -1117.1933    150174.66   -47249.154    4118.4101   -51367.564   0.16211985 
  144800    297.98211   -1107.4144    150090.29   -47219.244    4092.0667    -51311.31   0.16832059 
  145000    304.27385    -802.8233    149762.64   -47270.329    4178.4686   -51448.798   0.15364781 
  145200    293.30949   -916.99255    149871.71   -47298.996    4027.8996   -51326.895   0.15720193 
  145400    298.85448   -1267.3357    150277.77   -47299.912    4104.0466   -51403.959   0.16973378 
  145600    303.48901   -1074.8173    150080.65   -47321.978    4167.6907   -51489.668   0.15799059 
  145800    299.64919   -732.54125    149565.96   -47344.126      4114.96   -51459.086   0.15442789 
  146000    295.38862   -937.61581    149866.88   -47328.127    4056.4514   -51384.578   0.15960517 
  146200    297.01201    -1364.086    150456.26   -47349.641    4078.7447   -51428.386   0.16527586 
  146400    299.86149   -1035.6049    149992.19   -47308.253    4117.8754   -51426.129    0.1604121 
  146600    296.89295   -545.99786    149398.55   -47277.927    4077.1097   -51355.037   0.15711703 
  146800    301.33253   -1029.3063    150042.56   -47226.749    4138.0767   -51364.826   0.16623565 
  147000    300.01351   -1468.1509    150642.89   -47229.073    4119.9631   -51349.036   0.16887351 
  147200    306.28635   -887.84737    149896.08   -47208.573    4206.1055   -51414.678   0.15754496 
  147400    298.01047   -573.74168    149404.84   -47282.612    4092.4562   -51375.068   0.16149421 
  147600    296.22894   -1119.3269    150192.67   -47287.039    4067.9912    -51355.03   0.16900714 
  147800    301.19624   -1435.1928    150561.31   -47322.285     4136.205    -51458.49   0.16807736 
  148000    299.66502   -823.86312    149742.53   -47298.739    4115.1775   -51413.916   0.15765173 
  148200    301.67504   -599.12701    149466.09   -47345.909    4142.7802   -51488.689    0.1508542 
  148400    295.63164   -1184.3194    150200.78   -47387.194    4059.7886   -51446.982   0.15845538 
  148600    294.31583   -1316.9064     150374.1   -47351.185    4041.7192   -51392.904   0.16786871 
  148800    294.29455   -803.05992    149697.24   -47364.915     4041.427   -51406.342    0.1581082 
  149000     299.7684    -730.4112    149633.21    -47373.68    4116.5971   -51490.277   0.15311445 
  149200    292.93386   -1165.6456    150267.55   -47370.402    4022.7412   -51393.143   0.15646215 
  149400    290.67485    -1204.726    150274.43   -47392.801    3991.7191    -51384.52    0.1618375 
  149600    295.03328    -762.8527    149701.29   -47400.861    4051.5717   -51452.432   0.15491728 
  149800    295.78986   -775.68422    149728.98   -47387.574    4061.9614   -51449.536   0.15277721 
  150000    295.88279   -1167.1446    150244.23   -47337.802    4063.2376   -51401.039   0.15701054 
  150200    298.96742   -1168.0488    150170.28   -47283.068    4105.5976   -51388.666   0.16149368 
  150400    297.34788    -778.2928     149703.1   -47259.282    4083.3571   -51342.639   0.15733792 
  150600    298.38231   -906.48595    149845.89   -47310.744    4097.5625   -51408.306   0.16174592 
  150800    299.11862   -1200.4666    150282.15   -47266.216     4107.674    -51373.89   0.16412142 
  151000    298.40397   -1064.2607    150121.43   -47309.682    4097.8599   -51407.542    0.1593193 
  151200    293.66178   -822.93406    149738.72   -47301.438    4032.7373   -51334.176   0.16350629 
  151400    302.87221   -938.09317    149924.73   -47211.535    4159.2205   -51370.755   0.16541476 
  151600     300.1379   -1212.4921    150313.28   -47191.666    4121.6713   -51313.337   0.16882344 
  151800    299.93127   -1087.8225    150114.18   -47206.515    4118.8338   -51325.348   0.16716547 
  152000    298.90179   -816.31993    149742.71   -47214.427    4104.6963   -51319.123   0.16338173 
  152200    299.65172   -942.96442       149968   -47232.788    4114.9948   -51347.783    0.1591725 
  152400    296.71711   -1170.6146     150330.6   -47275.788     4074.695   -51350.483   0.15630326 
  152600    302.50009   -1099.5074    150090.24   -47248.309    4154.1102   -51402.419   0.16173883 
  152800    301.88774   -786.54311    149774.45   -47183.033    4145.7011   -51328.734   0.16399374 
  153000    297.62441   -1037.2603    150072.58   -47249.161    4087.1545   -51336.316   0.16042227 
  153200    299.89747   -1193.1161    150282.55   -47183.541    4118.3695   -51301.911   0.16453848 
  153400    294.99185   -915.45361    149922.13   -47243.503    4051.0027   -51294.506   0.16124713 
  153600    301.75125   -828.11128    149720.09    -47274.82    4143.8268   -51418.647   0.15750937 
  153800    297.19416   -1038.2178    150040.78   -47297.937    4081.2461   -51379.183   0.15981796 
  154000    295.43046    -1151.737    150183.82   -47308.762     4057.026   -51365.788   0.16148294 
  154200    297.63833   -844.94033    149837.08   -47257.537    4087.3457   -51344.882   0.15920239 
  154400    300.20399   -829.95356    149763.16   -47252.691    4122.5789    -51375.27   0.15468082 
  154600    298.54754   -1135.8025    150137.84    -47269.29    4099.8315   -51369.121    0.1613439 
  154800    303.71751   -1136.7436    150151.79   -47284.831    4170.8286    -51455.66   0.16249348 
  155000     296.1166   -863.24414    149771.29   -47277.732    4066.4484    -51344.18   0.16078254 
[...]
  163200    293.78603     -1195.23    150151.25   -47344.828    4034.4436   -51379.272   0.16836042 
  163400    299.82509     -999.364    149940.41   -47382.636    4117.3756   -51500.012   0.15865775 
  163600    297.68371    -810.8902    149679.54   -47334.756     4087.969   -51422.725   0.16033664 
  163800    296.78583   -1021.9934    149924.77   -47394.212    4075.6387    -51469.85    0.1611215 
  164000    292.89374   -1162.5606    150157.52   -47407.068    4022.1903   -51429.259     0.161092 
  164200    292.06525   -999.69368    149903.23    -47407.66    4010.8128   -51418.473   0.16351122 
  164400    298.62467   -810.32887    149688.72   -47351.781    4100.8908   -51452.672    0.1605926 
  164600    294.73019   -1014.6424    149931.04   -47326.661    4047.4094    -51374.07   0.16402049 
  164800    296.19516   -1179.0805    150107.25   -47363.096    4067.5272   -51430.624   0.16715756 
  165000    295.78647   -935.17091    149878.05   -47340.851    4061.9149   -51402.766   0.16190833 
  165200    296.23117   -872.76526    149762.39   -47339.707    4068.0217   -51407.729   0.16094424 
  165400     295.8583   -1099.0529    149996.61   -47366.942    4062.9013   -51429.843   0.16066115 
  165600    299.38256   -1098.5385    150100.89   -47301.711    4111.2985    -51413.01   0.16520361 
  165800    297.54463   -966.69035    149913.13   -47328.915     4086.059   -51414.974   0.15970701 
  166000    297.86744   -897.21387    149830.52   -47288.472     4090.492   -51378.964   0.16524261 
  166200    297.93322   -1026.7281    149994.59   -47318.724    4091.3953   -51410.119   0.16417866 
  166400    299.59264    -1054.642     150053.7   -47313.427    4114.1835   -51427.611   0.16234225 
  166600    296.92759    -948.5532    149905.35   -47310.282    4077.5854   -51387.867   0.15858932 
  166800    294.36093   -929.74277    149862.63   -47373.357    4042.3386   -51415.695   0.16586321 
  167000    292.05983   -1046.6316    150008.81    -47371.51    4010.7385   -51382.248   0.16563002 
  167200    296.45216   -1084.7576    150036.27   -47318.297    4071.0565   -51389.353   0.16083081 
  167400    296.44161   -967.66209    149896.09   -47368.008    4070.9117   -51438.919   0.16600533 
  167600    296.50965   -914.76208    149844.24   -47349.805     4071.846   -51421.651   0.15721356 
  167800    293.45807   -1012.2292       149928   -47418.219    4029.9399   -51448.158   0.16589154 
  168000    291.78841   -1044.0707    149932.47   -47406.106    4007.0112   -51413.117   0.17178805 
  168200    294.06742   -999.01315    149865.14   -47404.111    4038.3078   -51442.419   0.16965319 
  168400    301.50569   -945.49838    149873.72   -47360.417    4140.4546   -51500.871   0.15502547 
  168600    297.79312   -993.77981     149960.8   -47370.025    4089.4714   -51459.496    0.1560388 
  168800    295.98145   -1081.6419    149998.32   -47410.855    4064.5925   -51475.448   0.16899573 
  169000    299.12128   -986.85773    149918.86    -47396.94    4107.7104    -51504.65   0.16015278 
  169200    295.47477   -937.79804    149891.72   -47366.312    4057.6345   -51423.946    0.1573952 
  169400    296.83078   -1029.9056    149990.49   -47392.786    4076.2559   -51469.041   0.16366329 
  169600    296.79607   -1000.5129    150008.19   -47402.349    4075.7794   -51478.129   0.16161942 
  169800    292.40487    -973.3275    149936.03   -47408.613    4015.4768    -51424.09   0.15689358 
  170000    293.25579   -960.61802    149919.25   -47449.293    4027.1621   -51476.455   0.16086308 
  170200    292.06101   -998.82533    149991.78   -47457.907    4010.7547   -51468.661   0.16236388 
  170400     298.9273   -989.27513    149993.12   -47428.421    4105.0466   -51533.468   0.15776779 
  170600    286.15017   -963.16795    149919.18   -47409.251    3929.5835   -51338.834   0.16031753 
  170800    295.65789   -936.21189    149927.64   -47434.951    4060.1491     -51495.1   0.15677745 
  171000    298.56348   -1003.5855    149996.67    -47433.37    4100.0504    -51533.42   0.16471435 
  171200    289.63139   -1019.8344    149955.89   -47460.416    3977.3897   -51437.806   0.16213573 
  171400    291.67193   -947.57238     149844.5   -47457.547    4005.4116   -51462.958   0.16488661 
  171600    291.11803   -935.05098    149850.85   -47420.339    3997.8051   -51418.144   0.16576954 
  171800    295.68394   -1006.2573    149979.58   -47396.105    4060.5069   -51456.612   0.16030906 
  172000    295.85521   -1012.8445     149988.8   -47401.262    4062.8588   -51464.121   0.15927027 
  172200    290.83237   -967.71601    149855.29   -47409.789    3993.8822   -51403.671   0.16128283 
  172400    302.02743   -927.20148    149849.85   -47377.447    4147.6194   -51525.066   0.15748167 
  172600    294.38376   -995.77919    149956.08   -47358.901    4042.6521   -51401.553   0.16475871 
  172800    289.93204    -1079.811    149978.34   -47365.286    3981.5184   -51346.804   0.16709337 
  173000    299.79324   -931.87929    149839.92   -47387.024    4116.9382   -51503.962   0.15640133 
  173200     293.7001    -950.6464    149834.49   -47426.043    4033.2636   -51459.306   0.16505749 
  173400    293.03775   -1047.4885    150015.34   -47408.232    4024.1679     -51432.4   0.16849595 
  173600    295.66865   -1026.3062    150014.74   -47357.834    4060.2969   -51418.131   0.16381388 
  173800    297.05907   -945.00519    149868.34   -47361.486    4079.3909   -51440.877   0.16286143 
  174000    299.79664   -964.31261    149888.83    -47324.09    4116.9849   -51441.075   0.16223073 
  174200    297.12088   -1076.5794    150029.34   -47316.164    4080.2397   -51396.404   0.16731023 
  174400    300.32623   -1024.5675    149987.47   -47299.054    4124.2575   -51423.312   0.16172827 
  174600     295.6039   -927.66771    149872.76   -47312.193    4059.4078   -51371.601   0.16614343 
  174800    301.63139   -981.96407    149947.18   -47275.217    4142.1808   -51417.398   0.16672763 
  175000    305.47806   -1030.2559    150043.59   -47322.623    4195.0055   -51517.628   0.15456973 
  175200    296.45528   -1030.6494     149925.8   -47318.875    4071.0993   -51389.974   0.17016415 
  175400     291.1107   -950.52236    149819.21   -47329.349    3997.7045   -51327.053   0.17364481 
  175600    298.59617   -1008.3964    149935.42   -47338.999    4100.4994   -51439.498   0.16359909 
  175800     297.2476   -1047.8223     150005.8   -47321.393      4081.98   -51403.373   0.15896341 
  176000    297.18424   -980.10982    149961.72   -47309.198    4081.1099   -51390.308   0.15771315 
  176200    302.66386   -964.83492    149950.77   -47257.748    4156.3593   -51414.107   0.16072999 
  176400    297.99039    -1020.487    149983.01   -47297.317    4092.1805   -51389.498   0.15993959 
  176600     297.6054   -972.60773    149917.78   -47277.009    4086.8934   -51363.903   0.16386682 
  176800    295.19752   -993.71636    149911.93   -47285.374    4053.8271   -51339.201   0.17485072 
  177000    302.85782   -1035.0045    149991.84    -47300.81    4159.0228   -51459.833   0.15989337 
  177200    295.52998   -1028.0298    150011.03   -47314.856    4058.3926   -51373.248     0.160933 
  177400    297.76312   -989.81353    149946.32   -47408.082    4089.0594   -51497.141   0.16747933 
  177600    293.00328   -952.86836    149933.47   -47372.461    4023.6945   -51396.156   0.16273848 
  177800    297.11449   -1019.0806    150012.09   -47349.375    4080.1521   -51429.527   0.15840672 
  178000    298.83807   -1007.3905    149977.96    -47307.32    4103.8213   -51411.142   0.15921247 
  178200    294.74679   -975.13366    149887.22   -47345.987    4047.6374   -51393.624    0.1647388 
  178400    299.50509    -993.3788    149908.33    -47321.28    4112.9812   -51434.262   0.16171223 
  178600    298.13003   -1041.3585    150000.48   -47336.096     4094.098   -51430.194   0.15963115 
  178800    299.64991    -1028.656    149986.88    -47304.65      4114.97    -51419.62   0.16678947 
  179000    296.82824   -954.16923    149916.28   -47278.838     4076.221   -51355.059   0.16247689 
  179200    298.94824   -1001.1606    149956.58   -47303.118    4105.3342   -51408.452   0.16064192 
  179400    298.78768    -1000.853    149978.48   -47275.346    4103.1292   -51378.475   0.16448293 
  179600     296.1891   -972.62694    149918.71   -47283.057    4067.4441   -51350.501    0.1651705 
  179800    298.70188   -1027.6025    149909.53   -47312.381     4101.951   -51414.332   0.16185278 
  180000    297.86667   -1000.8419    149954.78   -47277.056    4090.4814   -51367.537    0.1629962 
  180200    303.90657   -1031.2562    150000.16     -47237.9    4173.4249   -51411.325   0.16095085 
  180400    302.74606   -1004.5656    149957.25   -47192.591    4157.4881   -51350.079   0.16563789 
  180600    300.74642   -970.52553    149929.55   -47283.939    4130.0279   -51413.967   0.16142679 
  180800    304.03544   -965.38005    149967.68   -47247.234    4175.1947   -51422.428   0.16195711 
  181000    301.54273   -1037.6381    149964.52   -47290.048    4140.9633   -51431.011   0.16689469 
  181200    300.10664   -959.03639    149927.72   -47272.351     4121.242   -51393.593   0.16353432 
  181400      299.287   -1018.1107     149958.3   -47312.488    4109.9862   -51422.475   0.16325968 
  181600    298.27621   -988.01159    149981.94   -47333.029    4096.1054   -51429.134   0.15656173 
  181800    299.04081   -978.00995     149933.8   -47304.118    4106.6055   -51410.723   0.16086988 
  182000    296.01244   -1012.5901    149941.07   -47312.237     4065.018   -51377.256   0.16947286 
  182200    298.90511   -1017.8359    149988.45   -47327.479    4104.7418   -51432.221   0.15997221 
  182400    297.49221   -1009.8289    149947.16   -47328.569    4085.3391   -51413.908   0.15902059 
  182600    299.90115   -950.35279    149883.18   -47292.093    4118.4201   -51410.513   0.15600921 
  182800    300.39492   -1003.8157    149921.48   -47256.218    4125.2008   -51381.419   0.17040195 
  183000    299.55775    -1091.155       150008   -47255.531    4113.7044   -51369.235   0.16749595 
  183200    304.01511   -1018.3151    149965.99   -47238.005    4174.9155    -51412.92   0.16318189 
  183400    303.04812   -967.91673    149902.39   -47246.585    4161.6362   -51408.222   0.16509603 
  183600    300.44788   -1027.0902    149942.78   -47276.528    4125.9281   -51402.456   0.15994255 
  183800    296.57307   -1020.9596    149985.75   -47308.484    4072.7169     -51381.2   0.16103059 
  184000    298.29787   -991.28593    149936.92   -47322.537    4096.4029    -51418.94    0.1691636 
  184200    294.16728   -969.57189     149887.8   -47367.305    4039.6793   -51406.985   0.16874474 
  184400    292.56523   -995.00742    149926.31   -47376.239    4017.6788   -51393.918    0.1562411 
  184600    298.13506   -1020.0316    149996.08   -47384.198    4094.1671   -51478.365   0.15975328 
  184800    296.44409    -1001.314    149921.04   -47372.742    4070.9457   -51443.688   0.16536172 
  185000    298.45271   -961.60129     149852.5   -47365.445    4098.5292   -51463.974   0.16298487 
  185200    295.24069   -1010.3913    149944.16   -47422.596      4054.42   -51477.016   0.16063697 
  185400    297.58254   -1045.9819    149976.98   -47398.113    4086.5796   -51484.692   0.16157761 
  185600     294.2088   -971.64394    149897.54   -47401.855    4040.2494   -51442.105   0.15889941 
  185800    294.72773    -956.3557    149890.99   -47346.479    4047.3756   -51393.855   0.15401221 
  186000    297.86326   -1021.5984    149986.03   -47331.103    4090.4346   -51421.537   0.16397527 
  186200    291.77126    -1072.401    149995.91   -47320.648    4006.7756   -51327.424   0.16800378 
  186400    298.37899   -936.42962    149911.65   -47270.623    4097.5169    -51368.14    0.1605242 
  186600     299.9338   -1010.6051    149953.06   -47305.217    4118.8685   -51424.085   0.16589115 
  186800    297.84538   -1045.4705    150060.62   -47331.268     4090.189   -51421.457   0.16118666 
  187000    298.32392    -1019.994    150003.79   -47303.068    4096.7607   -51399.828   0.16338107 
  187200    300.27012    -899.0228    149884.69   -47325.546     4123.487   -51449.033   0.15631754 
  187400    293.50111   -1041.2499     149969.8   -47309.117     4030.531   -51339.648   0.17165215 
  187600    293.30324   -1136.0939    150083.63   -47348.777    4027.8138    -51376.59   0.16683232 
  187800    296.73822   -974.37493    149932.67   -47338.922    4074.9849   -51413.907   0.16020084 
  188000    295.31773   -864.28382    149820.37   -47313.378    4055.4778   -51368.856   0.16485054 
  188200    295.79231   -1043.1017    150031.02   -47301.881    4061.9951   -51363.876   0.16403041 
  188400     300.0108   -1114.1123    150127.22   -47287.599    4119.9259   -51407.525   0.16515043 
  188600     302.7349   -928.64628    149854.29   -47297.368    4157.3348   -51454.703   0.16284481 
  188800    299.87178   -869.31987    149736.84   -47313.224    4118.0168    -51431.24   0.16713619 
  189000    298.02686    -1101.318     150068.2   -47301.272    4092.6813   -51393.954    0.1611488 
  189200    302.79339   -1141.7988    150196.25   -47303.116     4158.138   -51461.254     0.163029 
  189400    298.43594   -904.43983    149813.83   -47269.298     4098.299   -51367.597   0.16640524 
  189600    293.94156   -810.08808    149702.81   -47285.835    4036.5795   -51322.415   0.16394622 
  189800     296.6314   -1122.1895    150137.57   -47319.385     4073.518   -51392.903   0.16434191 
  190000    294.05091   -1183.2611    150198.65   -47350.677    4038.0811   -51388.758    0.1653579 
  190200    294.74097    -833.3474    149720.04   -47331.009    4047.5574   -51378.567   0.16048451 
  190400     303.4379   -782.11317    149725.95   -47331.079    4166.9889   -51498.068   0.15469997 
  190600    291.69251   -1254.4503    150255.58   -47264.353    4005.6942   -51270.047   0.17838672 
  190800     301.7561   -1129.8114    150175.42    -47299.67    4143.8934   -51443.564    0.1592961 
  191000    297.42871   -768.20673    149605.09   -47320.665     4084.467   -51405.132   0.15640027 
  191200    297.47339   -810.21932    149721.43   -47313.474    4085.0806   -51398.555   0.15989891 
  191400    301.06467    -1285.991    150312.67   -47330.692    4134.3982    -51465.09   0.16862583 
  191600     294.0219   -1127.4098    150126.27   -47285.317    4037.6827   -51322.999   0.16876024 
  191800    296.90216     -716.878    149603.53   -47328.015    4077.2362   -51405.251   0.15847734 
  192000    300.16634   -924.70463    149855.23   -47326.824    4122.0618   -51448.886   0.16782615 
  192200    297.72313   -1254.3322    150323.37   -47287.806    4088.5102   -51376.316   0.16939079 
  192400    296.66334   -1054.4557    150025.14   -47299.312    4073.9566   -51373.268    0.1647525 
  192600    299.24956    -725.0146    149578.07   -47337.259    4109.4721   -51446.731   0.15964375 
  192800    302.60145   -957.67518    149917.14    -47309.54    4155.5023   -51465.042   0.15950601 
  193000     294.2375   -1259.9536    150319.72   -47292.079    4040.6435   -51332.722   0.16963771 
  193200    302.67983   -990.46401    149918.44   -47250.728    4156.5786   -51407.306   0.16274121 
  193400    300.13312   -719.20632    149567.06   -47258.232    4121.6057   -51379.837   0.16480287 
  193600    297.43283   -1050.9636    150009.07   -47264.861    4084.5237   -51349.385   0.16893785 
  193800    296.03247   -1246.7318    150294.06   -47309.557    4065.2931   -51374.851    0.1696525 
  194000    299.03677   -944.92511    149844.98    -47343.12    4106.5499    -51449.67    0.1707827 
  194200    302.26276   -752.25302    149612.09   -47331.602    4150.8512   -51482.453   0.16023311 
  194400    305.01628   -1100.7249    150090.36   -47305.906     4188.664    -51494.57   0.16024945 
  194600    293.64851   -1225.4461    150291.56   -47326.128    4032.5551   -51358.683   0.16150505 
  194800    299.86466    -862.8708    149795.99    -47319.69     4117.919   -51437.609   0.15761843 
  195000    300.99505   -794.37298    149641.01   -47304.686    4133.4422   -51438.128   0.16002042 
  195200    297.42171   -1138.3584    150144.11   -47282.252     4084.371   -51366.623   0.16817854 
  195400    302.70736   -1217.7164    150239.09   -47283.312    4156.9567   -51440.268   0.16850351 
  195600    303.14305   -856.70648    149738.87   -47295.408    4162.9398   -51458.348   0.16273018 
  195800    301.17135   -797.29027    149691.18   -47341.834    4135.8632   -51477.697   0.16046641 
  196000    299.22073   -1114.9903     150133.1   -47305.225    4109.0762   -51414.301   0.17354476 
  196200    300.13745   -1139.7743    150165.28   -47291.809    4121.6651   -51413.474   0.16541416 
  196400    298.93076   -858.06404    149808.32   -47295.999    4105.0942   -51401.093    0.1529007 
  196600    299.19616   -918.13484    149829.47   -47363.636    4108.7388   -51472.375   0.15902812 
  196800    297.46246   -1139.2493    150097.16   -47350.197    4084.9305   -51435.127    0.1660871 
  197000    293.66364   -1032.5344    150028.56   -47361.482     4032.763   -51394.245   0.16404834 
  197200     292.8596   -934.82759    149804.61   -47422.164    4021.7214   -51443.885   0.15731769 
  197400    294.61943   -935.61656    149845.02     -47377.9    4045.8884   -51423.788   0.16382856 
  197600    302.17045   -1066.0227    150016.44   -47286.772    4149.5834   -51436.355   0.16674346 
  197800    298.74334   -1056.1734    150019.07   -47272.867    4102.5203   -51375.388   0.16429541 
  198000    299.11976   -954.46636    149904.59   -47304.915    4107.6897   -51412.604   0.16635032 
  198200    297.15497   -993.25256    149916.03   -47331.509     4080.708   -51412.217   0.15700287 
  198400    298.47924   -1032.7138    150025.83   -47255.164    4098.8935   -51354.058   0.16132139 
  198600    299.31803   -1047.3414    150022.09   -47244.462    4110.4123   -51354.874   0.16412922 
  198800    298.55908   -936.09523       149913   -47279.056      4099.99   -51379.046   0.15886776 
  199000    296.75974    -1000.455    149917.72   -47285.795    4075.2804   -51361.075     0.163157 
  199200    296.38284   -1050.7828    149993.06   -47279.058    4070.1045   -51349.163   0.16282861 
  199400    301.37507   -1002.2541    149970.17   -47291.264    4138.6608   -51429.925   0.16724437 
  199600    301.72296   -962.03301    149935.54   -47315.456    4143.4383   -51458.895   0.16171291 
  199800    297.12332   -987.20646     149966.3   -47292.652    4080.2733   -51372.925   0.16432276 
  200000    296.59312    -1066.445     150037.9   -47312.348    4072.9923    -51385.34   0.16444259 
Loop time of 107.062 on 6 procs for 200000 steps with 4608 atoms

Performance: 807.012 ns/day, 0.030 hours/ns, 1868.084 timesteps/s
97.7% CPU use with 6 MPI tasks x no OpenMP threads

MPI task timing breakdown:
Section |  min time  |  avg time  |  max time  |%varavg| %total
---------------------------------------------------------------
Pair    | 75.063     | 75.728     | 76.509     |   6.4 | 70.73
Neigh   | 10.826     | 11.058     | 11.477     |   8.5 | 10.33
Comm    | 9.5889     | 10.104     | 10.958     |  15.3 |  9.44
Output  | 3.0802     | 3.0816     | 3.0877     |   0.2 |  2.88
Modify  | 5.7512     | 5.848      | 5.9514     |   3.1 |  5.46
Other   |            | 1.243      |            |       |  1.16

Nlocal:        768.000 ave         777 max         757 min
Histogram: 1 0 0 1 0 1 1 0 1 1
Nghost:        1395.00 ave        1406 max        1389 min
Histogram: 2 2 0 0 0 0 0 1 0 1
Neighs:        0.00000 ave           0 max           0 min
Histogram: 6 0 0 0 0 0 0 0 0 0
FullNghs:      21837.7 ave       22126 max       21451 min
Histogram: 1 0 0 0 1 1 1 1 0 1

Total # of neighbors = 131026
Ave neighs/atom = 28.434462
Neighbor list builds = 12921
Dangerous builds = 0
write_data		data.${NAME}
write_data		data.ice_298K_-1000atm_ML
System init for write_data ...
Total wall time: 0:02:38
