
# Create simulation box of size 50 x 50 x 50 Angstrom
#
lattice	            sc 1
Lattice spacing in x,y,z = 1.0000000 1.0000000 1.0000000
region 	            all block 0 ${X} ${YZ_LO} ${YZ_HI} ${YZ_LO} ${YZ_HI} units box
region 	            all block 0 53.4 ${YZ_LO} ${YZ_HI} ${YZ_LO} ${YZ_HI} units box
region 	            all block 0 53.4 -0.0922390706114733.0 ${YZ_HI} ${YZ_LO} ${YZ_HI} units box
region 	            all block 0 53.4 -0.0922390706114733.0 50.99935907060933.0 ${YZ_LO} ${YZ_HI} units box
region 	            all block 0 53.4 -0.0922390706114733.0 50.99935907060933.0 -0.0922390706114733.0 ${YZ_HI} units box
region 	            all block 0 53.4 -0.0922390706114733.0 50.99935907060933.0 -0.0922390706114733.0 50.99935907060933.0 units box
create_box          1 all
Created orthogonal box = (0.0000000 -0.092239071 -0.092239071) to (53.400000 50.999359 50.999359)
  3 by 1 by 2 MPI processor grid

# fill box with 4175 randomly distributed atoms
#
create_atoms        1 random 4608 63782 all
Created 4608 atoms
  create_atoms CPU = 0.001 seconds
mass                1 18.015

# Define potential
#
pair_style          sw
pair_coeff          * * /data/emrosky-sim/Freezing_Simulations/Melting/MLmW_fancy/ML_mW.sw mW
Reading sw potential file /data/emrosky-sim/Freezing_Simulations/Melting/MLmW_fancy/ML_mW.sw with DATE: 2019-02-27

# Run minimization
#
minimize            1.0e-8 1.0e-8 10000 1000
WARNING: Using 'neigh_modify every 1 delay 0 check yes' setting during minimization (../min.cpp:187)
Neighbor list info ...
  update every 1 steps, delay 0 steps, check yes
  max neighbors/atom: 2000, page size: 100000
  master list distance cutoff = 6.0032907
  ghost atom cutoff = 6.0032907
  binsize = 3.0016454, bins = 18 18 18
  1 neighbor lists, perpetual/occasional/extra = 1 0 0
  (1) pair sw, perpetual
      attributes: full, newton on
      pair build: full/bin/atomonly
      stencil: full/bin/3d
      bin: standard
Per MPI rank memory allocation (min/avg/max) = 4.236 | 4.249 | 4.255 Mbytes
Step Temp E_pair E_mol TotEng Press 
       0            0    7196656.2            0    7196656.2    4907052.8 
     668            0   -49913.841            0   -49913.841   -454.51384 
Loop time of 1.25152 on 6 procs for 668 steps with 4608 atoms

99.2% CPU use with 6 MPI tasks x no OpenMP threads

Minimization stats:
  Stopping criterion = max force evaluations
  Energy initial, next-to-last, final = 
      7196656.18964895   -49913.315799343  -49913.8408946831
  Force two-norm initial, final = 1.6525360e+08 6.4866915
  Force max component initial, final = 87984616.0 1.5628128
  Final line search alpha, max atom move = 0.02576687 0.040268794
  Iterations, force evaluations = 668 1000

MPI task timing breakdown:
Section |  min time  |  avg time  |  max time  |%varavg| %total
---------------------------------------------------------------
Pair    | 0.99382    | 1.0832     | 1.1562     |   6.3 | 86.55
Neigh   | 0.02586    | 0.026612   | 0.027087   |   0.3 |  2.13
Comm    | 0.04653    | 0.11988    | 0.20921    |  19.1 |  9.58
Output  | 0          | 0          | 0          |   0.0 |  0.00
Modify  | 0          | 0          | 0          |   0.0 |  0.00
Other   |            | 0.0218     |            |       |  1.74

Nlocal:        768.000 ave         783 max         751 min
Histogram: 2 0 0 0 0 1 0 1 1 1
Nghost:        1560.50 ave        1578 max        1536 min
Histogram: 1 0 0 1 0 2 0 0 0 2
Neighs:        0.00000 ave           0 max           0 min
Histogram: 6 0 0 0 0 0 0 0 0 0
FullNghs:      21781.7 ave       22465 max       20935 min
Histogram: 1 1 0 0 0 1 0 1 1 1

Total # of neighbors = 130690
Ave neighs/atom = 28.361545
Neighbor list builds = 26
Dangerous builds = 0

# Add velocity/set timestep
#
velocity            all create ${TEMP} 120598 rot yes dist gaussian
velocity            all create 298 120598 rot yes dist gaussian
timestep            5.0

# Define output
#
compute	            1 all msd
thermo	            100
thermo_style        custom step temp press vol etotal ke pe c_1[4] density

# Neighbor lists
#
neigh_modify        delay 0 every 1 check yes

# Set fixes
#
fix                 1 all momentum 10 linear 1 1 1 rescale
fix                 2 all nve
fix                 3 all temp/csvr ${TEMP} ${TEMP} 500.0 928347
fix                 3 all temp/csvr 298 ${TEMP} 500.0 928347
fix                 3 all temp/csvr 298 298 500.0 928347
fix                 4 all press/berendsen iso ${PRES} ${PRES} 1000.0 modulus 20000
fix                 4 all press/berendsen iso -1000 ${PRES} 1000.0 modulus 20000
fix                 4 all press/berendsen iso -1000 -1000 1000.0 modulus 20000

# Run 0.5 ns equilibration
#
dump                1 all custom 1000 eq.${NAME}.dump id type x y z vx vy vz
dump                1 all custom 1000 eq.liq_298K_-1000atm_ML.dump id type x y z vx vy vz
run                 100000
Per MPI rank memory allocation (min/avg/max) = 3.486 | 3.501 | 3.505 Mbytes
Step Temp Press Volume TotEng KinEng PotEng c_1[4] Density 
     668          298    887.51361    139392.76   -45821.529    4092.3124   -49913.841            0   0.98890726 
     700    153.95278   -849.84145    140585.73   -45190.245    2114.1707   -47304.416   0.20370299    0.9805157 
     800    213.09449   -701.27066    141536.92   -43749.975    2926.3397   -46676.314   0.71366564   0.97392619 
     900    236.85418    -855.0197    142181.07   -42863.772    3252.6218   -46116.394    1.3735846   0.96951382 
    1000    261.03379   -846.44448    142793.56   -42239.182    3584.6704   -45823.853    2.0643905   0.96535528 
    1100    270.13172   -1157.1796    142769.84   -41764.484    3709.6087   -45474.093     2.810621   0.96551566 
    1200    283.21575   -912.41764     143140.2   -41466.155    3889.2863   -45355.442    3.7463911   0.96301753 
    1300    291.29544   -642.23039    143466.46   -41196.594    4000.2414   -45196.835    4.7573525   0.96082749 
    1400    294.19456   -937.52024     143837.6   -41097.866    4040.0538   -45137.919    5.7105456   0.95834831 
    1500    296.25474    -1059.191    143584.66   -40958.863    4068.3455   -45027.208    6.6240099   0.96003653 
    1600    292.62888   -1091.0556    143362.38   -40955.495    4018.5529   -44974.048     7.642084   0.96152503 
    1700    291.08549   -1060.5026    143556.48     -40918.9    3997.3583   -44916.258    8.6884661   0.96022494 
    1800    294.37363   -1072.3809    143298.88   -40849.621    4042.5129   -44892.134    9.6934068   0.96195109 
    1900    299.68161   -897.76156    143313.06   -40763.992    4115.4052   -44879.397    10.729942   0.96185591 
    2000     299.5894   -902.16725    143208.51   -40723.325     4114.139   -44837.464    11.947002   0.96255812 
    2100    296.38397   -1057.1572    143382.48    -40796.18    4070.1202     -44866.3    13.381287   0.96139025 
    2200    301.01556   -1067.2909    143320.12   -40803.837    4133.7238   -44937.561    14.492142   0.96180856 
    2300    303.38111   -934.63624    142871.57   -40790.634    4166.2089   -44956.843    15.803699   0.96482815 
    2400    291.12249   -874.27199    142630.04   -40821.151    3997.8663   -44819.017    17.103686   0.96646201 
    2500    294.46432   -1039.4491    142551.46    -40804.73    4043.7584   -44848.488    18.298241   0.96699476 
    2600    300.68659   -899.07949    142494.24   -40677.907    4129.2062   -44807.113    19.548827   0.96738305 
    2700    295.75523   -834.15452    142560.95   -40684.704    4061.4859    -44746.19    20.940451   0.96693037 
    2800      299.442    -1230.924    143029.88     -40729.2    4112.1148   -44841.315    22.321335    0.9637603 
    2900    301.81571   -1240.9948    143215.75   -40679.819    4144.7119   -44824.531    23.266715   0.96250951 
    3000    302.89775   -1088.4097    143087.73   -40658.851    4159.5712   -44818.422    24.478494    0.9633706 
    3100    297.63741   -1136.6259    142754.55   -40695.466     4087.333   -44782.799     25.49141   0.96561904 
    3200    302.06918   -978.96875    142874.58   -40664.479    4148.1928   -44812.672    26.636317   0.96480783 
    3300    300.00065   -1091.8193    142881.53    -40688.22    4119.7866   -44808.007    27.805005    0.9647609 
    3400    299.12286   -898.92518    142644.12   -40679.036    4107.7322   -44786.768    28.961508    0.9663666 
    3500    303.50731   -1029.7242    142738.38   -40586.256    4167.9421   -44754.198    30.284041   0.96572844 
    3600    297.82452   -809.17426    142764.52   -40637.613    4089.9026   -44727.516    31.464071   0.96555163 
    3700    299.18537   -807.79774    143137.72   -40597.767    4108.5906   -44706.357    32.805628   0.96303419 
    3800    300.62264   -1274.5367     142931.2   -40608.926     4128.328   -44737.254    33.874417   0.96442564 
    3900    300.20156   -1161.1145    142682.66    -40760.71    4122.5455   -44883.255    34.961634   0.96610557 
    4000    297.02852   -1013.5931    142562.82   -40782.688    4078.9714   -44861.659    35.936864   0.96691774 
    4100    298.60365   -1098.4829    142436.79   -40711.565    4100.6021   -44812.167    37.146164   0.96777328 
    4200    299.25679   -760.24102    142734.48   -40757.071    4109.5714   -44866.643    38.717854   0.96575487 
    4300    298.55237   -1105.9736    142654.09   -40695.034    4099.8978   -44794.932    40.151246    0.9662991 
    4400    300.42078   -1100.1688    142427.35   -40673.782     4125.556   -44799.337    41.644824   0.96783742 
    4500    297.36697   -1052.3365    142303.27   -40676.731    4083.6193    -44760.35    42.882317   0.96868132 
    4600    298.94321   -964.67715    142539.12   -40693.447    4105.2652   -44798.713    44.270431   0.96707849 
    4700    299.34642   -967.99561    142650.18   -40691.323    4110.8022   -44802.125    45.284424   0.96632559 
    4800    297.42003   -1149.3886    142638.07   -40651.097    4084.3479   -44735.445    46.539445   0.96640759 
    4900    300.73397   -1099.2941    142525.08   -40637.184    4129.8569    -44767.04    47.729323   0.96717374 
    5000    295.18706   -967.63977    142278.52   -40697.541    4053.6834   -44751.224    48.935869    0.9688498 
    5100    296.21044   -1047.6458    142275.76   -40685.276    4067.7371   -44753.013    50.263187   0.96886861 
    5200    296.50197    -1035.558    142325.38   -40758.402    4071.7405   -44830.143    51.443126   0.96853079 
    5300    300.83365   -1195.2115    142219.51   -40718.705    4131.2258   -44849.931    52.247215   0.96925183 
    5400    298.29848   -813.35606    142268.16   -40639.917    4096.4113   -44736.328    53.271558   0.96892039 
    5500    301.87174   -1209.2337    142501.46   -40598.591    4145.4814   -44744.072    54.435862   0.96733403 
    5600    305.29922   -987.20216    142398.97   -40532.398    4192.5496   -44724.947    55.694772   0.96803031 
    5700    303.73549   -781.07695    142809.81   -40634.475    4171.0756   -44805.551    56.689294   0.96524541 
    5800    307.23961   -830.11438    143016.73   -40551.719    4219.1961   -44770.915    57.670314    0.9638489 
    5900    293.29428   -997.69657    142694.69   -40794.386    4027.6906   -44822.077    58.349904   0.96602417 
    6000    292.27938   -1039.2249    142783.31   -40825.505    4013.7534   -44839.259    59.492216   0.96542456 
    6100    296.31262   -993.31986    142880.83   -40739.076    4069.1402   -44808.216    60.743874   0.96476568 
    6200    295.36479   -942.91818    142605.44   -40800.574    4056.1241   -44856.698    62.126772   0.96662874 
    6300    293.51548   -990.82753    142693.64   -40751.997    4030.7282   -44782.725    63.520986   0.96603127 
    6400    296.39088   -1059.9397    142398.94   -40825.432    4070.2149   -44895.647    64.927469    0.9680305 
    6500    295.89661   -720.92637    142345.04     -40759.2    4063.4274   -44822.628    66.343721   0.96839705 
    6600    295.94491   -850.48009    142629.25   -40821.461    4064.0906   -44885.551     67.42695    0.9664674 
    6700    295.00858    -1136.523    142684.25   -40814.866    4051.2324   -44866.099    68.315414   0.96609483 
    6800    292.03916   -1047.9216    142768.13   -40902.884    4010.4547   -44913.338    69.524473   0.96552725 
    6900    293.83562   -825.74832    142642.04   -40832.496    4035.1247   -44867.621    70.296625   0.96638069 
    7000    297.98387   -981.91276    142484.66   -40675.651    4092.0909   -44767.742    71.286091   0.96744813 
    7100    295.61133     -944.004    142341.57   -40804.355    4059.5097   -44863.864    72.344284   0.96842062 
    7200    290.46938   -1126.4829    142147.69   -40815.828    3988.8975   -44804.725    73.194356   0.96974154 
    7300    292.60699   -985.20535     142127.8   -40780.675    4018.2524   -44798.928    74.406475   0.96987722 
    7400    294.96428   -732.53958    142375.26   -40828.602    4050.6241   -44879.226    75.318637   0.96819147 
    7500    302.81832     -793.091    142639.17   -40725.611    4158.4804   -44884.091    76.479399   0.96640015 
    7600    294.83172   -1067.4764    142986.94   -40726.153    4048.8036   -44774.957    78.044264   0.96404971 
    7700    296.36354   -1169.1502    142949.96   -40707.578    4069.8396   -44777.417    78.802144   0.96429912 
    7800    297.79812   -1233.9323    142843.89    -40743.64      4089.54    -44833.18    79.646328   0.96501515 
    7900    291.01922   -1077.8849    142884.17   -40868.603    3996.4482   -44865.051    80.614566   0.96474308 
    8000    295.09821   -930.19711    142706.12   -40878.456    4052.4633   -44930.919    80.881963   0.96594678 
    8100     299.2426   -670.25766     142854.7   -40754.571    4109.3765   -44863.948    81.520684   0.96494213 
    8200    293.77078   -1185.0023    143194.57   -40798.648    4034.2342   -44832.883    83.032648   0.96265183 
    8300    300.06487   -1023.1265    142978.46   -40706.097    4120.6684   -44826.766    83.973293   0.96410685 
    8400    292.87786   -669.89396    142942.65   -40775.046    4021.9721   -44797.018     85.02802    0.9643484 
    8500    294.94973   -987.44159    142759.42   -40807.732    4050.4242   -44858.156    86.246925   0.96558616 
    8600    300.91779   -1043.3106    142955.68   -40703.515    4132.3812   -44835.896    87.673713   0.96426048 
    8700    296.12975   -932.92014    143057.11   -40693.527     4066.629   -44760.156      88.7353   0.96357681 
    8800    295.01677    -1056.372    143101.81    -40687.54    4051.3449   -44738.885    89.885738   0.96327583 
    8900     293.2642   -887.88961    142817.37   -40700.709    4027.2776   -44727.987    91.057605   0.96519436 
    9000    302.77472   -962.96924    143105.32   -40551.994    4157.8817   -44709.876     92.38184   0.96325224 
    9100    303.15926   -842.46096     142966.3    -40651.07    4163.1624   -44814.232    93.814645   0.96418888 
    9200    301.26862   -913.01591    143127.15   -40700.439     4137.199   -44837.638    95.070274   0.96310531 
    9300    301.53912   -898.39592    143184.15   -40714.105    4140.9137   -44855.019    96.056095   0.96272192 
    9400     296.2595   -1020.8664     143113.1   -40731.249    4068.4108    -44799.66    97.364132   0.96319985 
    9500     295.6837   -1041.1081     142850.7   -40807.736    4060.5036    -44868.24    98.274155   0.96496917 
    9600    295.01842   -1087.9817    142764.15   -40835.017    4051.3676   -44886.384     99.71037   0.96555412 
    9700    296.29025   -1116.6238    142836.53   -40777.324    4068.8331   -44846.157    100.87037   0.96506489 
    9800    302.50477   -889.57627    142652.33   -40763.741    4154.1746   -44917.916    101.76289   0.96631098 
    9900    298.73685   -861.24834    142577.17   -40716.238    4102.4313    -44818.67    103.01816    0.9668204 
   10000    292.79014   -1000.9362    142778.84   -40862.509    4020.7675   -44883.277    104.22234   0.96545483 
   10100    294.24151   -916.58144    142877.85   -40777.715    4040.6986   -44818.414    105.74159   0.96478577 
   10200    299.89934    -1086.839    142672.42   -40822.728    4118.3952   -44941.123    107.17554   0.96617491 
   10300    302.69492   -875.21346    142824.83   -40721.149    4156.7858   -44877.935    108.61721   0.96514395 
   10400    301.22782   -1084.9366    142672.73   -40687.197    4136.6387   -44823.836    109.79147   0.96617286 
   10500    300.01732   -1003.5311     142292.2   -40711.278    4120.0154   -44831.293    111.10712   0.96875668 
   10600    306.01039   -771.94876    142141.51   -40694.678    4202.3159   -44896.994    112.11694   0.96978367 
   10700    302.92004   -740.57761    142565.07   -40711.153    4159.8772    -44871.03    113.98294   0.96690243 
   10800    298.00707   -758.03316    142979.27   -40708.945    4092.4094   -44801.355    114.96191   0.96410139 
   10900     298.0259   -1250.3241    143157.12    -40589.69     4092.668   -44682.358    116.40869   0.96290367 
   11000    303.58201   -919.03807    142773.76       -40663    4168.9679   -44831.968    117.59136   0.96548913 
   11100    300.51098   -1060.9921    142876.77   -40717.443    4126.7946   -44844.238    118.59096   0.96479305 
   11200    300.14186   -1026.1399    142862.55    -40719.54    4121.7257   -44841.266    119.87468   0.96488908 
   11300     292.5578   -854.90023    142431.36   -40771.402    4017.5769   -44788.979    121.01209   0.96781013 
   11400    292.32828   -886.31434     142802.8   -40756.946     4014.425   -44771.371    122.27862   0.96529279 
   11500    294.89589   -1100.7379    142530.74   -40873.253    4049.6849   -44922.938     122.8597   0.96713536 
   11600    291.97688   -988.31836    142545.33    -40915.25    4009.5993   -44924.849    123.65985   0.96703634 
   11700    299.73863   -776.92847    142987.25   -40768.454    4116.1883   -44884.643    124.95798   0.96404758 
   11800    296.82552   -938.50297    142841.17   -40771.616    4076.1837   -44847.799    126.43487    0.9650335 
   11900    291.07436   -1015.3343    142263.22   -40839.963    3997.2054   -44837.169    127.09503   0.96895403 
   12000    291.04833   -986.83085    143018.22   -40832.517    3996.8479   -44829.365    128.52054   0.96383887 
   12100    296.13071   -1125.0965    142679.27   -40783.041    4066.6423   -44849.683    129.36817   0.96612855 
   12200    301.99689   -1192.1368    142374.39   -40671.639    4147.2001    -44818.84    130.47624   0.96819744 
   12300    297.84983   -1083.9226    142312.91   -40617.482    4090.2502   -44707.732    131.51653    0.9686157 
   12400    301.63052   -748.00968    142453.69   -40539.079    4142.1688   -44681.248    132.93744   0.96765843 
   12500    302.21027   -861.21116    142288.62   -40591.778    4150.1304   -44741.908    134.18996   0.96878103 
   12600    301.93044   -910.21189    142498.11   -40613.916    4146.2876   -44760.203     135.2541   0.96735678 
   12700    299.03798   -668.53003    142397.47   -40611.265    4106.5666   -44717.831    136.53549   0.96804048 
   12800    298.42675    -735.2845    142571.62   -40652.732    4098.1728   -44750.905     137.3921   0.96685804 
   12900    303.90937   -1035.5238    142634.84   -40655.984    4173.4633   -44829.448    138.04084   0.96642952 
   13000    295.34068   -1125.5689    142774.46   -40728.244     4055.793   -44784.037    139.08571   0.96548442 
   13100    296.43165   -856.95495    142993.15    -40712.97    4070.7749   -44783.745    140.29571   0.96400782 
   13200    295.59463   -1172.4613    142739.64   -40622.067    4059.2804   -44681.348    141.79226   0.96571994 
   13300    300.90856   -831.34775    142825.94   -40624.545    4132.2545   -44756.799    143.02947   0.96513643 
   13400    295.37967    -794.2838    143254.07   -40653.868    4056.3285   -44710.196    144.59168   0.96225199 
   13500    294.48279   -896.28202    143252.84   -40644.941     4044.012   -44688.953    146.17835   0.96226027 
   13600    297.76287   -932.69438    143278.86   -40624.513    4089.0559   -44713.568    147.40667   0.96208549 
   13700    300.69207   -1147.0187    143224.34   -40703.129    4129.2815    -44832.41    148.95041   0.96245176 
   13800     297.1025   -983.79603    143213.08   -40784.337    4079.9874   -44864.325    149.94664   0.96252744 
   13900    293.12444   -1066.5421    142895.99   -40831.891    4025.3584   -44857.249    151.07023   0.96466326 
   14000    289.11997   -922.03248    142708.54   -40904.097    3970.3666   -44874.464    151.83841   0.96593043 
   14100    292.81181   -908.89059    142572.05   -40859.302    4021.0651   -44880.367     153.1179   0.96685509 
   14200    295.41881   -1238.5168     142726.3   -40833.491    4056.8659   -44890.357    153.99067   0.96581017 
   14300    297.35003   -1002.6763     142868.8    -40878.17    4083.3866   -44961.556    155.47481    0.9648469 
   14400    296.56563   -1095.6093    142573.92   -40853.457    4072.6147   -44926.071    156.28219   0.96684247 
   14500    294.59039   -1034.3962    142027.11   -40853.579    4045.4896   -44899.069    156.84553   0.97056482 
   14600     298.6671   -940.18779     142146.6   -40758.343    4101.4734   -44859.816    158.03512   0.96974894 
   14700    303.91497   -845.92038    142532.97   -40688.106    4173.5402   -44861.646    159.53368    0.9671202 
   14800    290.64556   -1060.4733    142732.54   -40772.988    3991.3169   -44764.305    161.08041   0.96576795 
   14900    300.40195   -954.56921    143159.62   -40713.525    4125.2973   -44838.822    162.05681   0.96288687 
   15000    298.59774    -1092.259    143062.21   -40787.182    4100.5209   -44887.703    162.87907   0.96354246 
   15100    297.68254   -1115.6935    143295.86   -40799.649    4087.9528   -44887.602    163.83963   0.96197135 
   15200    297.05379    -1113.658    142891.84   -40880.751    4079.3184   -44960.069     164.0826   0.96469133 
   15300     297.1483   -821.57394    142927.48   -40787.697    4080.6163   -44868.313    164.89206   0.96445079 
   15400    304.66406   -734.62052    142705.56   -40695.641    4183.8272   -44879.468    165.82984   0.96595058 
   15500    297.92282   -911.36537    142873.68   -40719.202    4091.2524   -44810.454    166.69423   0.96481394 
   15600    296.08881   -1095.7022    142625.27   -40763.763    4066.0668    -44829.83    167.78873   0.96649435 
   15700    288.56156   -912.94467    142666.29   -40777.141    3962.6981   -44739.839    168.76823   0.96621643 
   15800    294.90493    -1003.199    142584.69   -40780.982     4049.809   -44830.791    169.75556   0.96676938 
   15900    299.18169   -1075.0675    142901.23   -40745.769      4108.54   -44854.309     171.2006   0.96462791 
   16000    295.72989   -1128.5867    142339.87   -40821.995    4061.1379   -44883.133    171.45148   0.96843221 
   16100    294.87985   -1102.2634    142256.19   -40808.803    4049.4647   -44858.267    172.87786   0.96900191 
   16200    297.78072   -888.46378    142605.38   -40653.737    4089.3012   -44743.038    175.08894   0.96662914 
   16300    302.80104   -1021.9815    142299.17   -40638.503    4158.2431   -44796.746    176.13576   0.96870919 
   16400    298.22908    -1020.692    142284.33   -40555.491    4095.4583   -44650.949    177.38645   0.96881022 
   16500    300.54435   -995.73445    142435.67   -40578.118    4127.2529   -44705.371    179.01585   0.96778084 
   16600    303.62598   -1084.3984    142239.56   -40627.587    4169.5716   -44797.158     180.2777   0.96911516 
   16700    296.51184   -862.96304    142341.87   -40746.572    4071.8761   -44818.449    182.05277    0.9684186 
   16800    291.77516   -1058.6792    142232.74   -40706.663    4006.8291   -44713.492    183.38439   0.96916166 
   16900      299.672   -1096.0469    142554.65   -40682.606    4115.2733   -44797.879    184.64655   0.96697315 
   17000    298.24533    -1171.184    142643.31   -40683.784    4095.6814   -44779.466    186.28072   0.96637208 
   17100    295.24416   -921.09779    142439.75    -40721.08    4054.4675   -44775.548    187.25051   0.96775315 
   17200    299.58801    -910.5213    142626.91   -40618.584    4114.1198   -44732.704    188.81633   0.96648325 
   17300    297.92644   -1007.7737    142582.76   -40603.843    4091.3022   -44695.145    189.89054   0.96678247 
   17400    294.47261   -879.39364    142247.64   -40689.593    4043.8721   -44733.465    190.60742   0.96906011 
   17500    300.53374   -831.95993    142279.92   -40639.247    4127.1072   -44766.355    191.60215   0.96884029 
   17600    295.45514   -1069.4143    142705.31   -40661.475    4057.3648    -44718.84    193.11349   0.96595227 
   17700    297.95703   -745.82138    142756.55    -40605.95    4091.7223   -44697.672    194.52469   0.96560558 
   17800    298.62392   -1103.8069    142780.84   -40639.052    4100.8804   -44739.932    196.01375   0.96544127 
   17900    297.43802   -1048.8605    142496.82   -40685.173     4084.595   -44769.768    196.47905   0.96736554 
   18000    298.85306   -905.03567    142351.19   -40776.976    4104.0271   -44881.003    197.83777   0.96835519 
   18100    296.77692   -1023.9162    142594.62   -40752.502    4075.5164   -44828.018    199.38012   0.96670206 
   18200    296.54549   -1033.7224    142822.57   -40704.634    4072.3381   -44776.972    200.44734   0.96515917 
   18300    296.10126   -979.74749    142954.89   -40751.791    4066.2378   -44818.029    200.81068   0.96426585 
   18400    291.60464   -655.67044    142822.13    -40861.55    4004.4876   -44866.037     201.3562   0.96516218 
   18500    295.66861   -1057.7423     142894.3   -40769.932    4060.2963   -44830.228     201.9228   0.96467468 
   18600    296.26779   -868.43178    142685.99   -40790.609    4068.5247   -44859.133    202.76865   0.96608304 
   18700    299.52203    -1052.399    142449.22   -40701.813    4113.2138   -44815.027    204.23866    0.9676888 
   18800    298.52571   -1088.9968    142477.13    -40759.68    4099.5318   -44859.211    205.45199   0.96749926 
   18900    297.25622   -1135.6647    142572.98   -40787.434    4082.0984   -44869.533     206.6198   0.96684881 
   19000    297.43528   -1013.9642    142666.57   -40755.318    4084.5573   -44839.875    208.01769   0.96621453 
   19100    294.17628   -985.73197    142605.07    -40807.72    4039.8028   -44847.523    209.32552   0.96663128 
   19200    297.29973   -874.30333    142618.85   -40747.938    4082.6958   -44830.634    210.08631   0.96653783 
   19300    298.60281    -717.4031    142577.93   -40734.955    4100.5906   -44835.546    210.63037   0.96681527 
   19400    298.19119    -953.9106    143247.93    -40755.67    4094.9379   -44850.607    212.19065   0.96229323 
   19500    296.60988   -1075.2942    143177.44   -40709.486    4073.2225   -44782.708    213.53788   0.96276704 
   19600    301.62663   -947.75498    143105.53   -40719.647    4142.1155   -44861.763    214.42468   0.96325083 
   19700    298.75811   -1315.4962    143087.08   -40701.857    4102.7232    -44804.58    215.73965   0.96337499 
   19800    299.66134   -753.62507    143090.51   -40668.216    4115.1269   -44783.343    216.88944   0.96335191 
   19900    296.94453   -998.15865    143107.39   -40656.456    4077.8181   -44734.274    217.50122   0.96323826 
   20000    298.58498     -780.101    143016.76   -40614.573    4100.3457   -44714.918     218.2809   0.96384866 
   20100    303.74995   -939.17355    143271.56   -40646.102    4171.2741   -44817.376    219.12955   0.96213452 
   20200      304.177   -1197.3687    142907.68   -40602.526    4177.1386   -44779.665     219.8255   0.96458441 
   20300    305.00401   -943.29191    142984.64   -40585.678    4188.4955   -44774.173    221.15751    0.9640652 
   20400    299.70885   -1088.4577    142547.77   -40645.913    4115.7793   -44761.692    222.04682   0.96701978 
   20500    305.24969    -1164.959    142892.38   -40564.834    4191.8694   -44756.703    223.23032   0.96468766 
   20600    304.85198   -1228.8871     142794.1   -40686.104    4186.4079   -44872.512    224.54067   0.96535161 
   20700     302.2017    -1035.131    142335.73   -40770.943    4150.0127   -44920.955    225.41954   0.96846036 
   20800    297.42743   -1254.0158    142423.78   -40747.957    4084.4495   -44832.407    226.98376   0.96786168 
   20900    294.93006   -946.75894    142712.39    -40763.68    4050.1541   -44813.834    228.75122   0.96590437 
   21000    301.62568   -975.35273       142880   -40661.535    4142.1023   -44803.637     230.1084   0.96477126 
   21100     297.0289   -955.61556    142921.23   -40758.476    4078.9767   -44837.453    231.02686   0.96449291 
   21200    290.43927   -969.03039    143359.42   -40864.788    3988.4839   -44853.272    232.72749   0.96154488 
   21300    298.24154   -1039.1474    143239.91   -40872.158    4095.6293   -44967.787    233.60813   0.96234716 
   21400    295.06788   -1247.5017    142954.34   -40785.948    4052.0467   -44837.994     234.7994   0.96426956 
   21500    297.90568   -989.70614    142392.61   -40698.585    4091.0172   -44789.603    235.23431   0.96807353 
   21600    293.61805   -1030.2592    142446.68   -40731.041    4032.1368   -44763.178     236.4192   0.96770606 
   21700    299.66686   -1132.6751    142394.54   -40681.309    4115.2028   -44796.511    237.63776   0.96806042 
   21800    299.00323   -927.53724    142792.79   -40658.461    4106.0894    -44764.55    238.66529   0.96536052 
   21900    304.16594    -1049.509     142766.5   -40605.353    4176.9868    -44782.34    239.79707   0.96553825 
   22000    293.34026   -1055.0369    142604.93   -40620.369    4028.3221   -44648.691    240.73762    0.9666322 
   22100    305.36713   -769.38589    142245.09   -40557.254    4193.4822   -44750.736    241.90172   0.96907752 
   22200    299.07186   -1222.4359    142290.57   -40529.788    4107.0318    -44636.82    243.43539   0.96876776 
   22300    299.82958   -1101.2586    142444.35   -40596.827    4117.4373   -44714.264    244.44777    0.9677219 
   22400    299.21873   -795.93797    142688.68    -40666.59    4109.0487   -44775.639    245.41917   0.96606481 
   22500    298.53517   -1047.5161    142858.65   -40665.972    4099.6617   -44765.634    246.87821   0.96491541 
   22600    301.85672   -1203.3834    142665.78   -40675.097    4145.2752   -44820.372    247.90171   0.96621992 
   22700    297.02457   -1332.6252    142545.41   -40712.185    4078.9172   -44791.102    249.01813   0.96703585 
   22800    291.04746   -798.59599    142578.03    -40816.11     3996.836   -44812.946    250.56857   0.96681458 
   22900    296.50472   -778.87332     142653.8   -40813.674    4071.7783   -44885.453    250.86862   0.96630106 
   23000    297.50649   -993.76702    142800.38    -40688.96    4085.5353   -44774.496    251.86148    0.9653092 
   23100    295.90038   -986.61277    142722.33   -40690.771    4063.4792    -44754.25    252.90968   0.96583709 
   23200    299.17437   -916.52639    143054.18   -40698.646    4108.4396   -44807.086    254.60577   0.96359654 
   23300    299.68328   -1178.1558    143187.35   -40772.693    4115.4281   -44888.121    255.71032   0.96270036 
   23400    299.01855   -1122.1061    143460.16   -40774.379    4106.2997   -44880.678    256.89154   0.96086965 
   23500    297.81458   -1089.8478    143526.91   -40745.596     4089.766   -44835.363    258.43952   0.96042278 
   23600    291.65107   -1280.8522    143434.75   -40808.682    4005.1252   -44813.807    260.06303   0.96103987 
   23700    292.92684   -1068.9712    143392.53   -40786.321    4022.6447   -44808.965    260.82584   0.96132287 
   23800    295.25823   -1372.7675    143215.15   -40772.531    4054.6608   -44827.192    261.92112   0.96251351 
   23900    301.26713    -962.2661    143080.22   -40690.096    4137.1785   -44827.275    263.34026    0.9634212 
   24000    301.36123   -1204.9741    143118.78   -40619.523    4138.4708   -44757.994    263.81334    0.9631616 
   24100    304.00413   -1028.4588    142941.91   -40636.154    4174.7646   -44810.918    264.47594   0.96435338 
   24200    299.20661   -1228.1288    143132.21   -40591.677    4108.8823   -44700.559     266.1237   0.96307127 
   24300    299.88055   -942.21653    142675.57   -40646.689    4118.1372   -44764.826    266.61725   0.96615358 
   24400     300.2836   -763.92813    142908.62   -40617.782    4123.6721   -44741.454    268.23821   0.96457802 
   24500    301.05448   -886.25093    142876.86   -40666.047    4134.2583   -44800.306    269.20896   0.96479244 
   24600     299.8256   -928.67275    142877.18   -40664.529    4117.3826   -44781.912    270.89571   0.96479032 
   24700    305.65898   -1061.2056    142587.53   -40641.983      4197.49   -44839.473    271.29305   0.96675015 
   24800     300.9762   -1179.9939    142852.72   -40629.714    4133.1833   -44762.897    273.46528   0.96495552 
   24900    293.96208   -1072.0198    142833.02   -40714.438    4036.8613   -44751.299    274.53623    0.9650886 
   25000    296.42147   -1119.5233     142751.3   -40752.519     4070.635   -44823.154    275.92149   0.96564107 
   25100    294.49424   -1058.7139    142579.76   -40749.561    4044.1693   -44793.731     277.0689   0.96680282 
   25200    296.00053   -948.65494    142208.18     -40772.7    4064.8545   -44837.555    278.20154   0.96932903 
   25300    297.79606   -853.74869    142420.87    -40782.17    4089.5117   -44871.682    279.79484   0.96788147 
   25400    298.32808   -1066.8398    142434.48   -40736.266    4096.8178   -44833.084    280.90612   0.96778898 
   25500    292.50944   -1038.8684    142305.07   -40777.512    4016.9127   -44794.425    281.77749   0.96866904 
   25600    295.67996   -893.63602     142116.3   -40842.721    4060.4523   -44903.174    282.66896   0.96995569 
   25700    296.44088   -1040.3269    142104.44   -40890.591    4070.9017   -44961.492    284.31948   0.97003669 
   25800    295.47714   -1129.1092    142339.54   -40936.458     4057.667   -44994.125     286.0662   0.96843447 
   25900      297.605   -1215.3603    142439.03   -41008.244     4086.888   -45095.132    286.78636   0.96775804 
   26000    298.41988   -811.17496    142621.31   -40864.752    4098.0784    -44962.83     288.6526   0.96652117 
   26100    295.49824   -1004.8812    143154.24   -40855.915    4057.9567   -44913.871    290.18249   0.96292303 
   26200    298.03785   -733.13001    143263.21   -40745.836    4092.8322   -44838.668    291.31418   0.96219061 
   26300     296.9878   -1215.0658     143135.5   -40719.527    4078.4123    -44797.94    292.00027   0.96304911 
   26400    295.29197    -1188.428    143158.66   -40799.335    4055.1242   -44854.459    292.82917   0.96289331 
   26500    309.30648    -1115.325    143318.93   -40634.622    4247.5796   -44882.202    293.59633   0.96181651 
   26600    297.07075   -1009.6202    143426.26   -40736.426    4079.5514   -44815.978     294.9103   0.96109677 
   26700    297.51942    -1111.839       143130   -40691.616    4085.7128   -44777.329    295.41981   0.96308612 
   26800    294.50721   -981.39795    142830.88   -40705.503    4044.3473    -44749.85    295.07723   0.96510307 
   26900    293.22655   -786.95592    142763.97   -40796.186    4026.7606   -44822.946    296.22266   0.96555533 
   27000    295.57336   -962.70923    142956.44   -40794.337    4058.9883   -44853.325    297.17196   0.96425537 
   27100    303.28356   -881.67512    142918.55   -40711.803    4164.8694   -44876.673    298.17501   0.96451103 
   27200    295.30044   -1053.5524    142988.03   -40706.394    4055.2405   -44761.635    299.35224   0.96404235 
   27300    298.62848   -1265.5669    143077.05   -40659.695     4100.943   -44760.638    300.43386   0.96344256 
   27400     300.1657   -1032.5693    143044.38   -40594.476     4122.053   -44716.529    301.54375   0.96366256 
   27500    298.51849   -928.54984    142897.84   -40677.215    4099.4326   -44776.647    302.05189   0.96465081 
   27600    301.89714   -982.31058    142940.38   -40613.611    4145.8302   -44759.441    304.06095   0.96436374 
   27700    297.10353   -706.85587    143239.16   -40626.071    4080.0015   -44706.073    305.62096   0.96235219 
   27800    298.97596   -1001.3437    143474.87   -40611.629    4105.7148   -44717.344    306.95891   0.96077113 
   27900    305.81697   -924.22645    143354.32   -40615.897    4199.6597   -44815.557    308.05013   0.96157911 
   28000    306.28489   -714.14795    143348.75   -40566.162    4206.0854   -44772.248    309.57628   0.96161645 
   28100    298.83133   -1223.7796    143058.04   -40634.185    4103.7287   -44737.913    310.74204   0.96357054 
   28200    292.02934   -1238.2015    142797.55   -40793.662    4010.3197   -44803.982    311.21498   0.96532829 
   28300    297.82124   -1092.0743    142623.17   -40790.758    4089.8576   -44880.616    312.70629   0.96650859 
   28400    297.46298   -1065.7926       142611   -40645.595    4084.9378   -44730.532    312.62888   0.96659107 
   28500    295.79682   -1082.7797    142644.76    -40691.63     4062.057   -44753.687    313.57469    0.9663623 
   28600    295.01241   -985.62912    142526.58   -40735.662    4051.2851   -44786.947    314.06642   0.96716357 
   28700    294.58175   -1210.5438    142304.24   -40807.802     4045.371   -44853.173    314.40113   0.96867471 
   28800     302.2938   -1126.1197    142484.35   -40744.931    4151.2774   -44896.209    315.28109   0.96745022 
   28900    296.25482   -555.65488    142453.13   -40783.536    4068.3465   -44851.883    316.04082   0.96766227 
   29000     299.9793   -978.81573     142652.4   -40769.854    4119.4933   -44889.347    318.01191   0.96631055 
   29100    296.09197   -984.66865    142709.89    -40731.61    4066.1101    -44797.72    319.47124   0.96592127 
   29200    298.80893   -1003.0041    142913.34   -40790.163    4103.4211   -44893.584    321.26942    0.9645462 
   29300    296.71765   -989.36726    142969.17   -40799.373    4074.7024   -44874.075    322.82717   0.96416953 
   29400    291.21667    -1047.294    142751.25   -40811.189    3999.1596   -44810.348    323.58871   0.96564142 
   29500    299.97652   -1003.6499    142757.52   -40780.973    4119.4551   -44900.428     324.5066   0.96559899 
   29600    294.46828    -1042.814    142775.74    -40792.26    4043.8127   -44836.072     325.5448   0.96547576 
   29700    294.65216   -924.70641    142622.02   -40743.526    4046.3379   -44789.864    326.09436   0.96651637 
   29800     305.0424   -1063.7829    142745.41   -40676.432    4189.0228   -44865.455    327.90145    0.9656809 
   29900    297.19021   -993.35156    142704.44   -40693.167    4081.1918   -44774.359    329.27276   0.96595818 
   30000    296.52508   -1048.3034    142524.59   -40709.621    4072.0579   -44781.679    330.30216   0.96717706 
   30100    298.49744   -963.68914    142540.64   -40669.743    4099.1435   -44768.887    332.04557   0.96706821 
   30200    302.47285   -991.43884    142833.42   -40696.938    4153.7362   -44850.675    334.75341   0.96508591 
   30300    303.09211    -976.6491    142541.16   -40614.003    4162.2402   -44776.243     335.1836   0.96706465 
   30400    291.44654   -1100.8792    142537.93     -40800.7    4002.3164   -44803.017    335.69543   0.96708657 
   30500    290.58779   -1317.9872    142664.93   -40798.348    3990.5235   -44788.871    336.68944   0.96622566 
   30600    294.12854   -1301.0341    142634.38    -40839.63    4039.1472   -44878.778    338.37396   0.96643262 
   30700    296.21738   -1019.9199    142470.58    -40801.92    4067.8323   -44869.752    340.02103   0.96754377 
   30800    299.90013   -793.26961    142681.04   -40685.915     4118.406   -44804.321    342.20469   0.96611654 
   30900    296.57462   -966.20649    142620.77    -40771.89    4072.7382   -44844.629    342.93562   0.96652484 
   31000    298.70859   -841.14367    142904.54   -40703.427    4102.0432    -44805.47    343.60519   0.96460559 
   31100    293.79523   -1066.6097     142618.9   -40881.199      4034.57   -44915.769    344.47936   0.96653752 
   31200    294.83144   -1147.0358    142493.25   -40901.533    4048.7998   -44950.333    344.53206    0.9673898 
   31300    297.26625   -1228.4102    142169.99   -40864.183    4082.2362   -44946.419    345.34603   0.96958944 
   31400    300.97825   -966.17214    142544.38   -40859.466    4133.2115   -44992.678    346.43043   0.96704278 
   31500    304.30517   -975.07487    142653.54   -40749.889    4178.8987   -44928.788    347.40146   0.96630283 
   31600    298.06411   -804.12114    142707.43   -40746.618    4093.1928   -44839.811    348.90838   0.96593788 
   31700    299.95644   -1171.3284    142931.32   -40774.052    4119.1793   -44893.231     350.0086   0.96442482 
   31800     297.8585   -1096.5801    142702.26   -40765.939    4090.3693   -44856.309    350.12228   0.96597294 
   31900     295.5808   -761.15414    143048.66   -40729.401    4059.0905   -44788.491    351.27857   0.96363373 
   32000    301.43674   -1294.2049    142778.72   -40695.522    4139.5077    -44835.03    351.68003   0.96545563 
   32100    296.30751   -928.39894    142795.87   -40784.774    4069.0701   -44853.844    353.35842   0.96533964 
   32200     297.2102   -1069.8228       142827   -40747.311    4081.4664   -44828.778     354.4205   0.96512923 
   32300    293.09895   -1208.1636    142752.76   -40768.182    4025.0082    -44793.19    355.69437   0.96563121 
   32400    300.20401   -907.70936    142373.06   -40668.801    4122.5792    -44791.38    356.53092   0.96820647 
   32500    299.77864   -731.55696    142682.84   -40769.654    4116.7377   -44886.391    358.76412   0.96610438 
   32600    299.69673   -959.80668    143129.44    -40731.35    4115.6129   -44846.963     361.0318   0.96308987 
   32700    296.87948   -1091.4605    142974.75   -40726.278    4076.9248   -44803.202    362.63023   0.96413187 
   32800    294.71153    -1034.955    142790.39   -40794.346    4047.1532   -44841.499    363.87785   0.96537673 
   32900    296.46268   -981.33806    142482.98   -40872.195     4071.201   -44943.396    364.70654   0.96745955 
   33000    296.25789   -905.59941    142423.63   -40860.727    4068.3886   -44929.116    365.46307   0.96786267 
   33100    296.40149    -1007.183     142313.3   -40818.608    4070.3608   -44888.968    366.55391     0.968613 
   33200    299.93996   -1147.5047     142592.1   -40750.991     4118.953   -44869.944    368.33843   0.96671915 
   33300     302.2257   -901.73262    142559.73   -40715.859    4150.3422   -44866.202    369.53091   0.96693868 
   33400    296.58495   -892.66802    142983.78   -40783.784    4072.8801   -44856.664    371.99613   0.96407098 
   33500    299.96438   -887.11897    142964.89   -40661.173    4119.2884   -44780.462    373.43315   0.96419838 
   33600    300.28934   -1041.7915    142867.36    -40705.61     4123.751   -44829.361    374.68842   0.96485662 
   33700    294.07209    -1129.116    142842.91   -40743.622     4038.372   -44781.994    376.02131   0.96502179 
   33800    301.46731    -995.1667    143028.82   -40690.572    4139.9275     -44830.5    377.62943   0.96376741 
   33900    298.59578   -962.71105    142885.34    -40723.67    4100.4941   -44824.164    378.90331   0.96473516 
   34000    297.33631   -1067.8547    142653.88   -40769.959    4083.1983   -44853.157    379.47441    0.9663005 
   34100    298.23089   -1094.2677    142788.74   -40848.709    4095.4831   -44944.192    381.58152   0.96538785 
   34200    295.35525   -919.90693    142892.75    -40789.34    4055.9931   -44845.333    383.14706   0.96468516 
   34300    295.80071   -574.57633    142825.29   -40768.245    4062.1105   -44830.356    383.90559   0.96514079 
   34400    301.44518   -991.75809    143094.31   -40606.564    4139.6237   -44746.187    385.75438   0.96332634 
   34500    299.90727    -1200.524    143033.22    -40584.48    4118.5042   -44702.984    387.35267   0.96373778 
   34600    300.26217   -1154.2723    142646.56   -40652.734    4123.3778   -44776.112    387.67281   0.96635012 
   34700    293.12525   -1011.6378    142553.72   -40723.937    4025.3694   -44749.306    388.89588   0.96697947 
   34800    300.34869   -983.73196    142561.04   -40774.715     4124.566   -44899.281    389.36187    0.9669298 
   34900    297.28402    -1141.147    142341.74   -40775.101    4082.4801   -44857.582    389.56318   0.96841953 
   35000    292.41428   -941.17867    142091.87   -40816.211     4015.606   -44831.817    390.40663   0.97012251 
   35100    298.18739   -928.49791    142470.19   -40753.581    4094.8857   -44848.467    392.14958   0.96754638 
   35200    302.92753   -1273.8268    142731.17   -40564.215    4159.9802   -44724.196    393.89921   0.96577727 
   35300    304.84006   -1312.6603    142964.74   -40631.372    4186.2442   -44817.616    394.62052   0.96419938 
   35400    295.59942   -865.42157    142889.22   -40786.452    4059.3462   -44845.799    395.12501   0.96470898 
   35500    296.87519   -1035.0228    142849.83   -40777.382    4076.8659   -44854.248    396.39137   0.96497499 
   35600    295.61687    -923.3948    142748.96   -40768.421    4059.5859   -44828.007    396.71826   0.96565689 
   35700    299.98772   -845.07849    142940.25   -40700.605     4119.609   -44820.214    398.07437   0.96436463 
   35800    300.20285   -912.61425    142868.82   -40747.932    4122.5632   -44870.495     398.6031   0.96484675 
   35900    298.97189   -1066.1339    143208.82   -40678.315    4105.6589   -44783.974    400.64541   0.96255602 
   36000     300.1241   -1050.1857    142981.25   -40708.726    4121.4818   -44830.207    401.87472   0.96408805 
   36100    296.06509   -1001.3616    143117.82   -40727.896     4065.741   -44793.637    403.95118   0.96316806 
   36200    291.41404   -894.76828    143164.78   -40657.055    4001.8702   -44658.925    405.01892   0.96285216 
   36300    299.75904   -1066.6692    143116.98   -40665.308    4116.4686   -44781.777    405.65405   0.96317373 
   36400    301.54764   -1001.1196    143146.34   -40584.304    4141.0307   -44725.334    407.27304    0.9629762 
   36500     303.9591   -1334.4128    142837.46   -40556.218    4174.1462   -44730.365    407.58079   0.96505857 
   36600    293.51501    -1012.299    142709.48   -40692.083    4030.7219   -44722.805    408.34859   0.96592403 
   36700     298.9832   -1101.1397    142813.41    -40689.56    4105.8143   -44795.375    409.65024   0.96522111 
   36800    296.81837   -849.28871    142968.84   -40715.721    4076.0856   -44791.807     410.9171   0.96417175 
   36900     290.6878   -1090.1727    142722.49   -40822.713    3991.8969    -44814.61    411.84589   0.96583598 
   37000     299.4555   -886.12162    142721.09   -40769.426    4112.3001   -44881.726    412.63096   0.96584546 
   37100    299.56683     -1094.03    142688.87   -40815.079    4113.8291   -44928.909    413.61583   0.96606358 
   37200    292.24653   -605.64662    143150.36   -40769.742    4013.3023   -44783.045    415.73305   0.96294918 
   37300    296.87358   -1028.3537    143110.65   -40751.528    4076.8437   -44828.372    417.14224   0.96321632 
   37400      297.913   -1278.7489    142719.22   -40848.291    4091.1176   -44939.409    417.01294   0.96585808 
   37500    294.21281   -910.53713    142910.53   -40870.431    4040.3045   -44910.735    418.48749   0.96456518 
   37600    295.00131   -915.27544    142721.56   -40850.421    4051.1326   -44901.554    419.53173   0.96584227 
   37700    293.52103   -1181.8403    142717.72   -40872.368    4030.8045   -44903.173     419.8286   0.96586825 
   37800    295.41815   -1153.6932    142654.25   -40837.699    4056.8569   -44894.556     421.2832   0.96629797 
   37900    291.84275   -965.17472    142615.67   -40892.427    4007.7574   -44900.184     422.3558    0.9665594 
   38000    292.82951   -1043.5285    142620.68   -40823.878    4021.3081   -44845.186    423.59685   0.96652544 
   38100    292.41249   -673.89068    142569.45    -40879.15    4015.5814   -44894.731    424.24568   0.96687274 
   38200    299.81506   -709.42463    142441.07   -40830.463    4117.2379   -44947.701    425.77558   0.96774415 
   38300    290.89169   -865.22787    142451.34   -40929.299    3994.6969   -44923.995    427.10302   0.96767439 
   38400    292.32822   -1023.6008    142598.66   -40945.603    4014.4242   -44960.028    428.81218   0.96667472 
   38500    290.97383   -929.87508    142699.71   -40982.346    3995.8248   -44978.171    430.08137   0.96599017 
   38600    298.61416   -845.96551    142748.88   -40859.368    4100.7464   -44960.114    430.48299   0.96565744 
   38700    297.53459   -1105.6657    142807.52   -40879.314    4085.9211   -44965.236    431.75432   0.96526094 
   38800    294.95018   -777.83957    142832.89   -40789.115    4050.4305   -44839.546    433.22643   0.96508947 
   38900    303.74008   -1201.2787    142522.92   -40694.152    4171.1386   -44865.291    433.26165    0.9671884 
   39000    300.90204   -1121.2157    142523.66   -40760.868    4132.1649   -44893.033    434.26779   0.96718336 
   39100    296.68905   -1109.7394    142481.74   -40755.827    4074.3097   -44830.137    434.78429   0.96746793 
   39200    298.77144   -914.78346     142374.6   -40717.558    4102.9063   -44820.464    435.03548   0.96819596 
   39300    300.95775   -1022.1108    142574.15    -40736.49      4132.93    -44869.42    436.55675   0.96684088 
   39400     298.5615   -947.85556    142811.47   -40750.548    4100.0232   -44850.571    438.31491   0.96523423 
   39500    301.64928   -862.05169     143100.1   -40664.702    4142.4264   -44807.129    439.91003   0.96328738 
   39600    304.72707   -1005.2835    143259.95   -40652.677    4184.6926    -44837.37    441.09096   0.96221252 
   39700    294.59345   -910.07602    142992.36   -40730.703    4045.5316   -44776.234    441.81914   0.96401314 
   39800    303.29678   -1177.4853    142959.46    -40690.93    4165.0508    -44855.98    443.04801   0.96423503 
   39900    293.17673   -1234.4499    142733.07   -40920.322    4026.0764   -44946.398    445.05094    0.9657644 
   40000    297.21186   -776.63378    142613.38   -40769.474    4081.4892   -44850.963    446.49049   0.96657492 
   40100    302.52165    -895.7027    143428.76   -40753.295    4154.4063   -44907.701    448.76362   0.96108002 
   40200     301.9033    -1142.884    143303.22    -40690.67    4145.9148   -44836.584    450.42657   0.96192195 
   40300    298.34946   -1001.5409    143289.97   -40694.868    4097.1113    -44791.98    451.93808   0.96201091 
   40400    295.36667   -827.05827    143106.96   -40738.762      4056.15   -44794.912    453.10715   0.96324115 
   40500    294.52965   -870.07927    143058.63   -40722.805    4044.6555    -44767.46     452.6416   0.96356661 
   40600    294.55246    -1282.673    142986.21   -40686.456    4044.9687   -44731.424    454.43047    0.9640546 
   40700    297.49143   -1053.8344    142726.81    -40718.36    4085.3284   -44803.688    454.69408   0.96580678 
   40800    293.46083   -1054.1552    142831.96   -40736.423    4029.9778   -44766.401     457.5224   0.96509573 
   40900    299.44106   -1148.6805    142608.52   -40778.593    4112.1019   -44890.695    458.93632   0.96660785 
   41000    296.35885   -1132.7878    142680.44   -40773.867    4069.7751   -44843.643    460.53985    0.9661206 
   41100    300.77344   -1003.7298    142704.98   -40761.866    4130.3989   -44892.265    462.01079   0.96595452 
   41200    306.03437   -951.38348    142851.45   -40676.042    4202.6452   -44878.687    463.73562   0.96496406 
   41300    299.55312   -908.00285    142526.08   -40851.556    4113.6407   -44965.196     464.4022   0.96716696 
   41400    298.52692   -1182.8934    142376.23   -40834.608    4099.5484   -44934.156    465.22203   0.96818492 
   41500     297.1572   -954.36981    142666.59   -40830.371    4080.7386   -44911.109    467.01399    0.9662144 
   41600    301.14175   -877.33593    143273.32   -40735.189    4135.4567   -44870.646    469.35646   0.96212271 
   41700    290.51939   -994.16999    143552.41   -40892.168    3989.5842   -44881.752    471.50239   0.96025216 
   41800    295.84479   -1172.2615    143385.16   -40786.153    4062.7158   -44848.869    471.97912   0.96137228 
   41900    297.58233   -851.80146    143180.54   -40717.169    4086.5767   -44803.746    472.25979   0.96274616 
   42000    299.84029   -898.50329    143306.19   -40738.881    4117.5843   -44856.465    473.19225   0.96190207 
   42100    300.14275   -1122.8735    143461.51   -40732.433    4121.7379   -44854.171    474.16029    0.9608606 
   42200    298.70345   -1094.3205    143107.93   -40708.343    4101.9726   -44810.315    474.61773   0.96323463 
   42300    294.36832   -939.11487    143094.04   -40798.328      4042.44   -44840.768    474.86755   0.96332817 
   42400    293.05783   -826.48643    143244.48   -40793.804    4024.4436   -44818.247    476.40954   0.96231644 
   42500    292.13103   -720.44711    143136.31   -40819.377    4011.7163   -44831.093     477.5792   0.96304369 
   42600    300.82052   -1132.2408    142924.96       -40859    4131.0455   -44990.045    478.20969   0.96446773 
   42700     297.9235   -1010.9105    142961.67   -40911.586    4091.2618   -45002.848    478.70315   0.96422011 
   42800     288.7162   -1140.8044     143080.7   -40938.473    3964.8218   -44903.295    479.49177   0.96341796 
   42900    300.53597   -902.42986    142988.48   -40879.465    4127.1378   -45006.603    480.06734   0.96403934 
   43000    294.78291   -1025.1412    143254.58   -40840.051    4048.1334   -44888.184    482.60039    0.9622486 
   43100    298.64726   -1004.2957    143483.31   -40835.091    4101.2009   -44936.292    483.92447   0.96071462 
   43200     294.4247   -1156.8413    143322.15   -40867.758    4043.2143   -44910.972    484.53075   0.96179493 
   43300    289.29913   -1237.8747    142771.26   -40896.903    3972.8269    -44869.73    484.14679   0.96550603 
   43400     290.8262    -974.0738    142922.23   -40903.396    3993.7975   -44897.193    484.75898   0.96448622 
   43500     295.7175   -771.99378    142840.36    -40808.43    4060.9678   -44869.397    486.08762   0.96503902 
   43600    295.51278   -1188.9034    143006.25   -40826.308    4058.1565   -44884.465    488.03697   0.96391954 
   43700    299.48528   -989.08637    142882.45   -40800.209    4112.7091   -44912.918    488.75791   0.96475471 
   43800    299.60769     -818.452    142770.58   -40673.045    4114.3901   -44787.435    489.93947   0.96551064 
   43900    288.94305   -1043.3949    142578.37   -40792.526     3967.937   -44760.463    490.15744   0.96681223 
   44000     299.7898   -984.40736    142642.79    -40702.13    4116.8909   -44819.021    491.02413   0.96637564 
   44100    300.06511   -1004.2334    142863.68   -40606.437    4120.6717   -44727.109    492.33354   0.96488143 
   44200    305.48031   -1094.1728    143046.93   -40686.459    4195.0364   -44881.496    493.66479   0.96364537 
   44300    290.89227   -907.30583    143143.27   -40845.827    3994.7048   -44840.532    494.40049   0.96299687 
   44400    292.22901   -1092.2644    143033.13   -40824.952    4013.0617   -44838.014    495.73962   0.96373841 
   44500    294.71913   -1115.9859    142766.35   -40867.546    4047.2575   -44914.803    497.54749   0.96553926 
   44600    291.02008   -838.63799    142456.75   -40845.061      3996.46   -44841.521    497.55418   0.96763768 
   44700    292.85287   -1120.3448    142388.11   -40899.622    4021.6289   -44921.251    498.77472    0.9681041 
   44800    298.03312    -788.4512    142528.73   -40777.291    4092.7672   -44870.058    500.57701   0.96714899 
   44900    293.59191   -1155.5046    142465.15   -40810.339    4031.7779   -44842.116    501.40201   0.96758058 
   45000    296.91686   -821.63396    142357.18   -40821.027     4077.438   -44898.465     502.7024   0.96831447 
   45100    294.99708   -580.02498    142532.96   -40722.352    4051.0745   -44773.426     504.8626   0.96712031 
   45200    300.71125   -982.39715    143335.82   -40734.589    4129.5449   -44864.134    508.42998    0.9617032 
   45300    296.11477   -1024.9163    142839.28   -40767.077    4066.4233     -44833.5    507.97447   0.96504629 
   45400    298.10896   -1254.7013    142620.23   -40807.468    4093.8087   -44901.276    508.58868   0.96652852 
   45500    295.22868   -796.43859    142759.42   -40737.272     4054.255   -44791.527     509.8541   0.96558613 
   45600    295.57095   -1023.1029     142674.4   -40788.806    4058.9552   -44847.762    511.01495   0.96616155 
   45700    302.51259   -1025.2268    142684.98   -40739.576     4154.282   -44893.858    512.91199   0.96608986 
   45800    296.54518   -770.72103    142649.56   -40715.104     4072.334   -44787.438    514.63444   0.96632977 
   45900    300.82193   -766.81343    142699.26   -40687.353    4131.0649   -44818.418    515.74789    0.9659932 
   46000    291.56933   -684.81521    143029.12   -40725.112    4004.0026   -44729.115    517.26988   0.96376538 
   46100    304.01474   -825.69366    143314.15   -40665.945    4174.9103   -44840.855    519.40497    0.9618486 
   46200    300.24723   -1029.4596    143164.41   -40687.803    4123.1727   -44810.976    520.09062   0.96285463 
   46300    301.26825    -1310.629    142848.18   -40724.701    4137.1939   -44861.895    520.40323   0.96498614 
   46400    301.67575   -1013.8166    142666.91   -40716.857      4142.79   -44859.647    521.27877   0.96621223 
   46500    300.05939    -1083.797    142341.52   -40666.258    4120.5931   -44786.851    521.55958   0.96842103 
   46600    303.35419   -816.46786     142720.4   -40608.882    4165.8392   -44774.721    523.65657   0.96585015 
   46700    298.95705   -939.34931    142702.42   -40612.843    4105.4551   -44718.298    524.73815   0.96597184 
   46800     302.2947   -859.60692    143066.67   -40553.348    4151.2898   -44704.637     526.0641   0.96351243 
   46900    299.13036   -1137.2082    143161.81   -40554.232    4107.8351   -44662.067    527.85884   0.96287211 
   47000    297.55664   -1165.7894    142880.54   -40667.338    4086.2239   -44753.562    528.07123   0.96476761 
   47100     300.9204   -958.41759     142807.2   -40626.232     4132.417   -44758.649    528.93123   0.96526305 
   47200    297.23046   -1046.4415    142859.75   -40666.794    4081.7446   -44748.539    530.04938   0.96490804 
   47300    299.67774   -1142.9208    143033.86   -40607.432    4115.3522   -44722.785    530.25557   0.96373345 
   47400    304.28806   -1110.4262    143005.13   -40557.987    4178.6637   -44736.651    531.85398   0.96392708 
   47500    299.22143   -1012.3408    143004.49    -40664.53    4109.0858   -44773.616    532.85897   0.96393139 
   47600    305.54996   -910.79471    143263.49   -40575.671    4195.9929   -44771.664    534.07675   0.96218875 
   47700    302.35307   -909.44708    143436.37   -40664.521    4152.0913   -44816.612    536.04757   0.96102901 
   47800    292.89673   -1030.5831    143056.18   -40723.766    4022.2312   -44745.997    535.47511    0.9635831 
   47900    298.75181   -1268.2644    142949.62   -40711.777    4102.6367   -44814.413    536.05987   0.96430137 
   48000    297.44146   -1092.9977    142552.78   -40769.881    4084.6422   -44854.523    535.66753   0.96698582 
   48100    294.02951   -954.99283    142626.32   -40832.091    4037.7873   -44869.879    537.62346   0.96648722 
   48200    296.23059   -954.10352    142950.55   -40731.859    4068.0138   -44799.872    538.35993   0.96429511 
   48300    296.62843   -1099.4168    142860.01   -40715.304    4073.4771   -44788.781    539.87211   0.96490625 
   48400    295.53423      -1105.1    142719.07   -40688.905     4058.451   -44747.356    541.75997   0.96585913 
   48500    298.41258   -1112.3966    142621.52   -40772.201    4097.9782   -44870.179      542.233   0.96651974 
   48600    298.88522   -968.81209    143068.59   -40791.522    4104.4687    -44895.99    545.77326   0.96349954 
   48700    294.50996   -959.27989    143262.85     -40873.9    4044.3851   -44918.285    547.86278   0.96219302 
   48800    292.86632   -963.72675    143417.03   -40837.994    4021.8137   -44859.808    549.70757    0.9611586 
   48900    297.97134    -603.2069    143436.65    -40776.02    4091.9187   -44867.939    550.66876   0.96102718 
   49000    297.86347   -956.69916    143355.01   -40753.271    4090.4374   -44843.708    551.38484   0.96157448 
   49100    296.55388   -1145.8796    143404.37   -40820.652    4072.4534   -44893.106    552.42712   0.96124349 
   49200     294.6218    -1110.032    143263.75   -40887.715    4045.9209   -44933.636    552.88427     0.962187 
   49300    295.57822   -912.06465    143064.31   -40848.855    4059.0551    -44907.91    553.66867   0.96352831 
   49400    294.24323   -1052.4814    143016.88   -40815.717    4040.7222   -44856.439    554.85463   0.96384789 
   49500    291.24367   -910.06632    142775.48   -40804.268    3999.5304   -44803.798    555.75261    0.9654775 
   49600    297.03954   -867.48617    142603.07   -40755.506    4079.1228   -44834.629    556.82406   0.96664478 
   49700     301.5959   -826.06395    143160.27   -40715.629    4141.6935   -44857.322    558.97565   0.96288246 
   49800    298.17608   -907.30366    143069.88    -40682.29    4094.7305   -44777.021    559.59354   0.96349084 
   49900    296.52942   -860.42132    143214.45   -40793.875    4072.1175   -44865.993    560.94596    0.9625182 
   50000    293.30522   -1023.4255    143121.85   -40837.569    4027.8409   -44865.409    561.45782   0.96314094 
   50100      294.573   -934.91082    142761.64   -40872.458    4045.2507   -44917.709    562.21048   0.96557114 
   50200    294.28437    -1056.841    142574.58   -40843.141    4041.2872   -44884.428    562.45063   0.96683794 
   50300    298.27295   -1501.7112     142496.5   -40808.227    4096.0607   -44904.288    563.37471   0.96736771 
   50400    296.71099   -1153.2393    142495.11   -40848.469    4074.6109    -44923.08    564.61663   0.96737719 
   50500    293.68719   -941.41613    142729.72    -40838.58    4033.0863   -44871.666    567.17542   0.96578707 
   50600    295.04162   -995.03251    142712.76   -40877.397    4051.6861   -44929.083    568.59418   0.96590186 
   50700    301.14336   -851.37088    142652.77   -40748.422    4135.4788   -44883.901    570.22888   0.96630803 
   50800    297.88301   -1084.2172    143163.35    -40699.36    4090.7058   -44790.066     573.3812    0.9628618 
   50900     296.7308   -1230.4821    142957.93   -40760.217    4074.8829     -44835.1    574.33048    0.9642453 
   51000       297.18   -715.82742    142893.52   -40818.062    4081.0516   -44899.114    576.18057   0.96467999 
   51100    298.08908    -952.4757    142964.03   -40784.884    4093.5356    -44878.42    576.81517   0.96420421 
   51200    299.23437   -1021.1141    142725.14   -40674.547    4109.2635    -44783.81    577.20789   0.96581808 
   51300    301.03488   -853.08379    142983.69   -40644.011    4133.9891       -44778    578.53659    0.9640716 
   51400    298.93699   -1238.6611    142695.63   -40814.142    4105.1797   -44919.322    578.81642    0.9660178 
   51500    290.28671   -994.85668    142652.38   -40889.549     3986.389   -44875.938    580.10334   0.96631066 
   51600    300.07166    -1007.248     142391.9   -40851.678    4120.7617    -44972.44      581.159   0.96807836 
   51700    296.94648   -849.86342    142718.82   -40776.822    4077.8448   -44854.667    582.90982   0.96586081 
   51800    293.45222   -1240.5547    142642.71   -40855.892    4029.8596   -44885.751    583.28913   0.96637616 
   51900    290.85762   -1036.8082    142802.53   -40899.219    3994.2289   -44893.448    585.58875   0.96529465 
   52000    291.35534   -896.03221    142608.14    -40844.16     4001.064   -44845.224    585.91111   0.96661042 
   52100    305.61899   -975.87428     142792.9    -40850.25    4196.9408   -45047.191    587.80898   0.96535977 
   52200    299.14751    -1043.193    142706.93   -40865.559    4108.0707   -44973.629      588.603   0.96594132 
   52300    294.93538   -1098.1539    142527.84   -40830.587    4050.2272   -44880.814    588.51077     0.967155 
   52400      296.245    -1286.692    142672.74   -40733.956    4068.2116   -44802.167    590.09559    0.9661728 
   52500      299.061   -896.59705    142519.11   -40710.389    4106.8826   -44817.272    590.59149   0.96721425 
   52600    296.62301   -1127.1473    142376.68   -40826.437    4073.4028    -44899.84    591.40065   0.96818187 
   52700    298.77276   -968.74184    142823.24   -40813.269    4102.9244   -44916.193    594.50883   0.96515465 
   52800    295.35835   -1043.0382    143387.07   -40822.851    4056.0357   -44878.887    597.79233   0.96135944 
   52900    292.68694   -1177.9941     143358.3   -40891.662    4019.3503   -44911.012    599.70273   0.96155243 
   53000    286.30794   -1072.7084    143450.41    -40957.46    3931.7501    -44889.21    601.06022     0.960935 
   53100     294.2329   -729.57554    143488.64   -40955.863    4040.5803   -44996.444    602.66192   0.96067899 
   53200    296.44454   -986.97085    143664.26   -40797.613    4070.9519   -44868.565    604.24917   0.95950462 
   53300    298.61087   -887.13421    143425.44   -40835.068    4100.7012   -44935.769    603.78615    0.9611023 
   53400    299.99633   -924.64424    143275.57   -40712.238    4119.7271   -44831.965    604.76297    0.9621076 
   53500    296.05492   -885.94984    143285.21    -40712.46    4065.6014   -44778.062    605.91618   0.96204289 
   53600    303.13633   -1040.2794    143461.61   -40702.342    4162.8476    -44865.19    607.76725   0.96085994 
   53700    296.64587   -943.17403    143035.45   -40750.762    4073.7167   -44824.479    607.01036   0.96372276 
   53800    293.12973   -917.07029    143232.81   -40832.516    4025.4309   -44857.947    608.02467   0.96239483 
   53900    295.26909   -868.29052     143077.5   -40840.594    4054.8099   -44895.404    609.46728    0.9634395 
   54000    298.90952   -1006.7218    143127.04   -40783.281    4104.8025   -44888.084    610.63343   0.96310604 
   54100    297.02938   -971.01948    143097.23   -40758.311    4078.9833   -44837.294    611.64357   0.96330664 
   54200    293.38541   -1375.6143    143000.72   -40771.083     4028.942   -44800.025    612.06244    0.9639568 
   54300    302.52017   -885.20088    142872.81   -40699.701     4154.386   -44854.087    613.93593    0.9648198 
   54400    298.66391   -882.60801     142785.7   -40801.931    4101.4296   -44903.361    615.56613   0.96540841 
   54500    294.30002   -1005.6631     142969.5   -40768.249    4041.5021   -44809.751    618.29966   0.96416731 
   54600    292.16759   -1112.9952    142965.43   -40751.367    4012.2183   -44763.585     619.9032   0.96419472 
   54700    302.43613   -904.69815    143063.63   -40797.193     4153.232   -44950.425    622.51302   0.96353293 
   54800     300.0442    -1091.332     142792.9   -40775.472    4120.3846   -44895.857    622.37872   0.96535973 
   54900      302.848   -850.43781    142988.75   -40702.115     4158.888   -44861.003    624.89259   0.96403751 
   55000    300.31569   -1033.1677    143239.82   -40645.484    4124.1127   -44769.596    626.88644   0.96234775 
   55100    300.55629   -1163.3885    142831.92   -40661.475    4127.4169   -44788.892    627.75266   0.96509604 
   55200    296.46005   -1107.6063    142571.06   -40691.398    4071.1649   -44762.563    627.85463   0.96686184 
   55300    298.46201   -961.02714    142478.07   -40654.751     4098.657   -44753.408    628.75069    0.9674929 
   55400    301.58568    -1290.251    142366.24   -40630.447    4141.5531       -44772    629.90171   0.96825285 
   55500    303.06126    -955.5972     142000.2   -40669.097    4161.8167   -44830.913    629.31448   0.97074874 
   55600    304.70467   -786.84312    142811.22   -40613.585    4184.3848    -44797.97    632.33683   0.96523592 
   55700     297.2984   -922.37118    143206.64   -40657.082    4082.6776    -44739.76    634.27903   0.96257073 
   55800     299.2561   -1167.6222    142852.05   -40770.378    4109.5619   -44879.939    634.08057   0.96495999 
   55900    290.81646   -877.09359    142731.15   -40876.007    3993.6638   -44869.671    634.58225   0.96577739 
   56000    291.10491   -1166.4226    142571.97   -40923.988     3997.625   -44921.613    634.53571   0.96685569 
   56100    297.75138   -1163.9312    142662.11   -40857.579    4088.8982   -44946.477    637.71908   0.96624474 
   56200    295.20699   -648.33811    142800.03   -40855.946    4053.9572   -44909.903    639.47083   0.96531152 
   56300    299.44237   -1146.4389    143043.03   -40769.274    4112.1198   -44881.393    641.63508   0.96367166 
   56400    299.74115   -872.55305    142974.47   -40649.578    4116.2229   -44765.801    642.61953   0.96413375 
   56500    295.94858   -612.51883    143130.02   -40704.758    4064.1411     -44768.9     643.3278   0.96308601 
   56600    297.38349   -944.79965    143393.86   -40602.708     4083.846   -44686.554    645.29115   0.96131396 
   56700    304.50508   -1056.5391     143521.5   -40611.849     4181.644   -44793.493    646.58235   0.96045899 
   56800    302.80514   -994.14668    143259.87   -40603.225    4158.2994   -44761.525    647.01522   0.96221305 
   56900    293.95523   -985.00626    143112.85   -40695.881    4036.7673   -44732.648     647.8231   0.96320153 
   57000    301.22148   -992.62654    142785.35    -40758.88    4136.5516   -44895.432    648.57826    0.9654108 
   57100    294.46554   -1238.5234    142888.67   -40836.652    4043.7751   -44880.428    649.82187   0.96471268 
   57200    292.74578   -1283.2647    142707.82   -40954.103    4020.1583   -44974.261    649.59284   0.96593528 
   57300    295.83842   -1114.0363    142653.76   -40919.054    4062.6283   -44981.682    650.37808   0.96630134 
   57400    294.25686   -1209.4244    142909.32   -40932.204    4040.9094   -44973.114    651.97802   0.96457331 
   57500    292.44265   -883.76876    142949.89   -40862.772    4015.9955   -44878.767    653.87493   0.96429957 
   57600    297.75455   -876.83408    142936.14   -40904.561    4088.9418   -44993.503     654.9819   0.96439233 
   57700    294.45107   -965.93757    142350.75   -40943.991    4043.5764   -44987.568    653.74393   0.96835818 
   57800    300.92026   -963.94331    142503.89   -40817.064    4132.4151   -44949.479    655.29419   0.96731756 
   57900    291.29676    -1181.521    142638.75    -40890.55    4000.2595    -44890.81    657.17319     0.966403 
   58000    305.06972   -1288.0755       142645   -40883.583     4189.398   -45072.981    658.36507   0.96636069 
   58100    297.47468   -790.84854    142742.45   -40776.457    4085.0984   -44861.556    660.13079   0.96570092 
   58200    299.42972   -901.02701    142871.49   -40889.662    4111.9462   -45001.608    661.05979   0.96482874 
   58300    296.66585   -898.39729    142944.43   -40946.854    4073.9911   -45020.845    661.03983   0.96433637 
   58400    292.80493   -861.06687    142930.21   -40882.726    4020.9706   -44903.697    662.43435   0.96443232 
   58500    303.47081   -943.49546    143065.54   -40772.389    4167.4407   -44939.829    663.80668   0.96352008 
   58600    300.33156   -896.06927    143224.61   -40835.494    4124.3308   -44959.824    666.12508   0.96244991 
   58700    298.16553   -1020.8912    143285.64   -40784.242    4094.5855   -44878.828    666.91956   0.96204003 
   58800    291.83779   -930.41723    143507.31   -40765.054    4007.6893   -44772.744    669.67035   0.96055397 
   58900     302.2022   -1104.1334    143555.49   -40690.868    4150.0195   -44840.887    671.28022   0.96023162 
   59000     292.3063    -1085.911    143206.19   -40771.646    4014.1231   -44785.769    671.06451   0.96257376 
   59100    299.91465   -1177.2107    142915.65   -40731.343    4118.6055   -44849.948    670.57295   0.96453059 
   59200    295.88914    -1222.129    142841.45   -40794.233    4063.3248   -44857.557     671.3721   0.96503162 
   59300    296.10913     -1133.99    142632.77   -40793.918    4066.3459   -44860.264    672.71003   0.96644354 
   59400    298.34535   -793.17681    142676.52     -40757.8     4097.055   -44854.855    673.91498    0.9661472 
   59500    300.94475   -1100.3651    142841.33   -40753.621    4132.7515   -44886.372    675.30396   0.96503244 
   59600    302.00576   -1022.7231    142616.66   -40650.903    4147.3218   -44798.225    675.17657   0.96655269 
   59700    303.65596   -1146.6865    142897.89   -40724.812    4169.9834   -44894.796     676.6874   0.96465047 
   59800    295.39794   -839.31065    143248.82   -40705.933    4056.5794   -44762.513    678.54707   0.96228729 
   59900    296.85764   -1153.8246    143188.23   -40777.967    4076.6248   -44854.592    679.18855   0.96269449 
   60000    302.32239    -1031.249     143261.1   -40735.553    4151.6701   -44887.223    679.77584   0.96220478 
   60100    295.88548     -1047.34    143222.49   -40724.266    4063.2745   -44787.541     680.9191   0.96246419 
   60200    294.70084   -908.04839    143211.07   -40851.671    4047.0063   -44898.677    681.33366   0.96254091 
   60300    297.93136   -1200.1138    143035.18   -40786.377    4091.3698   -44877.747    681.68517   0.96372455 
   60400    296.94416   -794.36997    143002.49   -40777.206    4077.8129   -44855.019     681.7504   0.96394488 
   60500    294.54456   -799.17251    143245.71   -40879.396    4044.8603   -44924.256    683.30988   0.96230814 
   60600    299.16106   -1110.4411    143170.08   -40831.041    4108.2567   -44939.298    684.05354    0.9628165 
   60700    300.75871   -1114.3648    142918.63   -40860.125    4130.1966   -44990.322     685.4413   0.96451051 
   60800    299.93392   -1162.1109    142705.14   -40833.894    4118.8701   -44952.764    686.16351    0.9659534 
   60900    300.44452   -881.31462    142879.83   -40769.334     4125.882   -44895.216    687.42389   0.96477243 
   61000     293.6939   -523.13075    143160.09   -40675.241    4033.1784    -44708.42    690.48867   0.96288366 
   61100    299.83356   -847.79102    142957.92   -40606.203    4117.4919   -44723.695    690.23168   0.96424543 
   61200    295.41925   -1448.2588    142492.52   -40672.721     4056.872   -44729.593    689.60036   0.96739479 
   61300     300.9106   -717.78591    142405.32   -40624.864    4132.2825   -44757.146     690.6813   0.96798711 
   61400    305.47814   -768.68579    142743.22    -40522.68    4195.0067   -44717.687    693.48648   0.96569573 
   61500    302.48421   -1249.9783    142775.19    -40541.93    4153.8922   -44695.823    693.33116   0.96547948 
   61600    298.42892   -640.97873    142948.44   -40615.698    4098.2026     -44713.9    694.68395   0.96430935 
   61700     296.5178   -1200.5486    142694.94    -40664.98    4071.9579   -44736.938    694.47776   0.96602247 
   61800    300.64896   -1004.6858    142418.64   -40711.452    4128.6895   -44840.141    696.55039   0.96789663 
   61900    303.76213   -1041.7201    142607.22    -40649.79    4171.4413   -44821.232    698.88881   0.96661667 
   62000    294.81412   -1065.5242    142520.48   -40731.503     4048.562   -44780.065    698.73061     0.967205 
   62100    301.56727   -870.55787    143010.96    -40725.52    4141.3003    -44866.82    701.57769   0.96388777 
   62200    298.37964   -1074.4122    142712.55   -40768.648    4097.5259   -44866.174     702.2924   0.96590329 
   62300    296.32105   -1120.9517    142400.07   -40774.848    4069.2561   -44844.104    702.37543   0.96802279 
   62400    291.24366   -696.36192     142662.9   -40797.813    3999.5303   -44797.344    704.40364   0.96623945 
   62500    295.23146   -937.78429       142639   -40741.264    4054.2931   -44795.557     705.4722   0.96640128 
   62600     301.0359   -1195.7441    142951.04   -40725.226    4134.0031   -44859.229    706.81177   0.96429178 
   62700    300.23168    -1085.641    142418.69   -40709.149    4122.9591   -44832.108    706.00487   0.96789623 
   62800    295.44409   -751.84233    142914.59   -40733.225    4057.2131   -44790.438    709.82511   0.96453775 
   62900    298.75372   -780.17215    143264.26   -40679.318    4102.6629   -44781.981    711.61045   0.96218354 
   63000    298.03421   -982.99018    143131.84   -40722.619    4092.7821   -44815.401    711.92264   0.96307372 
   63100    299.77849   -1227.0485    143064.25   -40711.081    4116.7356   -44827.816    713.17678   0.96352874 
   63200     293.0689   -969.77109    142715.87    -40714.58    4024.5955   -44739.176    713.85754   0.96588079 
   63300    295.89956   -891.60026    142552.24   -40843.567    4063.4679   -44907.035    715.20643   0.96698951 
   63400    292.21635   -1215.4567    142539.41   -40877.499    4012.8879   -44890.387    716.55701   0.96707652 
   63500    297.95481   -1055.4627    142764.96   -40726.565    4091.6919   -44818.256    718.76103    0.9655487 
   63600     298.7848   -928.45881    143039.61   -40702.169    4103.0897   -44805.259    720.70869   0.96369471 
   63700    289.67611   -727.62957    142976.68   -40756.177    3978.0038   -44734.181    721.15179   0.96411888 
   63800    298.42676    -920.0853    142925.31   -40807.289    4098.1729   -44905.462    721.80774   0.96446537 
   63900    298.24803   -1129.8386    142651.53   -40768.164    4095.7185   -44863.882    722.32944   0.96631641 
   64000    289.98549    -893.9381     142697.9   -40847.418    3982.2524   -44829.671    722.70105   0.96600244 
   64100    292.65246   -878.08666    142861.22   -40824.388    4018.8767   -44843.264    724.08785    0.9648981 
   64200    296.27389   -892.97581    142768.81   -40832.226    4068.6084   -44900.835    724.70393   0.96552262 
   64300    294.58465   -1207.9375    142955.19   -40860.587    4045.4108   -44905.998    726.96547   0.96426378 
   64400    293.65845   -795.43586    142894.28   -40880.333    4032.6917   -44913.024    728.30067   0.96467484 
   64500    291.40363   -959.41107    142978.11   -40904.524    4001.7271   -44906.251    729.86244   0.96410923 
   64600    287.08334    -1351.136    142851.26   -40815.334    3942.3984   -44757.732    730.89199   0.96496538 
   64700    296.78715   -961.04568     142718.1   -40741.956    4075.6568   -44817.612    732.25117   0.96586572 
   64800    299.01044    -1131.542     142798.5   -40642.321    4106.1883   -44748.509     732.8981   0.96532187 
   64900    298.68896   -758.14063    142977.42   -40650.198    4101.7735   -44751.972     734.9241   0.96411391 
   65000    299.01393   -1317.4858    142862.34   -40693.131    4106.2362   -44799.367    735.78019   0.96489049 
   65100    295.93368   -1185.0666    142815.09    -40774.67    4063.9365   -44838.607    736.65386   0.96520975 
   65200    295.77254   -782.61144    142934.21   -40709.544    4061.7236   -44771.267    737.27307   0.96440536 
   65300     297.4821   -1253.9136    142915.38   -40760.298    4085.2003   -44845.499    737.36681   0.96453239 
   65400    294.78746   -1072.1932    142305.24   -40845.577    4048.1959   -44893.773    735.71055   0.96866788 
   65500    300.64232   -869.98904    142372.15   -40745.537    4128.5983   -44874.135    737.84381   0.96821268 
   65600    297.56572   -735.70866    142569.29   -40668.113    4086.3486   -44754.462    739.06625   0.96687382 
   65700    302.57421   -1103.8268    142542.38   -40666.004    4155.1282   -44821.132    740.24975   0.96705638 
   65800    296.54737   -904.61846    142762.99   -40746.296     4072.364    -44818.66    741.50203   0.96556201 
   65900    296.67006   -1194.6118    143383.32   -40698.101    4074.0488    -44772.15    744.58486   0.96138462 
   66000    295.13149   -1107.3052    143228.97   -40754.684    4052.9203   -44807.605    744.97195   0.96242065 
   66100    295.36234   -990.92927    142999.97    -40739.51    4056.0905   -44795.601    744.53777   0.96396189 
   66200    302.17299   -937.79934    142894.31   -40658.954    4149.6183   -44808.573    745.33757   0.96467465 
[...]
   84600    294.45621   -1287.9538    143041.13     -40779.7     4043.647   -44823.347    976.95189   0.96368447 
   84700    295.11507   -1062.3256    143028.37   -40870.081    4052.6949   -44922.776    978.25569   0.96377042 
   84800    294.58268    -948.1111    143005.25   -40808.355    4045.3837   -44853.739    978.62461   0.96392626 
   84900     293.2285   -962.86813    143001.45   -40776.384    4026.7873   -44803.172    980.41965   0.96395186 
   85000    293.29105   -909.07594    142838.76   -40789.189    4027.6463   -44816.835    981.10948   0.96504983 
   85100    294.47975   -1030.4051     142969.6   -40758.695    4043.9702   -44802.665    982.76218   0.96416659 
   85200    298.82214   -1068.5663     143196.7   -40744.779    4103.6025   -44848.381    984.76642   0.96263755 
   85300    294.64874   -872.56085    143201.75    -40752.09    4046.2909   -44798.381     985.4571   0.96260359 
   85400    295.11609   -911.05587    142955.15   -40719.561    4052.7089    -44772.27    985.21761    0.9642641 
   85500    297.96068   -899.40367    143032.98   -40728.028    4091.7724     -44819.8    986.88929    0.9637394 
   85600    295.23396   -1007.4497    142678.14   -40716.533    4054.3275    -44770.86    986.02502   0.96613623 
   85700    295.34488   -989.15567    142634.81   -40755.229    4055.8507    -44811.08    987.90072   0.96642968 
   85800    294.21681   -878.28564    142556.76   -40744.716    4040.3594   -44785.076    989.57527   0.96695884 
   85900    294.73704   -1005.8465    142490.46   -40739.082    4047.5035   -44786.586    990.09331   0.96740876 
   86000    291.00893   -1016.3245    142295.48   -40741.082    3996.3069   -44737.389    990.69119   0.96873433 
   86100    297.07801   -946.86927    142124.37   -40758.051     4079.651   -44837.702    991.92594   0.96990065 
   86200    296.43619   -837.34956    142126.61   -40736.695    4070.8372   -44807.533    991.62425   0.96988532 
   86300    297.43804   -977.00457    142574.54   -40742.991    4084.5952   -44827.586    995.43341    0.9668382 
   86400     296.9727   -1081.1178    142834.55   -40680.621    4078.2049   -44758.826    997.82801   0.96507824 
   86500     300.8664   -817.22828    142954.23   -40649.885    4131.6754    -44781.56    998.41295   0.96427032 
   86600    298.76176   -961.29372    143280.71    -40695.19    4102.7733   -44797.963    1001.1055   0.96207311 
   86700    300.64022   -1174.1669    143179.35    -40730.35    4128.5694    -44858.92    1002.4757   0.96275418 
   86800    298.16088   -1089.4745    143086.12   -40722.024    4094.5217   -44816.546    1003.8621   0.96338145 
   86900    296.82636   -1237.8805    142617.63   -40742.915    4076.1952   -44819.111      1002.03   0.96654614 
   87000    294.23168   -985.79536    142857.44   -40790.261    4040.5635   -44830.825    1003.8039   0.96492364 
   87100    298.02971   -980.07173     142916.7   -40779.215    4092.7203   -44871.935    1005.6423    0.9645235 
   87200     292.8997   -839.80363    142823.29     -40771.8    4022.2721   -44794.072    1006.2876   0.96515435 
   87300    301.86885   -1129.9571    142852.57   -40640.524    4145.4418   -44785.966    1007.9939   0.96495654 
   87400    298.54914   -1093.3751    142849.08   -40734.129    4099.8535   -44833.983    1008.9176   0.96498011 
   87500    295.12668   -1155.6385    142832.65   -40763.146    4052.8542       -44816    1010.8544   0.96509105 
   87600    296.95571   -864.79128    142648.67   -40779.368    4077.9716   -44857.339    1011.0249    0.9663358 
   87700       299.55   -866.60177     142789.1   -40750.873    4113.5978   -44864.471    1011.9721   0.96538543 
   87800    301.95086   -1221.0577     142942.3   -40630.354     4146.568   -44776.922    1014.8711   0.96435074 
   87900    298.97717   -1091.8959     142883.2    -40616.82    4105.7314   -44722.552    1015.7414   0.96474962 
   88000    298.41821   -1207.4745    142418.26   -40622.454    4098.0555   -44720.509    1015.5064   0.96789919 
   88100    301.98364   -887.98643    142362.27   -40672.344    4147.0181   -44819.362    1016.2454   0.96827982 
   88200    302.28063   -946.43192    142667.94   -40607.822    4151.0966   -44758.919    1018.8959   0.96620526 
   88300    303.71378   -1040.8282    142527.87   -40656.005    4170.7773   -44826.782     1019.668   0.96715482 
   88400    291.66772   -1006.8073    142520.76   -40758.419    4005.3538   -44763.773     1019.864   0.96720308 
   88500    301.44711   -886.98046    142578.77   -40790.231    4139.6501   -44929.881    1021.3942   0.96680956 
   88600    297.25509   -1208.2162    142796.01   -40744.447    4082.0828    -44826.53    1023.1948   0.96533869 
   88700    299.96364   -1067.2849    142885.55   -40789.108    4119.2783   -44908.386    1025.3597   0.96473375 
   88800    300.31836   -869.69124    143053.19   -40789.521    4124.1494   -44913.671    1027.5521   0.96360322 
   88900    296.50066   -965.25425    143428.67   -40835.009    4071.7226   -44906.731    1031.1525   0.96108062 
   89000    298.47221   -764.49224    143388.49   -40782.967     4098.797   -44881.764    1031.7576   0.96134992 
   89100    305.59213   -1024.4098    143472.52   -40769.607     4196.572   -44966.179    1033.7051    0.9607869 
   89200    296.20893   -759.23349       143836   -40883.847    4067.7163   -44951.563    1036.5738   0.95835895 
   89300    293.99982   -884.99257    143749.87    -40877.99    4037.3796    -44915.37    1035.6312   0.95893319 
   89400    300.32382   -1201.9091    143723.18   -40804.239    4124.2244   -44928.464    1035.9471   0.95911123 
   89500    292.31741    -1021.437    143613.81   -40890.357    4014.2756   -44904.633    1036.2032   0.95984165 
   89600    298.77421   -1151.9966    143180.79   -40810.707    4102.9444   -44913.652    1035.4525   0.96274449 
   89700    296.33101   -1287.3726    142746.05   -40816.745    4069.3929   -44886.137    1033.2881   0.96567658 
   89800    297.16809   -1153.1136    142564.88   -40816.333    4080.8881   -44897.221    1033.6885   0.96690377 
   89900    296.33035   -1165.2067    142564.18   -40861.921    4069.3837   -44931.305    1035.3416   0.96690849 
   90000     303.0032    -807.8214    142874.09   -40831.018    4161.0192   -44992.037     1038.573   0.96481118 
   90100    293.87542    -1002.414    142818.88   -40804.498    4035.6712   -44840.169    1039.7385   0.96518413 
   90200    292.31975   -1031.7583    142740.08   -40959.607    4014.3079   -44973.915    1040.3804   0.96571697 
   90300    293.54887   -641.85728    143095.83    -40959.05    4031.1868   -44990.236    1043.4436   0.96331608 
   90400    294.02027   -1123.6853    142994.72   -40844.102    4037.6603   -44881.763    1043.7651   0.96399722 
   90500      299.299    -739.7653     142975.2   -40772.842     4110.151   -44882.993    1044.9456   0.96412889 
   90600    298.65457   -1075.0655     143210.3   -40754.078    4101.3013   -44855.379    1046.2909    0.9625461 
   90700    297.28894   -864.62691    143067.66   -40726.279    4082.5477   -44808.827    1046.2429   0.96350579 
   90800    299.94592   -1010.0247       143071   -40669.234    4119.0349   -44788.269    1047.4108   0.96348326 
   90900    289.06366   -976.23192    143272.48   -40783.634    3969.5933   -44753.228    1048.7698   0.96212839 
   91000    294.54445    -1165.197    143276.13   -40702.508    4044.8587   -44747.367    1050.4559   0.96210387 
   91100    300.17157   -1205.0822    143142.26   -40689.576    4122.1336   -44811.709    1051.5046    0.9630036 
   91200    294.62316   -1002.1052    143334.41   -40727.756    4045.9396   -44773.696    1053.7361   0.96171267 
   91300    296.20333   -1163.2093    142923.93   -40741.064    4067.6394   -44808.704    1053.2863   0.96447468 
   91400    294.69693   -1065.9077    142909.81   -40762.751    4046.9527   -44809.704    1054.2342   0.96457002 
   91500    295.68998   -965.66749    143305.72   -40748.374    4060.5899   -44808.964    1057.8841   0.96190518 
   91600    299.54291   -850.97891    143201.73   -40738.726    4113.5006   -44852.227    1059.4019   0.96260372 
   91700    292.99523   -1002.5062    143090.77   -40815.915    4023.5839   -44839.499    1059.4694   0.96335016 
   91800     292.9847   -921.62526    143102.21   -40902.869    4023.4393   -44926.308    1060.9017   0.96327314 
   91900    293.17679   -1115.3215    142953.29   -40830.845    4026.0773   -44856.922    1061.0622   0.96427666 
   92000    293.43676   -1002.1817    143057.36   -40710.794    4029.6473   -44740.441    1063.8525   0.96357515 
   92100    304.82999   -1071.8341    142863.65   -40668.318    4186.1059   -44854.424     1062.834   0.96488167 
   92200    304.39681   -959.82154    142975.33   -40651.575    4180.1572   -44831.732    1064.3465   0.96412797 
   92300    300.38465   -736.58456    142867.85    -40682.41    4125.0599    -44807.47    1064.1996   0.96485332 
   92400     296.7666   -1084.4888     142772.1   -40705.741    4075.3746   -44781.116    1063.9162   0.96550038 
   92500    299.53816   -910.72482    142787.75   -40650.241    4113.4353   -44763.676     1065.248   0.96539456 
   92600    300.50084   -833.92166    142879.26    -40649.08    4126.6553   -44775.736    1066.0433   0.96477623 
   92700    297.94169   -996.13661    143178.19   -40704.887    4091.5117   -44796.399    1067.7054   0.96276197 
   92800     302.7844   -1133.2285    143185.38   -40748.228    4158.0146   -44906.243    1069.0959   0.96271363 
   92900    296.44627   -813.80528    143209.54   -40719.451    4070.9756   -44790.427    1070.7014    0.9625512 
   93000    295.40903   -1016.2518    143334.18   -40696.647    4056.7317   -44753.379    1072.7184    0.9617142 
   93100    303.99153   -1276.9849    143049.14   -40712.072    4174.5916   -44886.664    1073.2052    0.9636305 
   93200    301.76323   -1116.8088    142752.25   -40672.079    4143.9913    -44816.07    1073.0074   0.96563466 
   93300    297.05046   -956.62512    142980.34   -40571.944    4079.2727   -44651.217     1076.893   0.96409417 
   93400    294.82566   -843.74113    142976.93   -40660.489    4048.7204   -44709.209     1077.651   0.96411721 
   93500    294.01366   -925.59716    143113.48   -40701.809    4037.5697   -44739.379    1079.2012   0.96319732 
   93600    294.62262   -1122.3514    142858.95   -40706.403    4045.9323   -44752.335    1078.6363   0.96491344 
   93700    301.10945   -1085.2616    142866.68   -40705.578    4135.0131   -44840.591    1079.0261   0.96486118 
   93800    302.23938   -1028.6365    143443.38   -40595.932    4150.5301   -44746.462    1083.8698   0.96098207 
   93900    298.93736   -1100.4621    143094.92   -40741.446    4105.1847   -44846.631    1083.5565   0.96332222 
   94000    290.29717   -1212.2009    142992.21   -40790.272    3986.5325   -44776.804    1082.7236   0.96401417 
   94100    299.67771   -1080.8615    142768.43   -40858.077    4115.3517   -44973.429    1082.7908   0.96552522 
   94200    290.30547   -1005.2791    142958.15     -40812.8    3986.6465   -44799.446    1084.3493   0.96424384 
   94300    293.12757   -1142.7206    142842.64   -40791.816    4025.4013   -44817.217    1084.5546   0.96502362 
   94400    299.25213   -982.03875    143034.33    -40789.11    4109.5073   -44898.617    1086.5694   0.96373026 
   94500    295.92711    -968.9472    142903.88    -40807.61    4063.8462   -44871.457    1086.5583   0.96461003 
   94600    294.26133   -993.50717    142501.53   -40928.228    4040.9707   -44969.198    1086.0169   0.96733357 
   94700    300.63132   -1043.9521    142854.86   -40816.553    4128.4472       -44945    1088.6394   0.96494105 
   94800    293.61764   -990.60528     142958.5   -40789.617    4032.1312   -44821.748    1090.3729   0.96424151 
   94900     296.1937     -1182.97     142890.3   -40785.737    4067.5072   -44853.245    1090.7199   0.96470168 
   95000    295.91778   -925.36586    142969.56   -40740.025     4063.718   -44803.743    1090.7443    0.9641669 
   95100    302.49673   -926.75167     143412.3   -40715.948    4154.0641   -44870.012    1094.9567   0.96119032 
   95200    300.63099    -993.5716    143726.03   -40754.274    4128.4426   -44882.717    1098.1594   0.95909222 
   95300    297.47627   -980.17692    143439.81   -40802.516    4085.1202   -44887.636    1097.1619     0.961006 
   95400    293.37944   -1150.5746    143283.66   -40794.317    4028.8601   -44823.177    1097.3208   0.96205327 
   95500    298.21378   -1023.3396    143160.82    -40808.77    4095.2481   -44904.018    1098.0512   0.96287878 
   95600    294.76532   -778.19948    143112.38     -40906.2    4047.8919   -44954.092    1098.0691   0.96320472 
   95700    297.89044   -1030.9952    143285.41   -40862.132    4090.8079    -44952.94    1099.5843   0.96204157 
   95800    296.60997   -1227.5276    143192.45   -40826.909    4073.2237   -44900.133    1099.8516   0.96266613 
   95900    292.77329   -844.01436    143052.16   -40781.367    4020.5361   -44801.903    1100.0244   0.96361016 
   96000    295.50511    -1001.608    142970.11   -40725.368    4058.0511   -44783.419    1100.5251   0.96416317 
   96100    295.87114   -1302.9845     142857.2   -40688.417    4063.0776   -44751.495    1100.0855   0.96492521 
   96200    297.54454   -1285.4484    142799.79   -40694.488    4086.0578   -44780.546     1099.543   0.96531317 
   96300     296.7475   -819.01297    142950.76   -40653.528    4075.1123   -44728.641    1100.4146   0.96429368 
   96400    299.90501   -1167.9232    142896.12   -40744.609    4118.4731   -44863.083    1102.5603   0.96466243 
   96500     297.8216   -1107.9764    142981.57   -40718.424    4089.8625   -44808.286    1103.1628   0.96408588 
   96600    300.96195    -924.8692    142802.27   -40659.752    4132.9876    -44792.74     1103.889   0.96529637 
   96700    307.67323   -834.17304    142961.29   -40624.298    4225.1509   -44849.448     1105.876    0.9642227 
   96800     305.1613   -927.35206    142841.64   -40637.114    4190.6557   -44827.769    1105.9384   0.96503037 
   96900    298.77865   -834.06283    142750.44   -40684.679    4103.0053   -44787.685    1107.2341    0.9656469 
   97000    301.47172   -940.51256    143013.92   -40685.996    4139.9881   -44825.984    1110.5408   0.96386784 
   97100    298.58776   -1118.6284    143165.02   -40705.678    4100.3839   -44806.062    1112.5513   0.96285054 
   97200    298.01234   -1056.9289    143279.37   -40716.693    4092.4818   -44809.175    1113.9719   0.96208212 
   97300    302.00859   -1234.8182    142870.81   -40756.446    4147.3607   -44903.807    1112.7491   0.96483334 
   97400    296.75374   -762.08116    142860.37   -40726.846     4075.198   -44802.044    1113.1859   0.96490385 
   97500    295.96087   -1026.9161    142872.55   -40783.222    4064.3099   -44847.532    1114.4364   0.96482159 
   97600    299.50838   -1110.9309    142459.38   -40773.102    4113.0263   -44886.129    1113.9918   0.96761979 
   97700     296.9615   -1053.9638    142682.25    -40820.67    4078.0512   -44898.722    1117.0485   0.96610836 
   97800    295.00262   -963.68669    142951.59   -40780.013    4051.1505   -44831.164    1120.0887   0.96428808 
   97900    299.34218    -1024.133    142590.14    -40736.24     4110.744   -44846.984     1119.519   0.96673248 
   98000    298.13015   -820.98051     143210.1   -40667.167    4094.0997   -44761.266    1123.3414   0.96254746 
   98100    298.89455   -1002.7197    143123.05   -40748.544    4104.5969   -44853.141    1125.5223   0.96313288 
   98200    298.32866   -1163.8926     143137.9   -40701.898    4096.8257   -44798.724    1125.4911   0.96303297 
   98300    304.97263   -786.76924    143136.77   -40644.792    4188.0646   -44832.856    1127.3686   0.96304055 
   98400    296.58498   -1193.5344    143255.75   -40693.737    4072.8804   -44766.617    1128.9412   0.96224074 
   98500    301.81782   -986.07517    142974.42   -40709.096     4144.741   -44853.837     1127.786   0.96413411 
   98600    293.43253   -829.86526    143078.37   -40751.833    4029.5892   -44781.422    1129.9036   0.96343362 
   98700    297.02853   -1122.6159    143167.68   -40744.927    4078.9715   -44823.899    1131.9042   0.96283262 
   98800    293.63403   -988.26625    143186.78   -40726.735    4032.3563   -44759.092    1132.6328   0.96270419 
   98900    297.12973   -1144.6973    142834.47   -40719.843    4080.3614   -44800.205    1132.0305   0.96507877 
   99000    298.91171   -973.89081    142714.29   -40596.563    4104.8325   -44701.395    1132.4455   0.96589151 
   99100    295.10225   -1087.3628    142999.21   -40647.614    4052.5188   -44700.133      1134.55   0.96396695 
   99200    294.74429   -1049.7171    143034.63   -40694.552     4047.603   -44742.155     1136.568    0.9637283 
   99300    302.91968    -930.6575    142926.43   -40711.257    4159.8723   -44871.129    1136.7911   0.96445784 
   99400    298.14702   -824.01972    142655.02   -40645.389    4094.3314    -44739.72    1137.0144   0.96629277 
   99500    302.97798   -1011.6946    142814.25   -40710.775    4160.6729   -44871.448    1139.1592   0.96521539 
   99600    296.58789   -1068.1133    143135.71   -40775.257    4072.9205   -44848.178    1141.3742   0.96304768 
   99700    298.49656   -1126.9897    142868.66   -40732.263    4099.1314   -44831.394    1140.6549   0.96484784 
   99800    296.29502   -1003.9979    142824.55   -40750.111    4068.8986   -44819.009    1141.6527   0.96514584 
   99900    300.44381     -962.263    142630.55   -40722.301    4125.8722   -44848.173     1142.755   0.96645854 
  100000    295.42912   -700.05488    142566.42   -40724.735    4057.0075   -44781.743    1143.4228   0.96689332 
  100100    294.87658   -1001.5329    142755.43   -40771.836    4049.4197   -44821.256    1145.2209    0.9656131 
  100200    303.72311   -965.56639    142764.54     -40742.5    4170.9056   -44913.405     1146.163   0.96555154 
  100300    294.80703   -666.16234    143031.34   -40750.329    4048.4646   -44798.794    1147.9699   0.96375042 
  100400    295.37018   -1184.8146     143080.2     -40760.9    4056.1981   -44817.098    1149.9871   0.96342136 
  100500    297.89007   -1288.4961    142754.86   -40771.578    4090.8028   -44862.381    1148.7633   0.96561696 
  100600    296.39601   -750.70233     142847.8    -40829.01    4070.2854   -44899.295    1149.4356   0.96498875 
  100668    298.02419   -1167.6136    143074.72   -40752.423    4092.6446   -44845.068    1150.6699   0.96345823 
Loop time of 113.492 on 6 procs for 100000 steps with 4608 atoms

Performance: 380.643 ns/day, 0.063 hours/ns, 881.119 timesteps/s
98.9% CPU use with 6 MPI tasks x no OpenMP threads

MPI task timing breakdown:
Section |  min time  |  avg time  |  max time  |%varavg| %total
---------------------------------------------------------------
Pair    | 93.704     | 94.929     | 96.513     |  10.0 | 83.64
Neigh   | 7.1222     | 7.1801     | 7.2586     |   1.9 |  6.33
Comm    | 6.931      | 8.5388     | 9.6747     |  33.8 |  7.52
Output  | 0.17848    | 0.17965    | 0.18501    |   0.6 |  0.16
Modify  | 1.8879     | 1.9715     | 2.0431     |   3.3 |  1.74
Other   |            | 0.6928     |            |       |  0.61

Nlocal:        768.000 ave         796 max         754 min
Histogram: 1 2 1 0 0 1 0 0 0 1
Nghost:        1554.33 ave        1577 max        1530 min
Histogram: 1 0 1 0 0 2 0 1 0 1
Neighs:        0.00000 ave           0 max           0 min
Histogram: 6 0 0 0 0 0 0 0 0 0
FullNghs:      21504.0 ave       22521 max       20871 min
Histogram: 1 1 1 1 0 1 0 0 0 1

Total # of neighbors = 129024
Ave neighs/atom = 28.000000
Neighbor list builds = 7157
Dangerous builds = 0

undump              1
unfix               2
unfix               3
unfix               4


################################################
#######         Run Simulation         #########
################################################

reset_timestep      0
log                 log.run_${NAME}
log                 log.run_liq_298K_-1000atm_ML
