

read_data data.ice_${TEMP}K_${PRES}atm_ML group ice
read_data data.ice_298K_${PRES}atm_ML group ice
read_data data.ice_298K_-1000atm_ML group ice
Reading data file ...
  orthogonal box = (-0.10376895 -0.092239071 -0.092239071) to (57.374279 50.999359 50.999359)
  3 by 1 by 2 MPI processor grid
  reading atoms ...
  4608 atoms
  reading velocities ...
  4608 velocities
  read_data CPU = 0.033 seconds
read_data data.liq_${TEMP}K_${PRES}atm_ML add append shift ${X_HI} ${YZ_LO} ${YZ_LO} group water
read_data data.liq_298K_${PRES}atm_ML add append shift ${X_HI} ${YZ_LO} ${YZ_LO} group water
read_data data.liq_298K_-1000atm_ML add append shift ${X_HI} ${YZ_LO} ${YZ_LO} group water
read_data data.liq_298K_-1000atm_ML add append shift 50.9993590706093 ${YZ_LO} ${YZ_LO} group water
read_data data.liq_298K_-1000atm_ML add append shift 50.9993590706093 0.0922390706114733 ${YZ_LO} group water
read_data data.liq_298K_-1000atm_ML add append shift 50.9993590706093 0.0922390706114733 0.0922390706114733 group water
Reading data file ...
  orthogonal box = (-0.10376895 -0.22297257 -0.22297257) to (104.51106 51.314571 51.314571)
  3 by 1 by 2 MPI processor grid
  reading atoms ...
  4608 atoms
  reading velocities ...
  4608 velocities
  read_data CPU = 0.030 seconds

write_data data.icewater_test
System init for write_data ...
WARNING: Communication cutoff is 0.0. No ghost atoms will be generated. Atoms may get lost. (../comm_brick.cpp:167)

# Define potential
#
pair_style sw
pair_coeff * * /data/emrosky-sim/Freezing_Simulations/Melting/MLmW_fancy/ML_mW.sw mW
Reading sw potential file /data/emrosky-sim/Freezing_Simulations/Melting/MLmW_fancy/ML_mW.sw with DATE: 2019-02-27

# Delete water and ice atoms that are overlapping
#
delete_atoms overlap 2.5 water ice
System init for delete_atoms ...
Neighbor list info ...
  update every 1 steps, delay 10 steps, check yes
  max neighbors/atom: 2000, page size: 100000
  master list distance cutoff = 6.0032907
  ghost atom cutoff = 6.0032907
  binsize = 3.0016454, bins = 35 18 18
  2 neighbor lists, perpetual/occasional/extra = 1 1 0
  (1) command delete_atoms, occasional, copy from (2)
      attributes: full, newton on
      pair build: copy
      stencil: none
      bin: none
  (2) pair sw, perpetual
      attributes: full, newton on
      pair build: full/bin/atomonly
      stencil: full/bin/3d
      bin: standard
Deleted 684 atoms, new total = 8532

# set timestep
#
timestep 10.0

# Define output
#
compute 1 all msd
thermo 50
thermo_style custom step temp press vol etotal ke pe c_1[4]

# Neighbor lists
#
neigh_modify delay 0 every 1 check yes

# Set fixes
#
fix 1 all momentum 10 linear 1 1 1 rescale
fix 2 all nph iso ${PRES} ${PRES} ${PCOUPL}
fix 2 all nph iso -1000 ${PRES} ${PCOUPL}
fix 2 all nph iso -1000 -1000 ${PCOUPL}
fix 2 all nph iso -1000 -1000 10000.0
fix 3 all temp/csvr ${TEMP} ${TEMP} ${TCOUPL} 837492
fix 3 all temp/csvr 298 ${TEMP} ${TCOUPL} 837492
fix 3 all temp/csvr 298 298 ${TCOUPL} 837492
fix 3 all temp/csvr 298 298 5000.0 837492


# Fix ice atoms in place
#
velocity ice set 0.0 0.0 0.0
fix 4 ice setforce 0.0 0.0 0.0

# Run 1.0 ns equilibration of water
#
dump 1 all atom 1000 eq.all.${NAME}.dump
dump 1 all atom 1000 eq.all.coexist_298K_-1000atm_ML.dump
run 100000
Neighbor list info ...
  update every 1 steps, delay 0 steps, check yes
  max neighbors/atom: 2000, page size: 100000
  master list distance cutoff = 6.0032907
  ghost atom cutoff = 6.0032907
  binsize = 3.0016454, bins = 35 18 18
  1 neighbor lists, perpetual/occasional/extra = 1 0 0
  (1) pair sw, perpetual
      attributes: full, newton on
      pair build: full/bin/atomonly
      stencil: full/bin/3d
      bin: standard
Per MPI rank memory allocation (min/avg/max) = 4.591 | 4.599 | 4.605 Mbytes
Step Temp Press Volume TotEng KinEng PotEng c_1[4] 
       0      135.915   -2145.7926    277869.36   -83122.919     3456.222   -86579.141            0 
      50    161.99304   -1519.2257    275877.85   -82797.523    4119.3681   -86916.891   0.93455915 
     100    168.92536   -897.87462    272610.63   -82534.927    4295.6522   -86830.579     1.964282 
     150    175.02587   -407.74574    271160.48   -82215.954    4450.7836   -86666.737    3.0806208 
     200    179.62024   -664.52562    271750.46   -81900.562    4567.6154   -86468.177    4.0919134 
     250    186.52054   -1055.1838    273200.27   -81591.802    4743.0851   -86334.887    5.2332575 
     300    189.95532   -1205.2987     274228.3   -81277.217    4830.4291   -86107.646    6.4873611 
     350    197.62246   -1623.0303    274547.68   -80954.493    5025.3988   -85979.892    7.9007639 
     400    200.75908   -956.39581     274129.4    -80765.51    5105.1609   -85870.671    9.2695814 
     450    203.75826   -975.11804    273925.16   -80536.475     5181.428   -85717.903    10.977226 
     500     208.5562   -854.48693    273866.81   -80321.286    5303.4362   -85624.722    12.619605 
     550    210.13247   -909.90258    274177.86   -80125.104    5343.5195   -85468.624    14.264358 
     600    216.25908   -793.80333       274860   -79903.586    5499.3149   -85402.901    16.137793 
     650    217.49978   -1085.4711    275269.41   -79725.313     5530.865   -85256.178    17.978964 
     700    224.50707   -1031.9978    275128.39   -79493.655    5709.0555   -85202.711    19.884871 
     750    228.78548   -901.90124    274928.22   -79340.807    5817.8524   -85158.659    22.150223 
     800    227.64274   -848.89553    274996.25   -79163.051    5788.7933   -84951.845     24.41238 
     850    230.44035   -905.70575    275517.98   -79021.144    5859.9347   -84881.078    26.723652 
     900    236.57327    -1205.915     276131.3   -78860.866    6015.8903   -84876.757    29.403089 
     950    236.98572   -950.52639    276125.08   -78713.369    6026.3787   -84739.747     31.82669 
    1000    237.77373   -820.52513    276135.46   -78526.297    6046.4173   -84572.715    34.178043 
    1050     242.7752    -1086.843    276292.23   -78404.619    6173.6011    -84578.22    36.678599 
    1100    247.64234   -1037.4452    276504.35    -78240.37     6297.369   -84537.738    39.237107 
    1150    245.88786   -778.58649    276545.49   -78070.676    6252.7538    -84323.43    41.993534 
    1200    255.35783   -1005.5726    276689.43   -77985.957    6493.5685   -84479.525    44.732027 
    1250    251.81583   -721.53265    276883.93   -77865.819    6403.4978   -84269.317    47.242582 
    1300    250.36528   -1231.6952    277205.72    -77791.26    6366.6115   -84157.872    49.681611 
    1350    257.77869   -891.84694    277058.67   -77629.015    6555.1292   -84184.144    52.311624 
    1400    255.99266   -965.18931    277113.76   -77514.069    6509.7118   -84023.781    54.557415 
    1450    257.55467   -1030.8499    277166.83    -77389.04    6549.4325   -83938.472    57.143743 
    1500    262.46513   -887.24657    277268.27   -77353.122    6674.3021   -84027.424    59.923284 
    1550    264.55861   -828.68018    277362.04   -77233.835    6727.5377   -83961.373    63.009014 
    1600    266.18204   -977.85721    277516.43   -77151.228    6768.8203   -83920.049    65.768822 
    1650    267.20938   -827.13348    277562.53     -77088.6    6794.9448   -83883.545    68.739021 
    1700    267.93027   -1103.2452     277761.2   -77024.152    6813.2768   -83837.429    71.836553 
    1750    268.97429   -854.06551    278039.31   -76911.856    6839.8254   -83751.682    75.084853 
    1800    267.95632   -848.44403    278287.63    -76864.27    6813.9392    -83678.21    77.785019 
    1850    274.89736   -1264.1274    278284.12   -76762.972    6990.4449   -83753.417    80.130036 
    1900    276.04829    -967.3719    277781.36   -76708.487    7019.7121   -83728.199    83.692664 
    1950    274.32028   -641.45343    277369.89   -76642.033    6975.7701   -83617.803    87.120939 
    2000    281.93411    -1083.473    277787.31   -76537.295    7169.3845   -83706.679    90.895224 
    2050    277.32813   -1133.9244    278588.98   -76487.951    7052.2576   -83540.208    94.205744 
    2100    279.23745   -1196.8364    278978.23   -76433.414    7100.8103   -83534.224    97.083552 
    2150     282.0083   -928.93468       278622   -76339.964     7171.271   -83511.235    99.956851 
    2200     284.7612   -914.80439     278324.5   -76283.084    7241.2753   -83524.359    103.03346 
    2250    286.43581    -934.0809    278128.69   -76265.518    7283.8594   -83549.378    105.89205 
    2300    282.88345   -644.92712    278227.86   -76246.915    7193.5255    -83440.44    108.98571 
    2350    283.57031   -870.68186    279057.72   -76167.515    7210.9917   -83378.507    112.14289 
    2400    281.30394   -1330.9117    279843.18    -76159.97    7153.3597    -83313.33    115.45491 
    2450    286.76954    -1272.001    279561.63   -76187.975    7292.3459    -83480.32    118.85789 
    2500    282.01607   -953.48606    278820.37    -76198.12    7171.4686   -83369.588    121.38481 
    2550    289.36484   -774.40289    278320.36   -76114.188    7358.3426   -83472.531    123.98177 
    2600    284.13457   -685.68539    278283.01   -76121.284    7225.3406   -83346.625    126.80928 
    2650    286.72877   -1142.3728    278706.23   -76123.387    7291.3093   -83414.696    129.65266 
    2700     285.0986   -1203.6045    279124.22   -76066.302    7249.8551   -83316.157    132.73027 
    2750    286.09559   -1317.9158    279045.33   -76021.623    7275.2078    -83296.83    136.11445 
    2800    281.86771   -1054.7526    278675.07   -76047.478    7167.6959   -83215.174    139.08405 
    2850    290.11664   -964.87089    278376.68   -76013.996    7377.4602   -83391.456    141.72918 
    2900    286.76919   -601.64096    278409.81   -75973.554     7292.337   -83265.891    145.21839 
    2950    290.91931   -894.58198    279074.78   -75959.522    7397.8716   -83357.393    148.94028 
    3000    288.15343   -1096.2057    279735.67   -75944.344    7327.5372   -83271.881    152.18862 
    3050     288.5369   -963.02267    279587.98    -75918.08    7337.2887   -83255.369    155.03798 
    3100    289.07588   -1055.1079    279306.06   -75845.509    7350.9946   -83196.503    158.22607 
    3150    292.86092   -1200.3801    278997.74   -75804.985    7447.2454   -83252.231    161.27795 
    3200    292.56671   -850.80146    278518.63   -75772.091     7439.764   -83211.855    163.70324 
    3250    292.17786   -914.09503    278798.26    -75734.79    7429.8757   -83164.666    166.62677 
    3300    285.90168   -1082.2879    279347.35   -75733.977     7270.277   -83004.254    169.34936 
    3350    293.06436   -1137.5558    279542.93    -75759.94    7452.4186   -83212.358    172.77491 
    3400    295.19819   -911.69155    279233.88   -75777.835    7506.6805   -83284.515    176.17897 
    3450    289.87838   -930.40633    278811.42   -75840.696    7371.4015   -83212.098    179.15132 
    3500    294.56389    -928.4888    278662.37   -75841.573    7490.5508   -83332.124     182.3724 
    3550    288.96897   -953.63755    279055.07   -75817.578     7348.276   -83165.854    186.16977 
    3600     294.7376   -1076.6008     279580.5   -75789.746     7494.968   -83284.714    189.81093 
    3650    287.39112   -1237.5659    279714.98   -75761.951    7308.1524   -83070.103    192.20935 
    3700      291.236   -1116.3455    279286.77   -75711.685    7405.9249    -83117.61    194.46204 
    3750    293.48525   -754.94891    279025.64   -75609.191    7463.1217   -83072.313    196.75884 
    3800    290.98371   -983.32226    279393.26   -75600.817    7399.5094   -83000.327    200.21518 
    3850    296.34171   -982.59356    279971.99   -75541.549    7535.7594   -83077.309    203.34249 
    3900    293.17016    -1078.866    280269.75   -75498.341     7455.109    -82953.45    207.00776 
    3950    294.95687   -937.80764    279945.22   -75501.525    7500.5439   -83002.068    209.72144 
    4000    295.79817   -919.41519    279447.97   -75564.681    7521.9377   -83086.619    212.17097 
    4050    296.67824   -1062.9809    279292.54   -75570.159    7544.3171   -83114.476    214.65968 
    4100    298.47048   -1131.6496    279461.45    -75552.69    7589.8926   -83142.583    217.10818 
    4150    295.82708   -732.82686    279572.02   -75592.059    7522.6728   -83114.732    220.42344 
    4200    291.33877   -1148.2167    279728.99   -75552.804    7408.5383   -82961.342    223.41216 
    4250    298.33542   -1060.4604    279831.21   -75528.701    7586.4581   -83115.159    226.35188 
    4300    298.46553   -936.85966    279609.24   -75515.979    7589.7668   -83105.746     229.5658 
    4350    298.44018   -1058.8962     279441.5   -75514.092     7589.122   -83103.214    233.64165 
    4400    295.25435   -1125.5783    279311.92   -75540.037    7508.1087   -83048.145    237.26769 
    4450    297.60595   -930.61897    279160.15    -75514.57    7567.9081   -83082.478     240.4259 
    4500    295.40766   -887.95909    279363.38   -75488.952    7512.0072   -83000.959    243.28059 
    4550    296.43882   -1237.0116     279696.7   -75474.684    7538.2289   -83012.913    247.31285 
    4600    295.55188   -976.18065    279635.38   -75448.426    7515.6746   -82964.101    250.85786 
    4650     295.8557   -794.46369    279433.92   -75457.743    7523.4005   -82981.144    253.95041 
    4700    298.86558   -902.71608    279414.86    -75452.69    7599.9398   -83052.629    256.36596 
    4750    302.00863   -733.07768    279626.39   -75490.836    7679.8652   -83170.701     259.2092 
    4800    295.91318   -1033.8623     279833.3   -75448.495    7524.8622   -82973.358    261.66335 
    4850     300.7411   -1206.8731    279803.86   -75410.542    7647.6329   -83058.175    264.94465 
    4900    305.05882    -908.4397    279494.56   -75424.041    7757.4294   -83181.471    267.76192 
    4950    297.39382    -1157.782    279609.38   -75428.062    7562.5137   -82990.576    270.71459 
    5000    299.09428   -888.34852    279521.46   -75429.337    7605.7553   -83035.092    272.97987 
    5050    299.58787   -943.88283    279517.98   -75448.858     7618.307   -83067.165    275.45986 
    5100    297.41629    -998.8176    279625.59   -75422.409    7563.0852   -82985.494    278.70061 
    5150    298.16299   -633.35391    279854.63   -75440.559    7582.0733   -83022.632     280.8992 
    5200    293.38496   -1411.8193    280443.41   -75380.855    7460.5713   -82841.426    284.05254 
    5250    301.36147   -1249.3532     280184.2   -75359.331    7663.4083   -83022.739    286.89833 
    5300    299.45536   -942.21951    279472.52   -75322.454    7614.9373   -82937.391    289.52189 
    5350    298.75218   -815.01478    279080.04   -75317.844     7597.056     -82914.9    292.65001 
    5400    305.35071   -918.92558    279426.73   -75328.653    7764.8518   -83093.505    296.04334 
    5450    301.23908   -986.59473    280083.28   -75300.413    7660.2962   -82960.709    299.45973 
    5500    302.08858   -1186.5591    280417.97   -75303.306    7681.8982   -82985.204    302.32698 
    5550    299.53326   -1116.6707     280212.1   -75339.543    7616.9182   -82956.461    305.07626 
    5600    301.56876   -1103.5486    279622.32   -75317.958    7668.6795   -82986.638    307.81396 
    5650    301.82215   -914.52418    278971.25   -75322.257    7675.1231   -82997.381     310.4524 
    5700    302.62949    -917.7051    278890.62   -75275.272    7695.6532   -82970.925    312.99154 
    5750    299.04063   -979.87359    279572.52   -75296.375    7604.3911   -82900.766    317.23778 
    5800    301.07117    -1154.065    280426.33   -75304.806    7656.0261   -82960.832    321.38936 
    5850    306.06656   -1144.9393    280572.63   -75292.413    7783.0555   -83075.468     325.6176 
    5900    300.26132   -980.19518     280125.5   -75250.327    7635.4325   -82885.759    328.32414 
    5950    303.05344   -883.71432    279549.51   -75236.278    7706.4341   -82942.713    330.06671 
    6000    299.93434   -821.76563    279119.09   -75288.461    7627.1174   -82915.579    332.89573 
    6050    301.29723   -804.58789    279094.91   -75339.477    7661.7747   -83001.252    336.77253 
    6100    300.11578   -940.65811     279469.8   -75338.868    7631.7314   -82970.599    340.67459 
    6150    302.34133   -1309.0863    280100.24   -75302.701    7688.3256   -82991.026    344.31152 
    6200    301.47345   -1064.9357    280134.66   -75292.374     7666.256   -82958.629    347.80854 
    6250    300.30127   -983.22399     279884.6   -75249.923    7636.4482   -82886.372    351.60485 
    6300      301.388   -977.57167    279726.57   -75256.194    7664.0829   -82920.277    355.40269 
    6350    301.99006   -1181.1122    279764.95   -75290.812    7679.3931   -82970.205    359.00623 
    6400    304.40034   -991.72096    279616.84   -75221.105    7740.6847    -82961.79     361.9707 
    6450     304.7666   -819.64293    279656.03   -75220.936    7749.9983   -82970.934     364.7063 
    6500    306.02611   -1276.4795    280013.08   -75215.952    7782.0269   -82997.979    367.63832 
    6550    296.60879   -891.03108    280207.41    -75205.17    7542.5512   -82747.722    370.58321 
    6600     299.4898   -1134.8923    280272.49   -75298.677    7615.8133   -82914.491    373.12255 
    6650    300.70181   -1039.6053    280108.54   -75339.604    7646.6336   -82986.238    375.55656 
    6700    299.90247   -1018.4738     279629.9    -75362.06    7626.3072   -82988.368    377.92353 
    6750     298.4481   -912.72936    278875.06   -75404.456    7589.3235    -82993.78    379.85692 
    6800    300.70618   -844.55481    278667.51   -75417.748    7646.7449   -83064.493    382.79702 
    6850    297.43736   -744.61165    279383.12   -75420.537     7563.621   -82984.158    386.86503 
    6900     295.4643   -1251.3892    280258.74   -75426.617    7513.4476   -82940.064    391.77871 
    6950    297.03774   -1206.2244    280326.38   -75399.112     7553.459   -82952.571    395.35444 
    7000    300.62002   -1213.9555    279944.54   -75385.831    7644.5538   -83030.385    397.78908 
    7050    300.63149   -1148.8407    279426.15   -75380.386    7644.8455   -83025.231    398.79863 
    7100    299.89181   -1059.8807    279209.41   -75332.571    7626.0361   -82958.607    401.04723 
    7150    298.33078   -802.97279    279265.59   -75342.592      7586.34   -82928.932    404.24071 
    7200    300.26405   -813.68589    279555.41   -75307.767    7635.5018   -82943.269     407.1947 
    7250    299.72386   -1047.6199    279855.79   -75263.121     7621.765   -82884.886     410.7952 
    7300    301.34355   -1099.3885    280043.11   -75251.672    7662.9526   -82914.624    415.02411 
    7350    299.06163   -841.30965    279832.68    -75276.47     7604.925   -82881.395    418.76169 
    7400    297.64215   -818.17296    279735.97   -75282.995    7568.8287   -82851.824    422.15995 
    7450    302.05246   -1017.1038    279843.72   -75257.501    7680.9799   -82938.481    425.50801 
    7500    296.91035   -1052.8259    279967.97   -75278.907    7550.2195   -82829.127     427.6592 
    7550    299.39551   -1226.6017    279951.14   -75335.062    7613.4155   -82948.477    429.97569 
    7600    300.38519   -842.96105    279781.79   -75338.637    7638.5823   -82977.219    432.74989 
    7650    296.62199   -763.04824    279624.98   -75319.481    7542.8867   -82862.367     435.4212 
    7700    300.84672   -783.03031    279646.14   -75318.818    7650.3186   -82969.136    438.03322 
    7750    299.63615   -1069.2439    279775.21   -75338.632    7619.5346   -82958.167    442.26108 
    7800    297.82082   -1156.1586    279584.92   -75384.274    7573.3723   -82957.646    445.63781 
    7850    296.25669   -531.12478    279226.96   -75369.863    7533.5975    -82903.46    447.77193 
    7900    300.68511   -727.94804    279376.48   -75330.075     7646.209   -82976.284    451.91288 
    7950    303.64185   -1085.8819    279844.34   -75350.587    7721.3969   -83071.984     455.1984 
    8000    301.07421    -868.0679    280104.03   -75342.805    7656.1037   -82998.908    458.54036 
    8050    298.36764   -904.02328    279999.74   -75357.359    7587.2773   -82944.637    462.17652 
    8100    293.43288   -895.72384    279692.47   -75399.443    7461.7898   -82861.233    464.57226 
    8150    294.54552   -1190.2353    279581.13   -75445.305    7490.0835   -82935.388    466.71042 
    8200    300.75105    -739.4817    279274.11   -75412.526    7647.8859   -83060.412    469.83529 
    8250    302.05781   -937.06553    279168.06   -75416.345    7681.1159   -83097.461    472.76874 
    8300     303.2354   -1316.8419       279388   -75393.068     7711.061   -83104.129    476.76097 
    8350    297.36786   -1152.6831    279636.32   -75460.929    7561.8536   -83022.783    480.67249 
    8400    294.78177   -989.55088    279645.21   -75474.415    7496.0913   -82970.506    482.60951 
    8450     293.8116    -988.8163     279655.1   -75468.209    7471.4205   -82939.629    485.40295 
    8500    295.69305   -1019.3641    279649.78   -75412.257    7519.2644   -82931.522    488.74166 
    8550    301.75235   -916.65955    279609.68   -75366.433    7673.3482   -83039.781    491.81394 
    8600    297.61042   -848.74866    279677.81   -75372.212    7568.0218   -82940.234    495.62362 
    8650    295.85997   -1070.5684    279715.57   -75318.463     7523.509   -82841.972    498.43776 
    8700    298.56867   -833.21249    279698.99   -75290.376    7592.3893   -82882.766    501.48875 
    8750    297.57979   -999.50042    279779.78   -75265.813     7567.243   -82833.056    505.70992 
    8800    302.24636   -1093.3013    279776.59    -75248.87    7685.9106   -82934.781    509.98917 
    8850    299.60622   -1028.6006       279713   -75223.235    7618.7737   -82842.008    512.95469 
    8900    304.72501   -762.41925    279605.98   -75238.064    7748.9408   -82987.005    515.82712 
    8950    301.76799   -1144.3776    279813.77   -75211.626    7673.7459   -82885.372    519.62562 
    9000    305.82659   -1096.4081    280085.04   -75222.162    7776.9531   -82999.115    523.03307 
    9050    307.38553   -1136.2046    280090.93    -75197.91    7816.5959   -83014.506     525.7504 
    9100    302.03847   -1192.4091    280174.33   -75209.184    7680.6239   -82889.808    527.87672 
    9150    297.60462   -1101.2605    280187.65   -75230.725    7567.8744   -82798.599    530.75978 
    9200    307.10565   -866.78744    279681.89   -75191.159    7809.4788   -83000.638    533.24039 
    9250    303.77788   -1125.5818    279446.51   -75189.736    7724.8561   -82914.592    536.17149 
    9300    303.35213    -1093.054    279262.26   -75253.035    7714.0295   -82967.064    539.67845 
    9350    300.90495   -857.46026    279317.19   -75256.384    7651.7994   -82908.184    543.44741 
    9400    298.40828   -1361.1801    279764.61    -75296.03    7588.3109   -82884.341    547.38809 
    9450    303.90895   -939.84945    279952.15   -75300.104    7728.1889   -83028.293    550.78658 
    9500    298.59036   -1218.9046    280051.02   -75284.104     7592.941   -82877.045    554.00443 
    9550    296.11665   -922.22782    279849.77   -75286.415    7530.0363   -82816.451    557.63602 
    9600    303.66891   -1118.8849    279873.73    -75293.33    7722.0848   -83015.415    560.14669 
    9650    301.76904   -1077.4517    279970.42   -75253.308    7673.7726    -82927.08    562.81699 
    9700    304.25211   -1323.0503    279977.11   -75250.924    7736.9153    -82987.84    564.89765 
    9750    298.23421   -951.47552    279736.71    -75342.99    7583.8845   -82926.875    567.96121 
    9800    301.29081   -836.43207    279598.79   -75321.192    7661.6114   -82982.804    570.34783 
    9850    297.95573   -958.94314    279738.17   -75319.308    7576.8029   -82896.111    574.08716 
    9900    296.85732   -955.71263    279701.28   -75277.346     7548.871   -82826.217     577.2733 
    9950    301.67349   -1033.3708    279632.17   -75287.902    7671.3428   -82959.244    580.82521 
   10000    295.99649    -810.1736    279580.77   -75309.235    7526.9807   -82836.215    582.85015 
   10050    301.33139    -1020.611    279587.43   -75304.254    7662.6435   -82966.897    585.19956 
   10100    303.41896   -898.19732     279539.6   -75296.382    7715.7288   -83012.111     588.3569 
   10150    300.12442   -786.22233    279592.49   -75300.202     7631.951   -82932.153     591.8376 
   10200    293.92873   -845.22857     280057.9    -75324.51    7474.3991   -82798.909    594.61022 
   10250    300.37229     -917.686     279928.6   -75277.664    7638.2543   -82915.919     596.7028 
   10300    303.85037   -1289.0325    279751.89    -75240.43    7726.6993    -82967.13    597.89578 
   10350    302.84881   -1107.1286    279656.52   -75271.071    7701.2305   -82972.302    600.84659 
   10400     302.4793   -1208.2252    279628.07   -75301.267    7691.8339   -82993.101    604.21236 
   10450    300.71258   -1060.9426    279426.61   -75279.264    7646.9075   -82926.171     606.9376 
   10500    301.67193   -1156.1963    279503.06   -75254.647    7671.3031    -82925.95    609.79213 
   10550    306.13356   -1340.7169     279659.1   -75235.801    7784.7592    -83020.56      612.574 
   10600    300.31688   -1307.9853    279689.59   -75228.715    7636.8452    -82865.56    615.89096 
   10650    298.88361   -965.53365    279767.99   -75254.851     7600.398   -82855.249     619.0812 
   10700    300.33649   -966.83164    280134.74   -75303.994    7637.3438   -82941.338     621.8621 
   10750    298.36617   -1164.9507    280311.37   -75287.034      7587.24   -82874.274    625.09601 
   10800    301.01511   -1216.9138    279911.57   -75300.108    7654.6007   -82954.708    627.67014 
   10850    301.28064    -616.8595     279266.2   -75314.707    7661.3528    -82976.06    630.34388 
   10900    300.66934   -789.22094    279170.02   -75315.783     7645.808   -82961.591     632.3221 
   10950    299.11064   -1130.4695     279516.1    -75350.59    7606.1713   -82956.761    637.26466 
   11000     302.5131   -1077.0938    279965.86   -75369.576    7692.6936    -83062.27    642.63422 
   11050    297.23104   -1212.1627    280121.79   -75350.105    7558.3745   -82908.479    644.06754 
   11100    301.19214    -908.4233    279963.87   -75398.834    7659.1023   -83057.936    646.73244 
   11150    297.95424   -1257.6617    279668.74   -75398.392    7576.7649   -82975.157    649.39498 
   11200    302.13895   -965.38646    279035.52   -75422.684    7683.1793   -83105.863    650.67767 
   11250    299.08139   -787.49156    278961.21   -75419.931    7605.4276   -83025.359    653.53859 
   11300     296.7141    -1072.697    279777.89    -75432.01    7545.2291   -82977.239    658.05921 
   11350    298.51107   -1438.1666    280470.17   -75428.503    7590.9247   -83019.427    663.91332 
   11400    294.51239   -1079.2376    280404.62   -75443.687     7489.241   -82932.928    668.27336 
   11450    300.82735   -1222.0267    279788.57   -75408.589    7649.8261   -83058.415    670.93954 
   11500    296.29537   -650.58384    278902.42   -75341.313    7534.5811   -82875.894     672.4389 
   11550    300.12343   -775.24825    279007.65   -75334.027    7631.9258   -82965.953     675.2394 
   11600    295.69344   -1054.1176    279728.45   -75354.941    7519.2744   -82874.216    680.57333 
   11650    298.53968   -945.10377    280211.55   -75433.982    7591.6523   -83025.634    684.54744 
   11700    297.16002   -1037.0702    280230.63   -75402.588    7556.5686   -82959.156    687.05522 
   11750    299.17828    -1288.805    279850.75   -75454.876    7607.8914   -83062.767    689.98154 
   11800    296.25512   -960.13095    279294.73   -75501.987    7533.5576   -83035.545    689.87496 
   11850    296.02802   -896.19863    279277.31   -75518.178    7527.7824    -83045.96    691.66509 
   11900    295.81114   -888.73046    279732.82   -75492.252    7522.2674   -83014.519    693.43678 
   11950    297.33394   -1288.1053    280201.12   -75467.852    7560.9912   -83028.844    697.56016 
   12000     296.2402   -915.91614    280055.24   -75494.553    7533.1781   -83027.731    700.45494 
   12050    294.31206   -1251.5938    279495.09   -75527.572     7484.147   -83011.719    701.89547 
   12100    297.90954   -998.61458    278849.64   -75510.495    7575.6282   -83086.123    703.57637 
   12150    296.29007    -896.0909    278792.94   -75457.137    7534.4464   -82991.584    706.25681 
   12200    297.30704   -918.52851    279464.25   -75410.789     7560.307   -82971.096    710.36885 
   12250     294.3083   -1254.0844    280350.76   -75432.877    7484.0513   -82916.928    714.92554 
   12300       295.24   -1323.1952    280528.64   -75329.691    7507.7437   -82837.435    718.07027 
   12350    300.09939   -1255.5042    280076.11   -75383.066    7631.3145    -83014.38    719.01819 
   12400    302.58054   -756.71483    279488.65   -75361.841    7694.4084   -83056.249    719.87334 
   12450    302.96464    -958.1453    279300.68    -75340.55    7704.1759   -83044.726    720.69636 
   12500    299.68393    -965.6902    279508.27   -75356.896    7620.7498   -82977.646     724.4056 
   12550    301.55965   -1385.8924    279987.94   -75338.861    7668.4479   -83007.309    727.26833 
   12600    299.37603   -1064.2794    280312.59   -75358.389    7612.9201   -82971.309    730.62582 
   12650    297.75849   -1183.5428    280415.25   -75365.593    7571.7871    -82937.38    733.24585 
   12700     298.0357   -1019.6512    280016.66   -75384.319    7578.8364   -82963.155    735.05942 
   12750    296.89514   -1127.0197    279561.46    -75380.75    7549.8329   -82930.583    737.59019 
   12800    300.64397   -643.38325    279164.96   -75419.883     7645.163   -83065.046    739.35073 
   12850    299.22796   -753.43033    279115.14    -75456.05    7609.1546   -83065.205    740.91928 
   12900    299.78513    -1120.887    279657.39   -75427.111    7623.3231   -83050.434    745.17924 
   12950    302.53133   -1256.3127     280114.9   -75422.053    7693.1571    -83115.21    749.96883 
   13000    297.51709   -915.23385    280202.66   -75386.253    7565.6485   -82951.902    753.58836 
   13050    299.29059   -1094.9954    279904.21   -75365.359    7610.7474   -82976.107    755.28201 
   13100    297.86229   -1045.5648    279580.96   -75320.442    7574.4267   -82894.869    756.06203 
   13150    301.14018   -653.49347    279400.36   -75350.584    7657.7811   -83008.365    759.25575 
   13200    300.86295   -955.99319    279555.21   -75373.094    7650.7314   -83023.825    763.18988 
   13250    302.24785   -1205.4441    279794.86   -75345.294    7685.9483   -83031.242    767.61226 
   13300    296.74294   -849.75859    279676.37   -75348.398    7545.9624    -82894.36    770.58932 
   13350    302.74926   -1143.6242    279700.45   -75345.694    7698.6989   -83044.393    773.74643 
   13400    300.24439   -982.24092    279920.96   -75386.254    7635.0018   -83021.256    776.57921 
   13450    293.44418   -874.19096    280059.57   -75337.133    7462.0773    -82799.21    778.26831 
   13500    303.82864   -1000.9787    279892.55   -75330.564    7726.1467    -83056.71     780.8197 
   13550    299.69952   -887.08724    279465.24   -75316.065    7621.1462   -82937.211     782.9876 
   13600    294.64935   -834.10123    279232.59   -75334.499    7492.7239   -82827.223    784.69459 
   13650    298.54773   -1030.9719    279364.45   -75360.137     7591.857   -82951.994    786.80474 
   13700    299.16566   -939.13097    279659.74   -75370.082    7607.5705   -82977.653    789.24983 
   13750    301.11526    -1231.418    279734.97   -75359.064    7657.1474   -83016.211    792.03641 
   13800    298.80758   -885.63927    279667.38   -75335.866    7598.4646   -82934.331    793.43496 
   13850    299.25369   -867.98851     279676.4   -75340.631    7609.8089    -82950.44    795.85389 
   13900    298.14308    -827.7117    279608.61   -75362.863    7581.5669    -82944.43    798.08575 
   13950    297.39659   -1130.1908    279560.17   -75385.078    7562.5843   -82947.662    800.65925 
   14000    294.36134   -719.77885    279463.55   -75395.403    7485.4001   -82880.803    803.47489 
   14050    298.70062   -1065.5558    279624.53   -75395.146    7595.7448   -82990.891    806.61745 
   14100    295.64475   -724.51889    279734.12   -75353.794    7518.0361    -82871.83    810.33162 
   14150    295.99051   -1021.4637    279871.36   -75370.279    7526.8286   -82897.108    812.99875 
   14200    297.01296   -1089.5723    279962.58   -75403.318    7552.8289   -82956.147    815.66598 
   14250    295.12944   -720.37363     280032.7   -75438.307    7504.9322    -82943.24    817.78048 
   14300    297.69174   -1096.3599    280007.85   -75438.169    7570.0898   -83008.258     820.5454 
   14350    298.01392   -1305.4725    279742.71   -75467.331    7578.2825   -83045.613    822.23845 
   14400     297.3267    -1027.732    279442.61   -75462.061     7560.807   -83022.868    823.22787 
   14450    296.04626   -743.82245    279262.62   -75453.591    7528.2464   -82981.837    824.39317 
   14500    295.63364   -919.85133    279611.15   -75403.955    7517.7537   -82921.709    827.94727 
   14550    298.70359   -1172.0771    280195.07   -75412.613    7595.8203   -83008.434      830.741 
   14600     292.2767   -1186.1544    280469.08   -75421.158    7432.3892   -82853.547    833.77609 
   14650    298.34712   -1031.7471    280160.04   -75404.898    7586.7556   -82991.653    834.09413 
   14700    301.52864   -916.98211    279365.17   -75362.374    7667.6593   -83030.034    836.31906 
   14750    299.53236   -941.82855    279062.55    -75398.45    7616.8953   -83015.345    838.74957 
   14800    299.66658   -713.85524    279389.36   -75395.477    7620.3084   -83015.785    841.76851 
   14850    300.75444    -1147.035    280005.22   -75395.773     7647.972   -83043.745     847.6821 
   14900    298.46555   -1434.6913    280164.39   -75389.863    7589.7671    -82979.63    852.27874 
   14950    295.34712   -1184.0102    279748.51   -75455.705    7510.4678   -82966.173    854.86814 
   15000     297.4475   -913.56227    279294.65    -75466.22     7563.879   -83030.099     855.8281 
   15050    298.39666   -992.66423    279204.07   -75514.454    7588.0152   -83102.469    858.63598 
   15100    296.52025   -921.86409    279180.47   -75520.396    7540.2995   -83060.695    862.15361 
   15150    295.46517   -976.40795    279469.65   -75550.503    7513.4698   -83063.972    866.79305 
   15200    292.91211   -1006.7244    279658.48   -75584.076    7448.5473   -83032.623    870.98814 
   15250    291.49068   -967.70731     279446.3   -75566.237    7412.4013   -82978.638    873.19363 
   15300    294.36009   -713.41721    279067.58   -75572.625    7485.3682   -83057.993      875.422 
   15350    295.30368   -744.07895    278860.18   -75572.119    7509.3631   -83081.482    877.72078 
   15400    297.84185   -782.64772    279090.53   -75598.859    7573.9069   -83172.766    880.93713 
   15450      289.049   -1074.5248    279598.78   -75690.301     7350.311   -83040.612    884.94444 
   15500    291.09719   -1263.8069    279851.83   -75696.268    7402.3951   -83098.663    887.42403 
   15550     291.8673   -1152.6404    279589.15   -75710.716    7421.9783   -83132.694    887.02409 
   15600    293.24612   -774.40482    279169.28   -75662.069    7457.0407    -83119.11    887.14223 
   15650    298.21521   -971.49288    278982.63   -75613.592    7583.4012   -83196.993    889.89642 
   15700    300.15352   -732.97643    279248.66   -75568.626    7632.6911   -83201.317    891.97251 
   15750    293.75912   -767.56983    279611.62    -75522.06     7470.086   -82992.146    895.98387 
   15800    291.67923   -1058.0563    279860.77   -75528.701    7417.1958   -82945.897    900.11326 
   15850    290.93977   -818.56841    279706.93   -75537.368     7398.392    -82935.76     903.9335 
   15900    293.87609   -1211.0093    279462.23   -75543.276    7473.0604   -83016.336    906.40564 
   15950    299.98718   -688.45572    279224.09   -75573.548    7628.4611   -83202.009     909.1788 
   16000    292.52327   -1207.0366    279676.68   -75523.268    7438.6591   -82961.927    913.53615 
   16050    293.29075   -1239.3317    279977.18   -75533.489    7458.1757   -82991.665    918.56542 
   16100    296.80125     -1137.17    279793.52   -75541.438    7547.4451   -83088.884    921.31615 
   16150    298.19967     -1329.68     279396.8   -75526.725     7583.006   -83109.731    922.55583 
   16200    295.43587   -402.78757    278872.66    -75451.33    7512.7246   -82964.055    922.73368 
   16250    297.70254   -1047.1423    279213.86   -75439.675    7570.3645   -83010.039     926.3007 
   16300    295.91229   -1106.1218    279922.78   -75396.099    7524.8396   -82920.939     931.8321 
   16350    300.08121   -1369.6908    280344.97   -75347.012    7630.8522   -82977.865    935.24789 
   16400    296.65051   -968.29107     280066.4   -75398.588    7543.6119     -82942.2     937.2939 
   16450    297.12918   -874.05181    279462.98   -75396.223    7555.7843   -82952.007    938.51188 
   16500    295.50225   -784.43549    278948.12   -75410.544    7514.4125   -82924.956    940.84511 
   16550    294.49673   -902.35314    279141.48    -75479.39     7488.843   -82968.233    945.69169 
   16600    298.69204   -1130.6793     279715.6   -75455.376    7595.5266   -83050.903    948.53084 
   16650    294.76708   -1203.0801    280119.49   -75487.949    7495.7177   -82983.666     951.7395 
   16700    296.33875   -1042.5097    279756.61   -75464.521    7535.6841   -83000.205    953.98797 
   16750    301.70078   -967.27683    279188.94   -75441.419    7672.0367   -83113.455    956.22535 
   16800     304.2246   -736.69777    279111.53   -75410.423    7736.2158   -83146.639    960.18087 
   16850    295.55491   -965.57606    279683.55     -75386.7    7515.7516   -82902.452    966.84158 
   16900     300.6145   -1299.4229    280238.87   -75394.671    7644.4135   -83039.084     971.8314 
   16950    302.01984   -1103.3235    280309.54   -75394.087    7680.1503   -83074.237    975.38525 
   17000    297.42563   -1011.7991    279822.45   -75414.944    7563.3227   -82978.266    978.44449 
   17050    297.22656   -1043.6394    279272.69   -75391.437    7558.2606   -82949.697    978.15973 
   17100    304.36201   -770.71533    279143.32   -75386.768    7739.7101   -83126.478    979.57288 
   17150    296.55979   -845.20791    279393.98   -75398.407    7541.3052   -82939.713    983.19375 
   17200    298.19044   -1101.7857    279704.23   -75421.345    7582.7713   -83004.117    987.01176 
   17250    296.86495    -925.2222    279960.26   -75423.547    7549.0651   -82972.612    990.13636 
   17300    297.89837   -1220.7108    279865.78   -75446.666    7575.3443    -83022.01    992.27302 
   17350    300.36256   -891.64904    279297.71   -75488.798    7638.0069   -83126.805    993.16171 
   17400    292.88294   -777.09809    278935.99    -75497.12    7447.8055   -82944.926    995.75488 
   17450    299.64946   -1018.4712    279265.97   -75488.102    7619.8731   -83107.975    998.44836 
   17500    293.55646   -1295.3502    279726.47   -75550.009    7464.9325   -83014.941     1004.021 
   17550     301.4444   -1004.6834    279630.35   -75558.239    7665.5173   -83223.756    1005.8001 
   17600    294.64333    -1039.383    279284.21   -75567.205    7492.5709   -83059.775    1007.7056 
   17650    297.17756   -1108.2742    278877.12   -75544.061    7557.0146   -83101.076    1007.7772 
   17700     293.7788   -794.10699    278945.35   -75576.796    7470.5864   -83047.383    1009.7311 
   17750    295.84422   -870.02865    279324.83   -75587.113    7523.1087   -83110.222    1011.6669 
   17800    296.25985   -1286.3241    279884.13   -75593.362    7533.6778    -83127.04    1016.5859 
   17850     293.1906   -1393.7554    280183.57   -75618.193    7455.6289   -83073.822    1021.4529 
   17900    295.94507   -630.14891    279798.69       -75571    7525.6732   -83096.673    1024.4773 
   17950    292.87716   -1090.7409     279180.5   -75618.098    7447.6585   -83065.757    1027.1179 
   18000    297.65625   -924.68885    278529.89   -75632.468    7569.1873   -83201.655    1028.1031 
   18050     293.1843   -909.19486       278641   -75669.926    7455.4687   -83125.394    1030.5631 
   18100    290.32931   -1085.5958    279194.22   -75661.872    7382.8683    -83044.74    1036.1366 
   18150    291.41202   -1189.0967    280025.94   -75663.637     7410.401   -83074.038    1040.7034 
   18200    295.12461   -1151.7526    280266.69   -75652.515    7504.8095   -83157.324    1043.8314 
   18250    290.98213   -1104.8186    279882.22   -75696.117     7399.469   -83095.586    1044.5094 
   18300    293.02124   -960.15923    279024.35   -75677.059    7451.3222   -83128.381    1044.9971 
   18350    295.74549   -774.74332    278427.44   -75657.619    7520.5979   -83178.217    1046.0657 
   18400    292.26004   -695.15198       278596   -75686.723    7431.9655   -83118.688    1047.9123 
   18450    293.14124   -1051.1317    279396.42   -75649.224    7454.3738   -83103.597    1051.1352 
   18500    289.22323   -978.37433    280330.55   -75593.255    7354.7414   -82947.997    1057.2242 
   18550    296.61571   -1246.2345    280497.34   -75561.067    7542.7272   -83103.794    1061.1791 
   18600     296.1431   -1067.1887    279869.98   -75569.125    7530.7088   -83099.834    1061.5968 
   18650    296.77408   -426.91458    279107.75   -75558.604    7546.7542   -83105.359    1063.0691 
   18700    297.12752   -696.94123     279150.2   -75494.447    7555.7421   -83050.189    1065.9418 
   18750    294.97415   -801.84959    279525.85    -75474.88    7500.9835   -82975.863    1069.8328 
   18800    297.35967   -1037.8342    279759.61    -75407.35    7561.6455   -82968.995    1075.7998 
   18850    298.50011   -968.76074    279654.29   -75418.754     7590.646     -83009.4    1077.2131 
   18900    295.39359   -1231.7638    279735.85   -75462.639    7511.6495   -82974.289    1080.4634 
   18950    296.57832   -973.20561    279407.77   -75522.121    7541.7762   -83063.897    1082.4037 
   19000    298.69247   -965.15299    279099.39   -75501.157    7595.5376   -83096.695    1082.9683 
   19050    295.21225   -831.55003    279075.24   -75528.619    7507.0381   -83035.657    1086.4727 
   19100    298.80752   -882.14563    279581.42   -75506.384    7598.4632   -83104.847    1090.1592 
   19150    295.76858   -1210.5913    280208.06   -75475.554    7521.1851   -82996.739    1092.5716 
   19200    299.37063   -1094.6459    280296.39   -75461.743    7612.7828   -83074.526    1094.5075 
   19250    299.00089   -980.70549    279832.62   -75455.209    7603.3805    -83058.59    1094.2299 
   19300    300.13351   -798.75861    279044.32   -75466.012    7632.1823   -83098.194    1094.7861 
   19350      300.196   -889.57425    278550.85   -75464.739    7633.7713    -83098.51    1097.5164 
   19400    297.98887   -854.92186    279073.28   -75443.097    7577.6456   -83020.743    1101.2062 
   19450    296.96006   -1025.4845    279991.54   -75406.734    7551.4836   -82958.218    1106.6921 
   19500    298.54945    -916.5387    280450.74   -75389.682    7591.9007   -82981.583     1110.744 
   19550    301.68595   -1281.9719    280266.66   -75435.167    7671.6597   -83106.826    1113.1706 
   19600    300.55256   -966.31128    279367.67   -75464.271    7642.8383   -83107.109    1113.9927 
   19650    304.61727   -989.51441       278914   -75463.506     7746.201   -83209.707    1113.8236 
   19700    296.37037   -882.04172    279234.47   -75467.495    7536.4883   -83003.984    1117.1111 
   19750    295.23625   -1333.3436    279928.68    -75440.69    7507.6485   -82948.338    1122.6394 
   19800    296.09133   -1426.0759    280242.97   -75419.976    7529.3925   -82949.369    1127.3868 
   19850    300.26916   -956.80107    279711.93   -75435.345    7635.6316   -83070.977    1127.8867 
   19900    297.58065   -680.03731    279121.17   -75426.301    7567.2649   -82993.566    1131.3505 
   19950    298.92838   -917.49327     279061.8   -75429.987    7601.5367   -83031.523    1134.4298 
   20000    296.54921   -967.48162    279541.47   -75439.871    7541.0361   -82980.907    1140.9268 
   20050    294.93916   -1024.1662    280245.86   -75448.253    7500.0936   -82948.347    1147.6645 
   20100    291.42924   -1531.2932    280469.92   -75455.114    7410.8387   -82865.953    1150.2965 
   20150    297.39644   -1078.8195     279662.2   -75518.105    7562.5805   -83080.685    1149.3917 
   20200    297.56386   -851.61218    279020.32    -75510.72    7566.8378   -83077.557    1149.9483 
   20250    298.59924    -1024.108    278901.49    -75510.43    7593.1667   -83103.597    1151.6877 
   20300    299.38285   -874.60772    279198.48    -75512.78    7613.0936   -83125.874    1152.8678 
   20350    298.12997   -1218.1201     279911.7   -75469.282    7581.2337   -83050.515    1156.4161 
   20400    295.53424   -1192.0192     280324.8    -75459.67    7515.2262   -82974.897    1159.9579 
   20450    292.70332   -1099.2448    280018.09   -75471.886    7443.2379   -82915.124    1161.9949 
   20500    294.97125   -899.45052    279365.72   -75507.648    7500.9096   -83008.557    1161.7337 
   20550    296.00837   -921.02075    278847.32   -75485.664    7527.2827   -83012.947    1161.2855 
   20600    294.97573    -701.5394    278939.05   -75484.427    7501.0236   -82985.451    1164.0586 
   20650    297.36119   -1041.2025    279459.64    -75510.07    7561.6842   -83071.754    1169.4622 
   20700    296.52912   -1182.2146    279830.39   -75519.864    7540.5251   -83060.389    1173.6512 
   20750    294.66584    -874.6759    279703.59   -75472.333    7493.1432   -82965.476    1175.3046 
   20800    300.31505   -1270.5305    279553.14   -75508.739    7636.7987   -83145.538    1178.5586 
   20850    299.60171   -1043.9056    279165.81   -75479.303    7618.6588   -83097.962    1181.3698 
   20900    301.43083   -704.11259    278693.35   -75484.246     7665.172   -83149.418    1184.0547 
   20950    295.32219   -623.25192    278878.48   -75516.128    7509.8337   -83025.962    1186.7828 
   21000    297.60462   -927.49473    279551.37   -75483.117    7567.8743   -83050.991    1190.6306 
   21050    295.51205   -1230.6307    280267.66   -75494.801    7514.6617   -83009.462    1195.7569 
   21100    298.41974   -1254.2512    280256.83   -75495.363    7588.6023   -83083.965    1198.6706 
   21150    292.85902   -991.86939    279600.61    -75502.08    7447.1971   -82949.277    1199.5548 
   21200    298.44245   -1130.8673    279122.41    -75477.78    7589.1798    -83066.96    1201.3629 
   21250    296.92028   -757.84662     279061.7   -75487.529     7550.472   -83038.001    1205.2935 
   21300    294.00208   -970.40383    279703.91   -75462.745    7476.2643    -82939.01    1208.9114 
   21350     293.1771    -1051.749    280371.56   -75451.407    7455.2856   -82906.693    1211.5774 
   21400    296.62738   -1170.2176    280276.61   -75443.936    7543.0239    -82986.96    1213.9047 
   21450    299.31864   -956.11983    279539.73   -75410.017    7611.4607   -83021.477    1214.5657 
   21500    299.66854   -529.42565    278908.58   -75425.574    7620.3583   -83045.932    1215.6691 
   21550    297.87267   -830.33611    278864.61   -75417.079    7574.6906    -82991.77    1218.1995 
   21600    292.87989   -787.44638    279472.42   -75386.211    7447.7279   -82833.939    1223.9845 
   21650    297.37006   -1042.5219    280329.41   -75338.427    7561.9097   -82900.336    1230.1937 
   21700    297.48522   -1248.1628    280586.81   -75295.128    7564.8382   -82859.966     1234.199 
   21750    294.69966    -1009.969    280095.13   -75325.578    7494.0033   -82819.581    1234.9615 
   21800    302.78115   -1116.2556     279234.8   -75312.134    7699.5098   -83011.644    1234.8165 
   21850    300.39885   -740.17289    278707.21   -75298.251    7638.9297   -82937.181    1236.7983 
   21900     303.6783   -842.72187    279163.71   -75323.792    7722.3238   -83046.116    1241.4321 
   21950    302.37517   -1209.1011    279983.13   -75319.636    7689.1861   -83008.823    1247.2654 
   22000    305.38845   -1062.0039    280073.53   -75322.358    7765.8116   -83088.169    1248.9839 
   22050    299.23435   -836.99122    279577.58   -75302.721    7609.3171   -82912.038    1251.0965 
   22100    304.69441   -878.33716    279369.17   -75291.903    7748.1627   -83040.066    1253.2391 
   22150    300.25599   -1002.8819    279906.04   -75304.493    7635.2968    -82939.79    1259.2081 
   22200    302.29518   -1076.4745    280346.13   -75246.123    7687.1521   -82933.275    1263.3336 
   22250     300.0958   -1003.3171    280178.83   -75242.377    7631.2232     -82873.6    1266.5573 
   22300    308.02019   -1021.1182    279973.13   -75189.633    7832.7349   -83022.368    1269.6441 
   22350    309.50414   -1058.1006    279619.98   -75214.552    7870.4707   -83085.022    1271.6883 
   22400    304.23758   -761.02173    279478.31   -75249.459    7736.5459   -82986.005    1274.6546 
   22450     298.4286   -936.23433    279820.44   -75247.982    7588.8275    -82836.81     1278.539 
   22500     303.0314   -1064.2307    280421.43   -75212.126    7705.8736   -82917.999    1283.4208 
   22550    296.67506   -1260.3757    280399.02    -75211.06    7544.2363   -82755.297    1285.5671 
   22600    294.95008   -1015.0952     279833.3   -75269.967    7500.3713   -82770.338    1287.1605 
   22650    303.88033    -748.2164    279435.78   -75244.712    7727.4611   -82972.174    1287.3729 
   22700    303.38847   -1040.8016    279708.79   -75263.759    7714.9536   -82978.712    1290.7769 
   22750    300.57401   -1052.4712    280041.17   -75252.436    7643.3837    -82895.82    1291.7085 
   22800    301.33614   -994.04565    280170.17   -75270.993    7662.7644   -82933.757    1294.9862 
   22850    300.98888   -1207.8153    280039.83   -75272.932    7653.9338   -82926.865    1296.9417 
   22900    302.88111   -839.11621     279544.4    -75311.41    7702.0517   -83013.462     1297.931 
   22950    299.89384   -1038.8442    279501.32   -75329.133    7626.0876   -82955.221    1301.2313 
   23000    298.19901   -1126.0158    279506.34   -75359.071    7582.9893    -82942.06    1306.1226 
   23050    303.47286   -1037.2178    279840.77   -75298.501    7717.0996     -83015.6     1308.984 
   23100    301.11274   -1351.8471    280191.13   -75281.531    7657.0834   -82938.614    1313.9073 
   23150    300.54227   -963.32522    280195.56   -75283.635    7642.5766   -82926.211    1316.7264 
   23200    299.25164   -743.21795    279863.54   -75289.101    7609.7569   -82898.858    1316.5108 
   23250    299.47617    -867.2918    279391.91   -75316.006    7615.4666   -82931.472    1317.7455 
   23300    301.90805   -1026.9244    279363.67   -75333.075    7677.3076   -83010.383    1319.2512 
   23350    296.76541   -1136.4641    279831.71   -75323.338    7546.5338   -82869.872    1322.8696 
   23400    297.92583   -1434.7387    280095.73   -75329.582    7576.0424   -82905.624    1324.6278 
   23450    299.94862   -981.72383    279585.14   -75344.127    7627.4806   -82971.608    1325.7583 
   23500    298.07944   -528.74255    278884.39   -75394.373    7579.9488   -82974.322    1323.5756 
   23550    299.08037   -573.96665    278958.38   -75389.285    7605.4015   -82994.686    1325.4647 
   23600    305.02989   -1251.7305    279799.47   -75358.479    7756.6938   -83115.173    1329.8664 
   23650    293.62717   -1231.5634    280421.34   -75308.955    7466.7306   -82775.686    1334.0478 
   23700    301.42126   -1332.5766    280335.74   -75260.962    7664.9287   -82925.891    1335.3402 
   23750     304.6564   -875.96895    279677.32   -75273.198    7747.1962   -83020.395    1335.5008 
   23800    302.33806   -847.50922    279375.88   -75244.418    7688.2424   -82932.661    1335.8254 
   23850    303.75637   -874.25853    279578.62   -75265.233    7724.3091   -82989.542    1338.9282 
   23900    300.95954   -1011.5778    279885.94   -75276.121    7653.1877   -82929.309    1344.3747 
   23950     300.4644   -1057.6502    279839.75   -75330.205    7640.5964   -82970.802    1347.3062 
   24000     301.3482   -971.90018    279507.98    -75354.86    7663.0709   -83017.931     1346.989 
   24050    295.68923   -767.91479    279352.97   -75316.453    7519.1675    -82835.62    1347.5614 
   24100    302.83052   -659.99073    279373.57   -75284.098    7700.7652   -82984.863    1350.9659 
   24150    301.60478    -1054.624    279569.64   -75304.413    7669.5955   -82974.009     1355.682 
   24200    299.69033   -931.53929    279646.45    -75327.42    7620.9125   -82948.333    1360.2081 
   24250    301.08299   -1047.3418    279649.32   -75357.247    7656.3269   -83013.574    1364.8652 
   24300    300.09179   -1027.3377    279633.23   -75327.649    7631.1214    -82958.77    1366.9049 
   24350     299.6197   -1102.9303    279629.67   -75343.988    7619.1164   -82963.104    1368.4214 
   24400     303.1134   -1085.3105    279692.95   -75308.248    7707.9587   -83016.207    1371.3423 
   24450    295.40415   -1050.1468    279739.98   -75381.956    7511.9178   -82893.874    1377.2658 
   24500    299.89335   -927.32028    279691.62   -75392.599    7626.0751   -83018.674    1381.4625 
   24550    300.10082    -1286.353    279796.97   -75366.482    7631.3509   -82997.833    1385.3168 
   24600    296.79509   -697.41632    279755.17   -75349.933    7547.2885   -82897.221    1388.0376 
   24650    302.83426   -1038.4635    279670.95   -75340.844    7700.8603   -83041.705     1389.519 
   24700    298.76815   -905.53913    279421.24   -75292.046     7597.462   -82889.508    1390.8834 
   24750    301.95983   -1025.8526     279405.3   -75276.842    7678.6242   -82955.466     1392.528 
   24800    302.96304   -972.17453    279830.29   -75208.992    7704.1352   -82913.127    1398.1766 
   24850    301.74113   -1349.1919    280505.71   -75164.884    7673.0628   -82837.946    1402.0068 
   24900    301.28476   -1260.1871    280784.44   -75130.688    7661.4577   -82792.145    1404.1617 
   24950    302.80815   -1295.6614    280337.23   -75185.244    7700.1965    -82885.44    1405.7269 
   25000    303.61993   -894.45781    279373.41   -75235.899    7720.8395   -82956.739     1405.859 
   25050    302.57072   -665.30409    278821.79   -75281.916    7694.1586   -82976.074    1407.2407 
   25100    304.13216   -890.49848    279172.95   -75233.439     7733.865   -82967.304    1409.8004 
   25150    299.82428   -917.24114    280071.15   -75245.718    7624.3188   -82870.037     1415.703 
   25200    298.89587   -1437.9327    280665.91   -75260.377      7600.71   -82861.087     1421.314 
   25250    299.90737   -947.90418    280280.37   -75322.342    7626.4317   -82948.774    1423.8174 
   25300     302.5345    -1348.512    279607.68   -75384.493    7693.2377   -83077.731     1424.578 
   25350     299.9995   -963.42993    278830.68   -75438.827    7628.7745   -83067.601    1425.8378 
   25400    297.89395   -836.46817     278824.9   -75459.928    7575.2319    -83035.16    1427.5151 
   25450    299.28127   -969.11863    279298.34   -75397.587    7610.5103   -83008.098    1432.4448 
   25500    296.80711   -1068.6264    279834.75   -75393.115    7547.5942   -82940.709    1437.6694 
   25550    292.55203   -1184.0912    280124.99   -75425.791    7439.3905   -82865.181    1440.2162 
   25600    295.27904   -976.56755    279960.87   -75445.003    7508.7365   -82953.739    1440.9155 
   25650    297.80548     -909.642    279416.35   -75460.256     7572.982   -83033.238    1441.5648 
   25700     299.9885   -750.13926    279052.15   -75438.495    7628.4948    -83066.99    1441.7133 
   25750    296.57041   -876.87583    279116.52   -75433.607    7541.5751   -82975.182    1444.3972 
   25800    298.16239   -1088.7802    279539.34   -75439.344    7582.0579   -83021.402     1449.959 
   25850    298.91902   -1095.0381    279911.34   -75422.507    7601.2987   -83023.805    1454.2712 
   25900    301.43494   -1280.4664    279923.91   -75370.311    7665.2768   -83035.588    1454.6661 
   25950    298.89058   -1188.3074    279508.56   -75407.864    7600.5753    -83008.44    1454.0793 
   26000    294.16836   -875.39568    279364.21   -75386.114    7480.4926   -82866.607      1456.24 
   26050    290.98144   -845.57738    279515.07   -75460.691    7399.4515   -82860.142    1459.9175 
   26100    294.04673   -934.35894    279635.79    -75491.11    7477.3998    -82968.51    1462.8279 
   26150    297.67169   -1228.8948    279638.68   -75494.319    7569.5798   -83063.899    1468.7001 
   26200    300.24818   -757.08449     279437.2   -75490.866    7635.0982   -83125.964     1471.383 
   26250    301.39833    -805.8633    279291.08   -75487.161    7664.3456   -83151.506    1474.8943 
   26300    299.88168   -1162.4867    279599.56   -75511.867    7625.7785   -83137.646    1480.0507 
   26350      302.286   -978.53497    279661.63   -75531.753    7686.9185   -83218.671    1482.4696 
   26400     294.0917    -673.8932     279649.1   -75525.225    7478.5434   -83003.768     1484.852 
   26450    299.22529   -971.32566     279667.2   -75476.945    7609.0868   -83086.032    1486.3869 
   26500    293.67488   -770.62186    279756.65    -75480.74    7467.9439   -82948.684    1488.7975 
   26550    291.98772    -1103.388     280054.1   -75458.791    7425.0407   -82883.832    1492.8291 
   26600     296.0819   -1137.2439    279958.44   -75472.597    7529.1526    -83001.75    1494.7475 
   26650    295.35718   -968.50958    279607.48   -75463.997    7510.7236   -82974.721    1497.4282 
   26700    301.55805   -691.99466    279223.61   -75440.261    7668.4072   -83108.668    1499.7651 
   26750    300.34958   -924.13888    279197.06   -75440.616    7637.6767   -83078.293    1502.4489 
   26800    301.75446   -848.31507    279368.65   -75499.549    7673.4018   -83172.951    1506.2194 
   26850    294.28067   -1332.6471     279828.7   -75477.664    7483.3486   -82961.013    1510.5473 
   26900     299.3896   -1339.0105    280125.23   -75427.745     7613.265    -83041.01    1513.4205 
   26950    297.30498   -1237.4125    279929.75   -75463.138    7560.2548   -83023.393      1514.65 
   27000    295.54577   -863.40492    279103.19   -75477.183    7515.5194   -82992.702    1513.2541 
   27050    296.75081   -576.57903    278541.85   -75503.804    7546.1627   -83049.966    1514.4307 
   27100    299.50607   -862.98308    279052.46   -75463.756     7616.227   -83079.983    1519.4595 
   27150    293.03941   -1149.9132    280189.24   -75468.456    7451.7844    -82920.24    1525.9192 
   27200     300.5102   -1157.5696    280584.72    -75439.28    7641.7613   -83081.041    1528.4285 
   27250    297.36948   -1245.5808    280085.14   -75427.234    7561.8948   -82989.129    1528.7752 
   27300    297.51573   -749.16689    279127.01   -75442.227    7565.6139   -83007.841    1527.0641 
   27350    298.79974    -493.9414    278698.05   -75422.843    7598.2653   -83021.109    1526.8003 
   27400    305.34063   -1097.1688    279168.11   -75378.833    7764.5956   -83143.429     1531.477 
   27450    296.62263   -1248.1365    280014.38   -75392.647    7542.9029    -82935.55     1536.836 
   27500    300.70964   -1273.6717    280344.23   -75375.691    7646.8329   -83022.524    1541.1211 
   27550    301.37397    -979.4072    279898.36   -75387.645    7663.7263   -83051.372    1541.5294 
   27600    298.21645   -1081.4002    279373.69   -75398.052    7583.4326   -82981.484    1543.7296 
   27650    301.07473   -807.13331    279337.38   -75428.229    7656.1167   -83084.346    1545.8682 
   27700      298.272   -899.07095    279831.27   -75434.159    7584.8453   -83019.004    1549.9185 
   27750    301.94258   -1320.9749    279964.24   -75404.552    7678.1855   -83082.737     1554.028 
   27800    296.47971   -1020.1464    279566.01   -75411.596    7539.2686   -82950.864    1555.4218 
   27850    304.77759   -824.27598     279452.1   -75379.462    7750.2779    -83129.74    1557.2888 
   27900    301.01261   -1015.8638    279405.22   -75397.615     7654.537   -83052.152    1561.5924 
   27950    298.64863   -1045.6218    279600.42   -75418.673    7594.4227   -83013.096    1565.1049 
   28000    299.98738    -889.5925    279691.87   -75416.821    7628.4662   -83045.287    1567.4504 
   28050       296.79   -1018.2884    279722.66   -75400.971    7547.1591   -82948.131    1569.6325 
   28100    296.97502   -954.38993    279619.98    -75423.09     7551.864   -82974.954    1571.8403 
   28150    297.10813    -1053.766    279607.52   -75398.484     7555.249   -82953.733    1574.6823 
   28200    301.83711   -785.43186    279544.08   -75411.025    7675.5037   -83086.529    1577.4804 
   28250    293.20773    -896.6381    279600.59   -75472.595    7456.0645    -82928.66    1579.0961 
   28300    298.45958    -857.1799    279625.77   -75457.968    7589.6155   -83047.583     1580.837 
   28350    301.89873   -1146.7536    279695.29   -75456.234    7677.0706   -83133.305    1584.7287 
   28400    299.20193   -1004.0358     279541.2   -75411.699    7608.4928   -83020.191    1585.9236 
   28450      295.797   -844.12714    279281.48   -75415.284    7521.9077   -82937.191    1588.0296 
   28500    300.86256   -999.05829    279575.92   -75420.853    7650.7214   -83071.574    1591.4119 
   28550    293.97299   -1088.5197     279826.9    -75432.86    7475.5247   -82908.385    1595.7021 
   28600    297.21916   -1030.7049    279727.87    -75422.71    7558.0724   -82980.783    1599.2114 
   28650    296.32826   -748.41093    279633.93   -75439.085    7535.4173   -82974.502    1598.9285 
   28700    300.67255    -1078.285    279828.54   -75443.657    7645.8897   -83089.546    1600.3204 
   28750    298.30125   -1368.7474    279648.52   -75443.886    7585.5892   -83029.475    1603.1531 
   28800    299.68181   -903.92496    279330.75   -75464.923    7620.6957   -83085.618    1603.2716 
   28850    298.22841    -1154.842    279313.53   -75442.801     7583.737   -83026.538    1606.3649 
   28900    293.32608    -890.1527    279259.67   -75481.937    7459.0741   -82941.011      1610.38 
   28950    294.99789   -1089.2905    279497.97    -75499.36    7501.5871   -83000.947    1613.6837 
   29000    300.20257   -968.05294    279496.32   -75536.125    7633.9382   -83170.063    1614.6443 
   29050    297.27015   -874.10006    279320.78   -75522.221     7559.369    -83081.59     1616.489 
   29100    294.98118   -1073.1448    279263.91   -75549.173     7501.162   -83050.335    1617.8578 
   29150    293.60408   -1093.4343    279289.06    -75537.78    7466.1436   -83003.924    1620.6447 
   29200     290.8526   -989.07126    279261.87   -75541.461    7396.1752   -82937.637    1623.3429 
   29250    291.04393   -1119.7861    279333.47    -75552.04    7401.0408   -82953.081    1626.0746 
   29300    296.40479   -870.47894    279435.29   -75580.604    7537.3634   -83117.967    1630.2852 
   29350    298.06791     -953.174    279718.16   -75565.097    7579.6555   -83144.752    1635.3475 
   29400    293.68354   -768.74681    280031.17   -75533.799    7468.1642   -83001.964    1638.4465 
   29450    295.72367   -1230.0879    280299.05   -75494.462    7520.0432   -83014.505    1641.0607 
   29500    296.08812   -1392.4536    280065.15   -75469.661    7529.3107   -82998.971    1641.0151 
   29550    297.39691   -905.59923    279505.94   -75426.463    7562.5925   -82989.056    1641.0089 
   29600    295.48124    -742.6322    279194.25   -75431.974    7513.8783   -82945.852    1642.0977 
   29650    299.67574   -931.92543     279637.8   -75409.311    7620.5415   -83029.852    1647.8516 
   29700    299.55014   -1042.2979    280161.33   -75405.869    7617.3475   -83023.217    1651.1071 
   29750    294.96208   -1064.1215    279993.23   -75360.862    7500.6764   -82861.539    1652.3233 
   29800    298.95347   -1169.2385    279449.03   -75346.925    7602.1748     -82949.1    1652.1525 
   29850    297.67913   -840.97952    279123.02   -75308.682     7569.769   -82878.451    1653.1524 
   29900    299.20082   -718.31101     279216.8   -75324.383    7608.4645   -82932.847    1654.7667 
   29950    299.61795   -991.56659    279732.77   -75315.089    7619.0719   -82934.161    1656.9299 
   30000    299.72736   -847.66003    280112.87   -75288.266     7621.854    -82910.12    1662.5651 
   30050    299.70038   -1120.7096    280265.47   -75272.314    7621.1679   -82893.482    1665.8642 
   30100    301.25118   -1135.2469    279888.17   -75283.584    7660.6037   -82944.188      1666.54 
   30150    306.26716   -905.80897    279425.13   -75280.993    7788.1566    -83069.15    1664.6169 
   30200    303.48174   -940.00602    279555.05    -75316.61    7717.3254   -83033.936     1667.604 
   30250    301.01979   -1299.3533    279807.23   -75328.294    7654.7197   -82983.014    1671.9606 
   30300    299.27247   -1410.5141    279831.86   -75381.548    7610.2866   -82991.835    1674.5784 
   30350    297.26364   -881.24255    279358.05   -75418.017    7559.2035    -82977.22    1676.6805 
   30400    300.29381   -1074.9331    279274.93   -75450.334    7636.2586   -83086.593    1679.9993 
   30450    300.30891   -680.46889     279386.8   -75476.878    7636.6424    -83113.52    1683.8132 
   30500    298.68739   -881.70736    279597.26    -75470.04    7595.4084   -83065.448    1688.6804 
   30550    297.47759   -957.69804    279978.98   -75394.906    7564.6441    -82959.55    1694.8947 
   30600    299.67603   -1207.7607    280221.79   -75360.491    7620.5489    -82981.04    1700.0924 
   30650    302.33098   -1095.5127    279911.68   -75321.784    7688.0623   -83009.846    1699.0019 
   30700    300.15675   -914.46209       279299   -75323.944    7632.7732   -82956.717    1696.4834 
   30750    302.03299   -940.44169    279221.33    -75319.01    7680.4847   -82999.495    1700.7338 
   30800    302.49121   -888.49793     279617.8   -75323.174    7692.1369   -83015.311    1708.0322 
   30850    301.62851   -1163.0082    280025.26   -75274.366     7670.199   -82944.565    1711.6795 
   30900    301.95854    -1105.315    280053.36   -75255.959    7678.5915    -82934.55     1714.619 
   30950    297.62395   -1000.1844    279647.49    -75293.15     7568.366   -82861.516    1713.6993 
   31000    301.40255   -844.17131    279377.93   -75309.708     7664.453   -82974.161    1713.6401 
   31050    302.24724   -999.42742    279509.82   -75342.938     7685.933   -83028.871    1716.8243 
   31100    300.14795   -1008.1355    279536.83   -75309.732    7632.5495   -82942.282    1718.2733 
   31150    299.88879   -745.29042    279524.97   -75288.233    7625.9591   -82914.192    1722.3424 
   31200    302.54221   -1170.2398    279729.53   -75316.844    7693.4337   -83010.278    1726.2191 
   31250     298.3433    -967.3544    279667.55   -75335.368    7586.6584   -82922.026    1729.5657 
   31300    301.24124   -954.82427     279623.1    -75330.16    7660.3511   -82990.511    1729.1636 
   31350    297.89166   -855.14798    279667.31   -75338.399    7575.1735   -82913.573    1732.0602 
   31400    298.80113   -1298.7714    279890.13    -75344.82    7598.3008   -82943.121    1737.6612 
   31450    299.68635   -767.74331    279941.38   -75351.556    7620.8113   -82972.367    1742.0619 
   31500     299.7088   -1326.6125    280054.38   -75398.443    7621.3822   -83019.825    1746.4374 
   31550    290.93308   -1081.2297    279742.98    -75460.34    7398.2218   -82858.562    1749.2064 
   31600    298.80799   -1177.8662    279371.61   -75414.942    7598.4751   -83013.417    1749.1049 
   31650    298.85132   -849.87363    279267.47   -75388.947     7599.577   -82988.524    1750.9953 
   31700    300.64782    -1055.076    279392.41   -75353.614    7645.2608   -82998.875    1752.1877 
   31750    297.62231   -838.37446    279766.77   -75315.728    7568.3242   -82884.052    1756.7202 
   31800    295.87644   -1477.6242    280323.75   -75363.065    7523.9278   -82886.993    1762.9505 
   31850    296.81812   -1400.9443    280219.83   -75346.152    7547.8742   -82894.026    1762.8227 
   31900    294.47881   -964.77341    279348.68   -75343.456    7488.3872   -82831.843    1759.5731 
   31950    304.33042   -816.29795    278567.17   -75349.393    7738.9067     -83088.3     1758.115 
   32000    303.64505   -891.75498    278756.28   -75336.263    7721.4782   -83057.741     1763.499 
   32050    297.62435   -701.22284    279513.15   -75348.265    7568.3761   -82916.641    1768.9658 
   32100    296.34106   -821.69637     280447.7   -75356.801    7535.7428   -82892.543    1776.2452 
   32150    296.25775   -1232.5114     280842.3   -75380.733    7533.6244   -82914.357    1779.5574 
   32200    298.25412   -1106.7458    280006.94   -75395.641    7584.3906   -82980.032    1777.7533 
   32250     301.2793   -540.43919    279134.86   -75339.012    7661.3188   -83000.331    1776.7934 
   32300    300.16643   -707.08265    279066.87   -75343.719    7633.0194   -82976.739    1778.0972 
   32350    297.01509   -706.22989    279419.23   -75382.725     7552.883   -82935.608    1782.0652 
   32400    297.37914   -1228.0808     279914.7   -75421.631    7562.1405   -82983.771    1785.0986 
   32450    294.77222   -1164.8992    280306.04   -75357.879    7495.8483   -82853.727    1789.0282 
   32500    305.01727   -1167.6373    280062.26   -75347.965    7756.3728   -83104.338    1789.4997 
   32550    299.86913   -1119.5642    279682.05   -75340.037    7625.4592   -82965.496    1789.5848 
   32600    300.10399   -668.99994    279558.55   -75365.389    7631.4315    -82996.82    1790.4179 
   32650    296.76129   -961.35404     279496.8   -75349.178     7546.429   -82895.607    1792.9038 
   32700    301.13257   -972.32196    279615.71   -75362.105    7657.5877   -83019.693    1795.4575 
   32750    301.06924   -1192.5818    279968.76   -75371.714    7655.9771   -83027.691    1800.6984 
   32800    302.83415   -1204.0537    280001.59    -75343.06    7700.8575   -83043.917    1802.6656 
   32850    299.85201   -1203.8838    279824.91   -75337.372    7625.0238   -82962.396    1805.0828 
   32900    297.13712   -938.26893    279494.78   -75308.428    7555.9862   -82864.414     1807.232 
   32950    303.34539   -975.89927    279450.22   -75334.016    7713.8581   -83047.874     1811.633 
   33000    298.08387   -810.47865    279449.28   -75338.719    7580.0613    -82918.78    1816.6205 
   33050    300.21977   -907.05113    279827.34   -75322.931    7634.3756   -82957.307    1820.8287 
   33100    295.60578    -1030.937     280130.1   -75316.258    7517.0453   -82833.303    1825.4094 
   33150    301.27689   -1157.7918    280061.54   -75304.382    7661.2575   -82965.639    1824.6612 
   33200    300.92376   -982.44573    279670.51   -75338.425    7652.2777   -82990.703    1825.2046 
   33250    303.10074   -804.17836    279426.82   -75295.019    7707.6367   -83002.655    1827.4845 
   33300    303.10901   -790.05306    279413.65   -75276.862     7707.847   -82984.709    1830.7581 
   33350     299.6956   -870.52285    279912.52   -75271.686    7621.0465   -82892.733    1833.5927 
   33400    300.80798   -955.01058    280295.45   -75276.055    7649.3335   -82925.388    1837.4891 
   33450    299.45126   -962.49462    280346.45     -75237.1    7614.8331   -82851.933    1839.6654 
   33500    299.06606   -1056.3081    279953.08   -75200.464    7605.0377   -82805.501    1840.6192 
   33550    300.12683   -718.47763    279559.65   -75146.237    7632.0123   -82778.249     1840.746 
   33600     296.4621   -550.49102    279490.41   -75155.085     7538.821   -82693.906    1843.2243 
   33650    303.48415   -1074.9366    279924.51   -75152.729    7717.3865   -82870.116    1850.6716 
   33700    299.22408   -929.50893    280454.46   -75157.204    7609.0559    -82766.26    1855.5088 
   33750    299.17364   -1192.6667    280591.44   -75197.629    7607.7735   -82805.403    1857.6577 
   33800    304.22893   -1029.8282    279993.34   -75235.992    7736.3258   -82972.318    1855.1594 
   33850    299.74776   -905.57428    279459.79   -75288.808    7622.3729   -82911.181    1855.3459 
   33900    298.78988   -977.26383    279388.75   -75279.526    7598.0146   -82877.541    1854.9737 
   33950    300.62302   -1020.9154    279651.69   -75278.981    7644.6301   -82923.611     1858.297 
   34000    304.29866   -1351.8161    280289.76   -75276.734    7738.0992   -83014.833    1860.5049 
   34050    296.25335   -1014.5463    280487.45   -75317.106    7533.5126   -82850.619    1861.2489 
   34100    297.80789   -929.34364    280078.02   -75333.581    7573.0433   -82906.624    1862.1669 
   34150    298.30589   -788.63114    279462.67   -75369.803    7585.7071    -82955.51    1862.6905 
   34200    298.81095   -542.44266     279215.9   -75353.947    7598.5504   -82952.497    1864.2858 
   34250    298.76707   -735.22463    279632.92   -75432.944    7597.4347   -83030.378    1869.7488 
   34300    298.02348   -1373.6905    280125.28   -75454.494    7578.5257    -83033.02    1876.7112 
   34350    293.48819   -1071.5589    280097.54   -75429.558    7463.1966   -82892.754    1880.0132 
   34400     296.5006   -1106.2705    279493.11   -75485.161    7539.7999   -83024.961    1883.2016 
   34450    296.08225   -666.78466    278799.47   -75465.158    7529.1615    -82994.32    1883.4538 
   34500    298.12096   -1041.6158    279149.75   -75502.623    7581.0045   -83083.627    1886.6406 
   34550    297.38835   -996.85243    279648.17    -75437.48    7562.3748   -82999.855    1890.3181 
   34600    293.12372    -1237.222     280092.7    -75410.72    7453.9282   -82864.649    1893.7743 
   34650    297.07929   -1183.5938    280063.05   -75408.398    7554.5156   -82962.913    1896.8211 
   34700    300.59877   -986.55325    279907.77   -75387.202    7644.0135   -83031.216    1898.2828 
   34750    297.52491   -886.37912    279803.68   -75490.111    7565.8473   -83055.958    1901.1116 
   34800    295.34026   -1024.4441    279442.24   -75481.229    7510.2932   -82991.522    1903.1487 
   34850    297.86262    -722.5378    278911.41   -75520.012    7574.4351   -83094.447    1903.6612 
   34900    294.80621   -966.93526    278861.87   -75492.447    7496.7128    -82989.16    1904.8479 
   34950    294.30948   -969.10758     279464.8   -75513.342    7484.0812   -82997.423    1909.8417 
   35000    295.96746    -1331.239    280022.27   -75478.324    7526.2424   -83004.566    1914.4749 
   35050    295.76952   -1059.3284    279789.02    -75517.86    7521.2092   -83039.069    1914.6985 
   35100    297.91228    -845.2507     279213.1   -75521.833     7575.698   -83097.531    1912.4919 
   35150    298.54108   -973.46988    279008.72   -75516.565    7591.6878   -83108.253    1912.8866 
   35200    296.46348   -861.02409    279446.77   -75488.974     7538.856    -83027.83    1915.9863 
   35250    303.94495   -1482.0012     279921.2   -75487.686    7729.1045   -83216.791    1920.7894 
   35300     299.6712   -1031.4287    279840.45    -75422.39    7620.4259   -83042.816    1921.6358 
   35350    299.45535   -1391.4709    279644.51   -75428.525     7614.937   -83043.462    1924.2317 
   35400    300.21719   -775.16225    279249.44   -75406.073    7634.3102   -83040.383    1927.0541 
   35450    299.40865   -859.92931    279279.24   -75435.636    7613.7494   -83049.386    1930.4598 
   35500    295.66275    -1004.726    279483.55   -75434.507    7518.4939   -82953.001    1932.7204 
   35550    297.93423   -1013.5427    279533.94   -75441.999    7576.2561   -83018.255    1938.2473 
   35600    299.81351   -1036.3159    279570.59   -75384.046    7624.0449   -83008.091    1942.8383 
   35650    295.77738   -774.66813    279608.03   -75381.264     7521.409   -82902.673    1947.8237 
   35700      295.604   -915.39335    279844.92   -75392.023    7516.9999   -82909.023    1952.8543 
   35750    300.45401   -1072.4907    280080.87   -75376.476    7640.3323   -83016.808    1958.6427 
   35800    297.69111   -1210.5597    280044.05   -75363.882    7570.0736   -82933.956    1960.7009 
   35850    300.48192   -845.37128    279601.25   -75377.423     7641.042   -83018.465    1961.1819 
   35900    301.49525   -997.61455    279173.06    -75344.31    7666.8103    -83011.12    1961.6437 
   35950    301.90342   -1001.3147    278856.15   -75372.711    7677.1899     -83049.9    1964.3537 
   36000    298.09363   -697.17228    279070.69   -75374.488    7580.3096   -82954.798    1968.4436 
   36050    296.65202   -954.55966    279801.01   -75420.516    7543.6504   -82964.167     1974.576 
   36100     300.0815   -1117.4497    280263.24   -75363.795    7630.8596   -82994.655    1978.9149 
   36150    297.73207   -743.13104    280121.62   -75382.849    7571.1154   -82953.965    1983.7744 
   36200     297.6917   -952.90406    279870.28   -75413.439    7570.0887   -82983.528    1985.5072 
   36250    299.53926   -1129.9936    279569.91   -75435.763    7617.0708   -83052.834    1988.3186 
   36300     298.2836   -987.46087    279086.97   -75451.454    7585.1404   -83036.595     1990.204 
   36350    298.14658   -520.36516    278990.29   -75474.694    7581.6559    -83056.35    1995.1732 
   36400    297.42916   -1100.5735    279708.72   -75463.426    7563.4124   -83026.838    2001.6498 
   36450    300.66022   -1267.7994    280270.25   -75402.449    7645.5762   -83048.026    2008.4855 
   36500    294.94847   -1108.0915    280421.38    -75335.89    7500.3304   -82836.221    2016.0253 
   36550    302.22971   -864.53525    279797.33   -75361.548    7685.4872   -83047.035    2015.7025 
   36600    297.12087   -806.08103    279066.64   -75442.216     7555.573   -82997.789    2016.1208 
   36650    299.04008    -966.9326    278978.32   -75458.022     7604.377   -83062.399    2017.5112 
   36700    297.28478   -985.60194    279470.12   -75490.047     7559.741   -83049.788    2022.7648 
   36750    298.69585   -1241.2327    279927.19   -75471.859    7595.6234   -83067.482    2026.6272 
   36800    300.21837   -1106.4434    279738.27   -75486.142    7634.3402   -83120.483    2030.0913 
   36850    298.84096   -843.08995    279321.94   -75476.022    7599.3137   -83075.335     2032.469 
   36900     301.7075   -915.86119    279268.59   -75465.798    7672.2077   -83138.005    2034.7736 
   36950    292.86511   -1075.0181    279590.56   -75466.004     7447.352   -82913.356    2038.8893 
   37000    297.17108   -1113.7134     279736.8   -75476.462    7556.8496   -83033.312    2041.2885 
   37050    295.80515    -1249.644    279639.12   -75467.718    7522.1152   -82989.833    2044.8218 
   37100    302.21392   -1097.2733    279374.07   -75401.825    7685.0856   -83086.911    2046.0262 
   37150    298.70866   -1026.2983    279322.26   -75386.334    7595.9494   -82982.283    2049.5855 
   37200    299.14693   -1118.8855    279673.18   -75390.476    7607.0942    -82997.57    2054.9546 
   37250    297.72383   -831.93822    279914.55   -75408.093    7570.9058   -82978.999    2063.2171 
   37300    296.74836   -1055.4632    279994.76   -75441.408    7546.1002   -82987.508    2068.3196 
   37350    294.90105   -950.10857    279879.17   -75411.049    7499.1246   -82910.174     2070.676 
   37400    297.93403   -914.01681       279783   -75383.973    7576.2511   -82960.224    2072.5164 
   37450    296.22187   -693.43945    279494.46   -75363.329     7532.712   -82896.041    2075.3574 
   37500    301.78953   -777.57108    279595.64   -75327.483    7674.2937   -83001.777    2079.7495 
   37550    295.84454   -898.43446    279849.87   -75392.263    7523.1169    -82915.38    2081.2292 
   37600    299.00497   -1077.3688    279938.71   -75410.624    7603.4842   -83014.108    2084.0499 
   37650    296.01929     -1163.04    279565.05   -75416.314    7527.5606   -82943.874    2084.1866 
[...]
   90850    297.28367   -1142.0516    279628.58    -75502.22    7559.7128   -83061.933    4944.3384 
   90900    296.22556   -861.06975    279384.48   -75495.267    7532.8057   -83028.073    4946.2731 
   90950    298.23702   -917.74614    279138.63   -75505.388    7583.9559   -83089.344    4947.2068 
   91000    295.51502   -1020.3611    279237.39    -75525.73    7514.7373   -83040.468    4950.8013 
   91050    295.69874   -1027.8122    279490.89   -75559.754     7519.409   -83079.163    4954.4358 
   91100     298.0735   -1313.3445    279545.69   -75498.483    7579.7976   -83078.281    4952.7117 
   91150    300.06348   -816.96395    279431.47    -75473.98    7630.4015   -83104.381    4953.7382 
   91200    297.11157   -1030.3437    279636.99   -75483.824    7555.3365   -83039.161     4958.842 
   91250    301.71079   -880.09825    279675.16    -75454.16    7672.2913   -83126.451    4962.2261 
   91300    296.44561   -1109.0645    279697.65   -75466.054    7538.4016   -83004.456    4964.0171 
   91350    294.81881   -1009.6721    279383.38   -75479.443    7497.0333   -82976.477    4962.5118 
   91400    301.29396   -826.80696    279067.82   -75516.618    7661.6917   -83178.309    4961.6142 
   91450    295.74284   -1050.3874    279261.63   -75462.844    7520.5306   -82983.375    4965.6503 
   91500    298.49785   -1330.2658     279556.5   -75514.429    7590.5885   -83105.017    4970.3225 
   91550    295.59549   -1014.9802    279446.41   -75483.013    7516.7835   -82999.796    4968.9864 
   91600    298.37327   -1062.5513    279294.48    -75494.67    7587.4207    -83082.09    4969.3118 
   91650    298.85012   -675.87099    279246.37   -75470.346    7599.5466   -83069.892    4972.3783 
   91700    298.29832   -1255.0158    279904.15   -75475.669    7585.5147   -83061.184    4983.7766 
   91750    298.32166   -1067.3805    280280.51   -75448.678    7586.1083   -83034.786    4992.3845 
   91800    298.18728   -1533.1778    280049.14   -75475.968    7582.6909   -83058.658    4991.3074 
   91850    300.92248   -886.85044    279116.25   -75501.275    7652.2452    -83153.52    4984.1777 
   91900    297.03938   -718.25513    278632.12   -75483.252    7553.5006   -83036.752    4983.4302 
   91950    295.68907   -1217.1018    279245.28   -75471.792    7519.1632   -82990.955    4992.7998 
   92000     297.8505   -1177.4846    279899.99   -75513.696     7574.127   -83087.823    5005.8388 
   92050    291.99556    -1236.903     280069.6   -75516.267      7425.24   -82941.507    5011.1029 
   92100      301.243   -883.86413    279434.38   -75498.898    7660.3958   -83159.293    5007.2634 
   92150    301.49028   -659.12251    278926.59   -75543.019    7666.6838   -83209.703    5006.6306 
   92200    290.33575   -727.90585    279072.93   -75505.466     7383.032   -82888.498    5011.3816 
   92250    301.13824   -1173.9962    279376.84   -75474.856    7657.7317   -83132.588    5014.7212 
   92300    294.18794   -991.96736    279595.57   -75459.892    7480.9906   -82940.882    5020.4879 
   92350    301.58031   -1016.0917    279608.82   -75424.719    7668.9733   -83093.692    5022.1099 
   92400    301.41791   -939.95198    279492.91   -75450.234    7664.8437   -83115.078    5024.7581 
   92450    295.70631   -961.69652     279426.5   -75456.694    7519.6018   -82976.296    5028.9403 
   92500    297.82719   -976.26883    279404.87   -75505.697    7573.5341   -83079.231    5030.0403 
   92550    293.85931   -934.43744    279231.44   -75539.782    7472.6338   -83012.416    5030.1046 
   92600    297.14186   -826.71796     279163.8   -75515.675    7556.1068   -83071.781    5031.4545 
   92650    295.57523   -871.19322    279596.93    -75473.18    7516.2683   -82989.448    5036.7548 
   92700    295.54025   -1248.0825    279966.79   -75468.659    7515.3789   -82984.038    5044.1395 
   92750     298.1645   -1250.8633    279658.95   -75446.366    7582.1116   -83028.477    5044.0598 
   92800    299.48101   -870.50078    279084.59   -75454.495    7615.5896   -83070.085    5042.2039 
   92850    297.85665   -733.47521    278764.97   -75417.924    7574.2834   -82992.207    5042.0618 
   92900     302.2458   -913.23019    279178.42   -75412.465    7685.8964   -83098.362    5051.5946 
   92950    298.49272   -1089.1194     279837.7   -75370.939     7590.458   -82961.397    5058.6107 
   93000    300.38337   -1027.4981    280123.68   -75295.444     7638.536    -82933.98    5065.0829 
   93050    305.12437   -1168.2616    279943.25   -75276.517    7759.0963   -83035.613    5067.7511 
   93100    305.14745   -913.40207     279505.7   -75319.181    7759.6832   -83078.864    5067.7491 
   93150    301.65758    -827.9442    279365.65   -75353.032    7670.9382    -83023.97    5067.6042 
   93200    300.53327   -1057.8648    279658.24   -75403.958    7642.3479   -83046.306    5077.1194 
   93250    300.04751   -897.99743    279650.58   -75396.114    7629.9952    -83026.11    5079.3205 
   93300    303.46816   -762.70632    279449.58    -75395.25    7716.9801    -83112.23    5080.5608 
   93350    297.41247   -1015.3864    279670.31   -75399.136     7562.988   -82962.124    5084.1621 
   93400    297.71672   -1079.0766    279840.74   -75351.724     7570.725   -82922.449    5088.4982 
   93450    294.42428   -995.74899    280069.21   -75355.545    7487.0007   -82842.545    5097.5559 
   93500     300.5463   -963.23559    279952.73   -75393.091    7642.6792    -83035.77    5099.6232 
   93550    298.78224   -946.07435    279643.67   -75354.619    7597.8203    -82952.44    5095.0576 
   93600    299.50119   -760.49472    279442.51   -75349.712    7616.1027   -82965.814     5098.455 
   93650    302.04432   -898.53763     279343.1    -75332.46    7680.7729   -83013.233    5101.0388 
   93700    300.79434   -770.85716    279514.78   -75288.811    7648.9866   -82937.797    5105.0756 
   93750    297.45017   -1023.3496    280022.94   -75327.871    7563.9467   -82891.818    5112.0708 
   93800    298.62136   -1206.0756    280325.35   -75349.762    7593.7293   -82943.492    5118.4494 
   93850    296.70376   -1490.5179    280078.52   -75358.935    7544.9662   -82903.901    5116.2088 
   93900    299.56146   -471.72033    279268.34   -75360.808    7617.6355   -82978.444    5112.7829 
   93950    302.19031   -853.57378     279127.9   -75371.375    7684.4851    -83055.86    5115.6839 
   94000     297.3473   -891.25536    279511.52   -75415.734     7561.331   -82977.065    5126.1353 
   94050    298.92869   -1011.4128    280102.02   -75469.077    7601.5445   -83070.621    5136.6457 
   94100     293.2883   -1120.2044    280325.91   -75471.049    7458.1133   -82929.162    5143.5152 
   94150     294.4891   -1053.2937    279938.64   -75505.348    7488.6488   -82993.997    5138.7587 
   94200    298.40037   -947.05163    279429.83   -75478.737    7588.1096   -83066.847    5134.1795 
   94250    299.00327   -989.37258    279153.64    -75433.99    7603.4409   -83037.431    5133.9331 
   94300    294.30246   -832.73982    279202.82   -75426.703    7483.9028   -82910.606    5134.2368 
   94350    297.90032   -1132.4522    279402.34   -75447.926    7575.3938    -83023.32    5139.2559 
   94400    300.19225    -821.8503    279610.08   -75449.185     7633.676   -83082.861    5146.1511 
   94450    297.26254   -1132.3386    279826.26   -75438.543    7559.1755   -82997.719    5153.9434 
   94500    299.16695    -1022.689    279405.54    -75472.99    7607.6033   -83080.594    5153.8747 
   94550    296.60016   -862.37455    279010.54   -75459.678    7542.3315   -83002.009    5150.8919 
   94600    291.89609    -577.2374    279093.48    -75443.54    7422.7106    -82866.25    5153.6841 
   94650    299.69762   -1065.6011    279808.13   -75459.646    7621.0979   -83080.744    5168.0351 
   94700    298.79738   -1306.6413    280037.67   -75425.818    7598.2055   -83024.023    5173.1381 
   94750    295.44056   -914.78198    279676.01   -75477.806    7512.8439   -82990.649    5172.1091 
   94800    296.38492   -863.14561    279070.84   -75530.073    7536.8583   -83066.931    5167.3094 
   94850    301.26767   -773.74234    278850.99   -75572.218    7661.0232   -83233.241    5169.1106 
   94900    294.45436   -1118.1092    279390.65   -75563.277    7487.7654   -83051.042    5177.9051 
   94950    292.53886   -959.93007    279713.56   -75504.987    7439.0556   -82944.043    5183.7995 
   95000    292.23202   -977.69169    279786.13   -75578.965     7431.253   -83010.218     5188.535 
   95050    292.42426    -755.2414    279697.92   -75589.194    7436.1414   -83025.335    5194.0595 
   95100    295.87265   -893.07643    279637.93   -75553.992    7523.8315   -83077.823    5196.2402 
   95150    296.37352   -1086.4907    279777.32   -75522.432    7536.5683   -83059.001    5196.9425 
   95200    294.70234   -850.01937     279684.2   -75544.013    7494.0714   -83038.085    5196.8513 
   95250    294.92997   -841.23278    279535.27   -75572.569    7499.8599   -83072.429     5197.458 
   95300    296.50829   -999.61448    279417.16    -75602.45    7539.9955   -83142.445    5198.3782 
   95350    295.29338   -1026.1527    279033.11    -75596.86    7509.1013   -83105.961    5194.7203 
   95400    297.83412   -658.81447    278838.24   -75554.798    7573.7103   -83128.509    5193.3248 
   95450    297.26431   -1051.7479    279272.95    -75535.91    7559.2205   -83095.131    5200.0048 
   95500    294.93126   -931.63013    279778.28   -75499.881    7499.8927   -82999.773     5204.821 
   95550    297.47953   -1079.1591    280075.57   -75447.228    7564.6934   -83011.922    5213.5234 
   95600    296.24968   -1220.0343    280091.26   -75453.811    7533.4191    -82987.23    5213.8506 
   95650    301.73316    -655.6065    279514.71   -75434.317    7672.8602   -83107.178    5208.3472 
   95700    300.06145   -755.06593    279099.47   -75437.502    7630.3499   -83067.852    5206.7431 
   95750     296.3459   -1192.2056    279103.03    -75432.74    7535.8661   -82968.606     5211.762 
   95800     297.1459   -1056.9899    279344.84    -75413.81    7556.2094    -82970.02     5217.002 
   95850    292.46839   -1065.8984    279834.24   -75390.138    7437.2636   -82827.401     5228.752 
   95900    293.49567   -1014.4886    280021.57   -75390.293    7463.3866   -82853.679    5236.4377 
   95950    294.90414    -1404.904    279949.73   -75368.447     7499.203    -82867.65    5237.1676 
   96000    296.60461   -1004.5584    279580.43   -75362.896    7542.4447    -82905.34    5235.1561 
   96050     301.1196   -1098.0012       279375   -75363.028    7657.2579   -83020.286    5233.1017 
   96100    299.82042   -1157.9176    279637.11   -75419.542    7624.2205   -83043.763    5236.7131 
   96150     294.7616   -1194.0263    279952.91   -75435.617    7495.5784   -82931.196    5246.2185 
   96200    298.86063   -1151.1953    279895.67   -75415.564    7599.8139   -83015.378     5247.721 
   96250    291.51131   -1144.5054    279674.03   -75442.377    7412.9258   -82855.303    5246.2686 
   96300    298.32797   -892.83473    279374.21   -75416.079    7586.2686   -83002.348    5244.9537 
   96350    301.65383   -811.55322    279172.86   -75446.025    7670.8429   -83116.868    5247.1644 
   96400    298.28524   -1178.1444    279534.41   -75466.131    7585.1819   -83051.312    5253.1694 
   96450      292.686   -863.24596    279937.19   -75427.083    7442.7974   -82869.881    5260.9013 
   96500    292.55498   -976.35431    280177.25   -75397.496    7439.4656   -82836.962    5268.4732 
   96550    298.89934   -1034.6584    280009.19   -75430.237    7600.7982   -83031.036     5269.559 
   96600    296.55479   -1147.6356    279477.43   -75492.696    7541.1779   -83033.874    5265.0284 
   96650    298.27007   -912.50412    279022.15   -75526.148    7584.7963   -83110.945    5261.2725 
   96700    297.46449   -801.96021    279088.24   -75534.241    7564.3109   -83098.552    5265.5718 
   96750    292.03217   -998.22622    279585.99   -75562.186     7426.171   -82988.357    5277.0261 
   96800    291.93616   -1211.2345    279815.34    -75582.48    7423.7295   -83006.209    5282.4626 
   96850    297.32822    -1372.568    279360.06   -75573.926    7560.8457   -83134.772     5276.643 
   96900    293.82699   -602.83745    278836.83   -75556.182    7471.8118   -83027.994     5273.258 
   96950     294.7841   -875.12112    279039.88   -75547.462    7496.1506   -83043.612    5280.0796 
   97000    295.25591    -963.4363    279497.36   -75465.728    7508.1482   -82973.877    5285.8331 
   97050    300.44793   -953.18503    279711.26    -75462.38    7640.1776   -83102.557    5289.8963 
   97100    298.94807   -958.94128    279538.81   -75472.006    7602.0373   -83074.043    5291.8796 
   97150    299.48115   -846.18422    279561.85   -75503.302    7615.5931   -83118.895    5295.1502 
   97200    297.72919   -1092.8096    279675.02   -75478.569    7571.0421   -83049.611    5299.1888 
   97250    295.31915   -967.37424    279679.16   -75477.492    7509.7565   -82987.249     5304.277 
   97300    294.17801   -1375.4226    279792.33   -75418.797    7480.7381   -82899.535    5308.5021 
   97350    301.75325    -903.1955    279522.61   -75382.596     7673.371   -83055.967    5306.5168 
   97400    301.55928   -1213.5462     279555.3   -75358.105    7668.4386   -83026.543    5307.6253 
   97450    292.45809   -1170.3171    279865.68   -75336.506    7437.0016   -82773.507    5311.8418 
   97500    301.56498   -978.25198    279907.24   -75362.122    7668.5835   -83030.705    5313.1799 
   97550    299.19867   -1401.3667    279881.79   -75363.737    7608.4099   -82972.147    5317.7005 
   97600    295.43083   -710.96988    279471.54   -75345.004    7512.5965     -82857.6    5317.0605 
   97650    300.12064    -609.7531    279229.84   -75337.401     7631.855   -82969.256    5316.4294 
   97700    299.75979   -904.36342    279617.85   -75339.561    7622.6787    -82962.24    5325.4291 
   97750    298.92426   -1197.3348    279971.58   -75322.686    7601.4317   -82924.118    5331.2922 
   97800    300.24348   -965.70915    279614.14   -75344.367    7634.9786   -82979.346    5327.5406 
   97850     297.0216   -799.35381    279059.37   -75377.294    7553.0487   -82930.343    5322.0246 
   97900    299.67447     -863.813    279065.51   -75368.419    7620.5092   -82988.929    5326.0236 
   97950    299.32711   -879.46098    279532.74   -75359.105    7611.6761   -82970.781    5334.9338 
   98000    300.08194   -1124.8593    279978.14   -75330.998    7630.8708   -82961.869    5341.1904 
   98050     299.3785   -896.98263    279883.61   -75351.811    7612.9828   -82964.794    5342.7142 
   98100    297.82694   -1077.1664    279589.99   -75354.711    7573.5278   -82928.239    5340.9905 
   98150    302.41682   -790.74727    279299.91    -75384.17    7690.2453   -83074.415    5341.5626 
   98200    299.11664   -927.15252    279306.45   -75354.454    7606.3239   -82960.778    5343.9573 
   98250    299.83976   -789.07215    279490.89   -75286.077    7624.7123   -82910.789    5351.0381 
   98300    299.34043   -773.17374    280144.24   -75275.031    7612.0147   -82887.046    5368.3569 
   98350    300.76496   -1448.9894    280573.58   -75213.497    7648.2395   -82861.737    5380.6205 
   98400    298.71399    -1098.799    279843.52    -75258.43    7596.0848   -82854.515    5375.2615 
   98450    298.99398    -815.5949    279091.94    -75300.15    7603.2049   -82903.355    5368.8848 
   98500    302.65054   -1033.6488     279144.6   -75358.205    7696.1885   -83054.393    5374.7776 
   98550    299.31815    -755.1691    279563.22   -75353.186    7611.4482   -82964.634    5384.0687 
   98600    299.66756   -1154.3696    279997.63   -75341.067    7620.3334     -82961.4    5398.8216 
   98650    294.75682   -971.35204    280117.42   -75285.511    7495.4569   -82780.968    5405.8617 
   98700    298.11975   -988.79498    279749.45   -75310.616    7580.9737    -82891.59    5406.9985 
   98750    308.52752   -1009.7171    279375.27   -75284.624     7845.636    -83130.26    5409.3769 
   98800     300.6783   -962.42468    279365.54   -75302.993    7646.0358   -82949.028    5410.8732 
   98850    301.51586   -1063.6472    279500.51   -75321.872    7667.3345   -82989.207    5414.7392 
   98900    294.82251    -924.5216    279732.53   -75319.824    7497.1272   -82816.951    5424.2632 
   98950    303.62087   -1044.7621    279813.98   -75301.797    7720.8633    -83022.66    5428.2823 
   99000    302.29728   -969.63506    279886.42   -75301.675    7687.2053    -82988.88    5431.1088 
   99050    299.49794   -974.00281    279827.42   -75352.913    7616.0202   -82968.933    5433.6685 
   99100     302.4747   -1079.1956     279801.1   -75302.717     7691.717   -82994.434    5437.9088 
   99150    303.47818   -1237.9597    279738.41    -75370.91    7717.2348   -83088.145    5434.5932 
   99200    297.58534   -640.14205     279501.8   -75438.858    7567.3841   -83006.242    5430.6176 
   99250    298.01853    -998.8344    279702.32   -75469.203    7578.3999   -83047.603    5431.7157 
   99300    292.63681   -966.03382    279832.32   -75482.928    7441.5464   -82924.474    5435.0585 
   99350    297.65784    -1200.596    279730.25   -75535.319    7569.2276   -83104.547    5434.9112 
   99400    296.01291   -1008.9571    279255.63   -75579.987    7527.3983   -83107.386    5430.7605 
   99450    301.77587   -830.21416    278867.95   -75579.921    7673.9463   -83253.867     5426.771 
   99500    295.80138   -970.28482    279080.14   -75571.291    7522.0193    -83093.31    5431.1893 
   99550    288.43458   -961.73838    279735.74   -75591.958    7334.6867   -82926.645    5444.5342 
   99600    292.14356   -1051.7005    280099.41   -75594.975    7429.0035   -83023.978    5452.8539 
   99650    295.82956   -1396.2714    279890.55   -75540.982    7522.7357   -83063.718    5452.5931 
   99700    295.78035   -826.68998    278911.16   -75541.747    7521.4845   -83063.231    5442.5897 
   99750    296.40391   -644.37858    278365.93   -75520.397    7537.3411   -83057.738    5437.8297 
   99800    298.75149   -824.23207    278894.76   -75544.694    7597.0383   -83141.733    5446.9192 
   99850    296.76683   -1249.5976    279852.75   -75568.461    7546.5698    -83115.03    5462.5092 
   99900    294.57279   -1261.9342    280217.83   -75534.033    7490.7771    -83024.81    5473.0143 
   99950    294.66264   -1224.4023    279839.73   -75520.003    7493.0619   -83013.064    5470.0697 
  100000    300.66969   -738.76492    279238.93   -75533.821     7645.817   -83179.639      5460.15 
Loop time of 251.887 on 6 procs for 100000 steps with 8532 atoms

Performance: 343.011 ns/day, 0.070 hours/ns, 397.003 timesteps/s
99.4% CPU use with 6 MPI tasks x no OpenMP threads

MPI task timing breakdown:
Section |  min time  |  avg time  |  max time  |%varavg| %total
---------------------------------------------------------------
Pair    | 72.028     | 129.1      | 198.09     | 445.4 | 51.25
Neigh   | 31.196     | 36.639     | 40.556     |  62.0 | 14.55
Comm    | 6.7964     | 79.713     | 142.2      | 605.7 | 31.65
Output  | 0.14839    | 0.15137    | 0.16452    |   1.5 |  0.06
Modify  | 5.1842     | 5.2187     | 5.2647     |   1.2 |  2.07
Other   |            | 1.068      |            |       |  0.42

Nlocal:        1422.00 ave        1451 max        1370 min
Histogram: 1 0 0 0 0 1 0 2 1 1
Nghost:        2005.00 ave        2037 max        1966 min
Histogram: 1 0 1 0 0 1 1 0 1 1
Neighs:        0.00000 ave           0 max           0 min
Histogram: 6 0 0 0 0 0 0 0 0 0
FullNghs:      39366.3 ave       40658 max       38334 min
Histogram: 1 2 0 1 0 0 0 0 0 2

Total # of neighbors = 236198
Ave neighs/atom = 27.683779
Neighbor list builds = 20924
Dangerous builds = 0

# Create data file for import to other simulations
#
write_data data.${NAME}
write_data data.coexist_298K_-1000atm_ML
System init for write_data ...

Total wall time: 0:04:12
